 Gaussian 09, Revision D.01,
 Gaussian 09:  ES64L-G09RevD.01 24-Apr-2013

 -----------------------------
 # b3lyp 6-31G(2df,p) opt Freq
 -----------------------------

 -----
 titel
 -----
 Symbolic Z-matrix:
 Charge =  0 Multiplicity = 1

 SCF Done:  E(RB3LYP) =  -423.172877117     A.U. after   14 cycles
 Optimization completed.
    -- Stationary point found.
 Normal termination of Gaussian 09 at Tue Jan 28 14:12:03 2020.

 ----------------------------------------------------------------------
 #N Geom=AllCheck Guess=TCheck SCRF=Check GenChk RB3LYP/6-31G(2df,p) Fr
 eq
 ----------------------------------------------------------------------

 Structure from the checkpoint file:  "/scratch/puck/g09_5c969a4b-89d0-4a25-aa36-4ed071c2e28a/Gau-121160.chk"
 -----
 titel
 -----
 Charge =  0 Multiplicity = 1

                         Standard orientation:
 ---------------------------------------------------------------------
 Center     Atomic      Atomic             Coordinates (Angstroms)
 Number     Number       Type             X           Y           Z
 ---------------------------------------------------------------------
      1          6           0       -2.969306   -0.641659    0.213669
      2          6           0       -1.892201    0.207324   -0.471221
      3          6           0       -0.514670   -0.441735   -0.400078
      4          6           0        0.749899    0.259969   -1.034216
      5          6           0        0.777816    1.582517   -0.253397
      6          8           0        0.444588    1.117736    1.085144
      7          6           0        0.327409   -0.304017    0.910857
      8          6           0        1.521598   -0.617250   -0.017689
      9          8           0        2.485508   -1.318957   -0.026511
     10          1           0       -3.046569   -1.633631   -0.244737
     11          1           0       -2.746493   -0.782494    1.276444
     12          1           0       -3.950440   -0.163258    0.140484
     13          1           0       -2.159452    0.362248   -1.524042
     14          1           0       -1.857059    1.194983   -0.002679
     15          1           0       -0.558030   -1.488249   -0.721304
     16          1           0        0.964177    0.272237   -2.100131
     17          1           0        1.766461    2.055170   -0.251237
     18          1           0        0.034360    2.314244   -0.586091
     19          1           0        0.109019   -0.792380    1.856675
 ---------------------------------------------------------------------

 SCF Done:  E(RB3LYP) =  -423.172877117     A.U. after    1 cycles

 The electronic state is 1-A.
 Alpha  occ. eigenvalues --  -19.15232 -19.14698 -10.27606 -10.24532 -10.24280
 Alpha  occ. eigenvalues --  -10.21027 -10.20918 -10.19323 -10.18316  -1.06495
 Alpha  occ. eigenvalues --   -1.04433  -0.84934  -0.77421  -0.73899  -0.66019
 Alpha  occ. eigenvalues --   -0.59521  -0.58057  -0.55832  -0.52006  -0.47993
 Alpha  occ. eigenvalues --   -0.46226  -0.45316  -0.42943  -0.41700  -0.40464
 Alpha  occ. eigenvalues --   -0.39068  -0.38661  -0.37306  -0.35189  -0.34514
 Alpha  occ. eigenvalues --   -0.33802  -0.32534  -0.28404  -0.22608
 Alpha virt. eigenvalues --   -0.01932   0.08470   0.10550   0.11461   0.12216
 Alpha virt. eigenvalues --    0.12749   0.13313   0.14313   0.14691   0.16436
 Alpha virt. eigenvalues --    0.16878   0.17089   0.18862   0.20573   0.21152

 Mulliken charges:
               1
     1  C   -0.383310
     2  C   -0.223665
     3  C    0.014104
     4  C   -0.226453
     5  C   -0.091361
     6  O   -0.278359
     7  C   -0.038113
     8  C    0.444576
     9  O   -0.315760
    10  H    0.117316
    11  H    0.123447
    12  H    0.118224
    13  H    0.101895
    14  H    0.121273
    15  H    0.093681
    16  H    0.093136
    17  H    0.118695
    18  H    0.110934
    19  H    0.099740
 Sum of Mulliken charges =   0.00000

 Dipole moment (field-independent basis, Debye):
    X=             -2.4192    Y=              0.7851    Z=             -1.3542  Tot=              2.8814
 Quadrupole moment (field-independent basis, Debye-Ang):
   XX=            -58.9930   YY=            -54.3138   ZZ=            -52.8137
   XY=              5.0206   XZ=             -0.6699   YZ=             -2.8291

  Exact polarizability:  87.089  -1.136  72.625  -1.021  -3.464  66.744
 Approx polarizability: 118.598  -7.696 111.442  -0.553  -2.582 105.054

                      1                      2                      3
                      A                      A                      A
 Frequencies --     76.5613               125.3414               174.2091
 Red. masses --      2.2907                 5.5159                 1.7874
 Frc consts  --      0.0079                 0.0511                 0.0320
 IR Inten    --      0.1899                 2.0575                 0.5457

                      4                      5                      6
                      A                      A                      A
 Frequencies --    211.0698               267.2348               313.7339
 Red. masses --      2.4775                 1.7161                 2.9889
 Frc consts  --      0.0650                 0.0722                 0.1733
 IR Inten    --      1.4675                 0.7276                 6.5043

                      7                      8                      9
                      A                      A                      A
 Frequencies --    363.7062               477.1324               524.7449
 Red. masses --      3.4988                 3.3825                 3.7968
 Frc consts  --      0.2727                 0.4537                 0.6160
 IR Inten    --      0.9840                 3.2826                 2.5382

                     10                     11                     12
                      A                      A                      A
 Frequencies --    656.1940               673.2720               717.9098
 Red. masses --      3.4132                 3.8486                 2.7626
 Frc consts  --      0.8659                 1.0279                 0.8389
 IR Inten    --      3.0486                 1.8337                 9.6607

                     13                     14                     15
                      A                      A                      A
 Frequencies --    785.2891               814.3131               842.6607
 Red. masses --      2.3455                 3.2390                 1.9460
 Frc consts  --      0.8522                 1.2655                 0.8141
 IR Inten    --      1.0870                 1.6233                 2.0361

                     16                     17                     18
                      A                      A                      A
 Frequencies --    904.8732               922.3389               957.9191
 Red. masses --      4.1689                 2.1842                 2.0378
 Frc consts  --      2.0112                 1.0948                 1.1017
 IR Inten    --     25.3974                13.2779                 3.0354

                     19                     20                     21
                      A                      A                      A
 Frequencies --    973.7106              1003.1923              1055.4647
 Red. masses --      3.3056                 1.4719                 2.6449
 Frc consts  --      1.8465                 0.8728                 1.7360
 IR Inten    --     14.4803                14.3428                 2.1882

                     22                     23                     24
                      A                      A                      A
 Frequencies --   1062.0642              1071.6632              1090.1909
 Red. masses --      3.2763                 1.8773                 1.6006
 Frc consts  --      2.1774                 1.2703                 1.1209
 IR Inten    --     19.5671                 6.0591                17.0164

                     25                     26                     27
                      A                      A                      A
 Frequencies --   1118.5858              1140.0561              1178.0381
 Red. masses --      1.5286                 1.8237                 1.4106
 Frc consts  --      1.1269                 1.3966                 1.1534
 IR Inten    --      1.5379                12.1313                 1.7418

                     28                     29                     30
                      A                      A                      A
 Frequencies --   1190.6008              1220.1973              1251.9545
 Red. masses --      2.2153                 1.4599                 1.5264
 Frc consts  --      1.8502                 1.2807                 1.4096
 IR Inten    --      7.6322                 0.8691                 3.2037

                     31                     32                     33
                      A                      A                      A
 Frequencies --   1274.4954              1303.0264              1343.8652
 Red. masses --      1.3924                 1.2505                 1.3498
 Frc consts  --      1.3326                 1.2510                 1.4363
 IR Inten    --      1.7975                 0.7415                 7.5975

                     34                     35                     36
                      A                      A                      A
 Frequencies --   1365.5730              1404.4060              1414.5458
 Red. masses --      1.3840                 1.4404                 1.2374
 Frc consts  --      1.5206                 1.6739                 1.4588
 IR Inten    --      1.2629                 0.7055                 1.0683

                     37                     38                     39
                      A                      A                      A
 Frequencies --   1484.6054              1499.2468              1504.3698
 Red. masses --      1.0670                 1.0404                 1.0641
 Frc consts  --      1.3856                 1.3779                 1.4189
 IR Inten    --      0.4984                 5.6462                 2.9315

                     40                     41                     42
                      A                      A                      A
 Frequencies --   1532.8257              1912.3762              3030.6428
 Red. masses --      1.0888                12.2024                 1.0619
 Frc consts  --      1.5072                26.2930                 5.7463
 IR Inten    --      0.4958               324.7178                15.7360

                     43                     44                     45
                      A                      A                      A
 Frequencies --   3032.9034              3034.1945              3053.9727
 Red. masses --      1.0547                 1.0415                 1.0839
 Frc consts  --      5.7163                 5.6495                 5.9561
 IR Inten    --     40.0022                47.8212                10.0476

                     46                     47                     48
                      A                      A                      A
 Frequencies --   3072.5425              3084.6231              3107.4017
 Red. masses --      1.1109                 1.0958                 1.1015
 Frc consts  --      6.1789                 6.1428                 6.2663
 IR Inten    --     30.8475                 3.1044                39.7543

                     49                     50                     51
                      A                      A                      A
 Frequencies --   3108.4665              3156.7330              3168.9562
 Red. masses --      1.1006                 1.0908                 1.0930
 Frc consts  --      6.2657                 6.4043                 6.4668
 IR Inten    --     32.2224                15.8377                12.8608

 - Thermochemistry -
 -------------------
 Temperature   298.150 Kelvin.  Pressure   1.00000 Atm.
 Atom     1 has atomic number  6 and mass  12.00000

 Molecular mass:   126.06808 amu.
 Principal axes and moments of inertia in atomic units:
                           1         2         3
     Eigenvalues --   605.944131434.514701611.35898
           X            0.99919   0.03928  -0.00872
           Y           -0.03987   0.99582  -0.08215
           Z            0.00545   0.08243   0.99658
 This molecule is an asymmetric top.
 Rotational symmetry number  1.
 Warning -- assumption of classical behavior for rotation
           may cause significant error
 Rotational temperatures (Kelvin)      0.14294     0.06038     0.05375
 Rotational constants (GHZ):           2.97840     1.25808     1.12001
 Zero-point vibrational energy     419015.9 (Joules/Mol)
                                  100.14721 (Kcal/Mol)
 Warning -- explicit consideration of   9 degrees of freedom as
           vibrations may cause significant error
 Vibrational temperatures:    110.15   180.34   250.65   303.68   384.49
          (Kelvin)            451.39   523.29   686.49   754.99   944.12
                              968.69  1032.91  1129.85  1171.61  1212.40
                             1301.91  1327.04  1378.23  1400.95  1443.37
                             1518.58  1528.07  1541.88  1568.54  1609.39
                             1640.28  1694.93  1713.01  1755.59  1801.28
                             1833.71  1874.76  1933.52  1964.75  2020.62
                             2035.21  2136.01  2157.08  2164.45  2205.39
                             2751.48  4360.41  4363.67  4365.52  4393.98
                             4420.70  4438.08  4470.85  4472.38  4541.83
                             4559.42

 Zero-point correction=                           0.159595 (Hartree/Particle)
 Thermal correction to Energy=                    0.167807
 Thermal correction to Enthalpy=                  0.168751
 Thermal correction to Gibbs Free Energy=         0.126550
 Sum of electronic and zero-point Energies=           -423.013282
 Sum of electronic and thermal Energies=              -423.005070
 Sum of electronic and thermal Enthalpies=            -423.004126
 Sum of electronic and thermal Free Energies=         -423.046327

                     E (Thermal)             CV                S
                      KCal/Mol        Cal/Mol-Kelvin    Cal/Mol-Kelvin
 Total                  105.301             31.232             88.821
 Electronic               0.000              0.000              0.000
 Translational            0.889              2.981             40.409
 Rotational               0.889              2.981             28.728
 Vibrational            103.523             25.270             19.684
 Vibration     1          0.599              1.965              3.977
 Vibration     2          0.610              1.928              3.016
 Vibration     3          0.627              1.874              2.390
 Vibration     4          0.643              1.824              2.034
 Vibration     5          0.672              1.733              1.614
 Vibration     6          0.702              1.647              1.343
 Vibration     7          0.737              1.547              1.106
 Vibration     8          0.834              1.301              0.718
 Vibration     9          0.880              1.195              0.599

 Optimization completed.
    -- Stationary point found.
 Normal termination of Gaussian 09 at Tue Jan 28 14:53:04 2020.
