 Gaussian 09, Revision D.01,
 Gaussian 09:  ES64L-G09RevD.01 24-Apr-2013

 -----------------------------
 # b3lyp 6-31G(2df,p) opt Freq
 -----------------------------

 -----
 titel
 -----
 Symbolic Z-matrix:
 Charge =  0 Multiplicity = 1

 SCF Done:  E(RB3LYP) =  -423.111551777     A.U. after   14 cycles
 SCF Done:  E(RB3LYP) =  -423.111551763     A.U. after    6 cycles
 SCF Done:  E(RB3LYP) =  -423.111551813     A.U. after    7 cycles
 SCF Done:  E(RB3LYP) =  -423.111551805     A.U. after    7 cycles
 Optimization completed.
    -- Stationary point found.
 Normal termination of Gaussian 09 at Tue Jan 28 12:51:45 2020.

 ----------------------------------------------------------------------
 #N Geom=AllCheck Guess=TCheck SCRF=Check GenChk RB3LYP/6-31G(2df,p) Fr
 eq
 ----------------------------------------------------------------------

 Structure from the checkpoint file:  "/scratch/puck/g09_ffb91ee0-5b8d-415d-8439-402a216486d0/Gau-130312.chk"
 -----
 titel
 -----
 Charge =  0 Multiplicity = 1

                         Standard orientation:
 ---------------------------------------------------------------------
 Center     Atomic      Atomic             Coordinates (Angstroms)
 Number     Number       Type             X           Y           Z
 ---------------------------------------------------------------------
      1          6           0        3.376744    0.066833   -0.057646
      2          8           0        2.242414   -0.748641   -0.286582
      3          6           0        1.094372   -0.255021    0.319397
      4          6           0        0.267827    0.791963   -0.379832
      5          8           0       -0.342432    1.760911    0.419153
      6          6           0       -0.217579   -0.644635   -0.298921
      7          6           0       -1.417323   -0.968216    0.581980
      8          6           0       -2.661162   -0.430561    0.031496
      9          6           0       -3.658001    0.048902   -0.441274
     10          1           0        3.617534    0.131072    1.014007
     11          1           0        4.215521   -0.395960   -0.582477
     12          1           0        3.227325    1.086374   -0.439786
     13          1           0        1.133469   -0.178261    1.408511
     14          1           0        0.630693    1.131729   -1.349717
     15          1           0       -1.262902    1.833734    0.137583
     16          1           0       -0.148490   -1.210623   -1.222422
     17          1           0       -1.504900   -2.053579    0.711371
     18          1           0       -1.264799   -0.547234    1.581573
     19          1           0       -4.552570    0.448999   -0.850415
 ---------------------------------------------------------------------

 SCF Done:  E(RB3LYP) =  -423.111551805     A.U. after    1 cycles

 The electronic state is 1-A.
 Alpha  occ. eigenvalues --  -19.14709 -19.14257 -10.23365 -10.23152 -10.22475
 Alpha  occ. eigenvalues --  -10.21573 -10.19603 -10.18875 -10.17738  -1.04428
 Alpha  occ. eigenvalues --   -1.02502  -0.85278  -0.78018  -0.71066  -0.68691
 Alpha  occ. eigenvalues --   -0.59349  -0.58807  -0.53615  -0.51849  -0.50387
 Alpha  occ. eigenvalues --   -0.46797  -0.45792  -0.44992  -0.44306  -0.42045
 Alpha  occ. eigenvalues --   -0.40263  -0.37765  -0.34787  -0.32144  -0.30151
 Alpha  occ. eigenvalues --   -0.27306  -0.27207  -0.25891  -0.24241
 Alpha virt. eigenvalues --    0.04791   0.05061   0.07855   0.10413   0.11152
 Alpha virt. eigenvalues --    0.12063   0.13176   0.14017   0.14764   0.15845
 Alpha virt. eigenvalues --    0.16358   0.17986   0.18323   0.19504   0.21775

 Mulliken charges:
               1
     1  C   -0.237169
     2  O   -0.240530
     3  C    0.070291
     4  C    0.052230
     5  O   -0.424963
     6  C   -0.097801
     7  C   -0.383741
     8  C    0.300542
     9  C   -0.458464
    10  H    0.109384
    11  H    0.127707
    12  H    0.114788
    13  H    0.091811
    14  H    0.091876
    15  H    0.295712
    16  H    0.107837
    17  H    0.137211
    18  H    0.143507
    19  H    0.199775
 Sum of Mulliken charges =   0.00000

 Dipole moment (field-independent basis, Debye):
    X=             -0.2258    Y=              0.0404    Z=             -0.2306  Tot=              0.3253
 Quadrupole moment (field-independent basis, Debye-Ang):
   XX=            -46.6786   YY=            -55.6188   ZZ=            -52.4631
   XY=             -0.5031   XZ=              2.0509   YZ=             -2.9920

  Exact polarizability: 107.000  -4.872  65.979   6.265  -3.145  62.204
 Approx polarizability: 135.664 -13.738 102.445  14.395  -5.268  96.760

                      1                      2                      3
                      A                      A                      A
 Frequencies --     52.7697                75.3129               124.5932
 Red. masses --      4.0806                 3.2966                 3.1349
 Frc consts  --      0.0067                 0.0110                 0.0287
 IR Inten    --      1.5083                 1.3963                 3.0644

                      4                      5                      6
                      A                      A                      A
 Frequencies --    171.1162               190.0604               223.2051
 Red. masses --      2.0622                 1.4690                 4.0870
 Frc consts  --      0.0356                 0.0313                 0.1200
 IR Inten    --      2.6381                 0.9073                 0.5616

                      7                      8                      9
                      A                      A                      A
 Frequencies --    286.9433               312.0661               339.4002
 Red. masses --      3.7069                 3.2574                 2.7789
 Frc consts  --      0.1798                 0.1869                 0.1886
 IR Inten    --      2.0969                 9.0332                 5.4822

                     10                     11                     12
                      A                      A                      A
 Frequencies --    392.5740               397.0191               475.0329
 Red. masses --      2.5733                 1.4792                 4.5383
 Frc consts  --      0.2337                 0.1374                 0.6034
 IR Inten    --     27.0010                82.0850                 7.3330

                     13                     14                     15
                      A                      A                      A
 Frequencies --    497.3610               624.8334               644.1818
 Red. masses --      2.7552                 1.2388                 1.2798
 Frc consts  --      0.4016                 0.2850                 0.3129
 IR Inten    --     23.3090                42.1402                43.2834

                     16                     17                     18
                      A                      A                      A
 Frequencies --    654.9091               804.4129               885.8929
 Red. masses --      2.7729                 3.7227                 1.7486
 Frc consts  --      0.7007                 1.4193                 0.8085
 IR Inten    --      5.2667                 7.2082                 4.0178

                     19                     20                     21
                      A                      A                      A
 Frequencies --    916.7082               961.1430               989.2811
 Red. masses --      2.7916                 3.3279                 2.7939
 Frc consts  --      1.3822                 1.8113                 1.6110
 IR Inten    --      9.0273                10.5712                 3.1989

                     22                     23                     24
                      A                      A                      A
 Frequencies --   1028.2167              1050.1547              1097.1220
 Red. masses --      2.7177                 1.9833                 1.3293
 Frc consts  --      1.6929                 1.2887                 0.9427
 IR Inten    --     29.4390                27.2048                11.5839

                     25                     26                     27
                      A                      A                      A
 Frequencies --   1115.0432              1151.1859              1172.9806
 Red. masses --      1.8919                 2.1205                 3.1338
 Frc consts  --      1.3859                 1.6557                 2.5404
 IR Inten    --      3.8575                22.5822               117.7094

                     28                     29                     30
                      A                      A                      A
 Frequencies --   1182.0748              1213.5839              1228.6050
 Red. masses --      1.3046                 1.6066                 1.4346
 Frc consts  --      1.0741                 1.3941                 1.2759
 IR Inten    --      6.0513                27.1310                18.7490

                     31                     32                     33
                      A                      A                      A
 Frequencies --   1253.1991              1303.4772              1310.1368
 Red. masses --      1.6734                 1.2255                 1.2233
 Frc consts  --      1.5485                 1.2268                 1.2372
 IR Inten    --     41.7595                35.3765                29.9920

                     34                     35                     36
                      A                      A                      A
 Frequencies --   1350.0346              1384.4235              1456.2616
 Red. masses --      1.2580                 1.5274                 1.5120
 Frc consts  --      1.3509                 1.7249                 1.8893
 IR Inten    --     16.7020                16.2957                13.5348

                     37                     38                     39
                      A                      A                      A
 Frequencies --   1465.3293              1485.3646              1493.5232
 Red. masses --      1.1328                 1.0578                 1.4722
 Frc consts  --      1.4331                 1.3751                 1.9348
 IR Inten    --      8.2086                 5.1656                10.9404

                     40                     41                     42
                      A                      A                      A
 Frequencies --   1508.9611              2231.4905              2987.0197
 Red. masses --      1.1163                 5.9323                 1.0363
 Frc consts  --      1.4976                17.4046                 5.4475
 IR Inten    --      3.9634                 2.2507                57.9178

                     43                     44                     45
                      A                      A                      A
 Frequencies --   3035.6837              3039.8208              3073.3260
 Red. masses --      1.0607                 1.1024                 1.0982
 Frc consts  --      5.7591                 6.0018                 6.1113
 IR Inten    --     12.0727                48.0937                 3.2650

                     46                     47                     48
                      A                      A                      A
 Frequencies --   3079.2445              3105.0995              3120.8459
 Red. masses --      1.0885                 1.0871                 1.0982
 Frc consts  --      6.0807                 6.1755                 6.3018
 IR Inten    --     19.3936                33.2114                29.4928

                     49                     50                     51
                      A                      A                      A
 Frequencies --   3167.6594              3504.1331              3772.1936
 Red. masses --      1.0884                 1.1616                 1.0662
 Frc consts  --      6.4348                 8.4039                 8.9386
 IR Inten    --      7.6134                69.7114                37.9549

 - Thermochemistry -
 -------------------
 Temperature   298.150 Kelvin.  Pressure   1.00000 Atm.
 Atom     1 has atomic number  6 and mass  12.00000

 Molecular mass:   126.06808 amu.
 Principal axes and moments of inertia in atomic units:
                           1         2         3
     Eigenvalues --   439.243452140.365382399.75314
           X            0.99998   0.00515   0.00228
           Y           -0.00506   0.99922  -0.03906
           Z           -0.00248   0.03904   0.99923
 This molecule is an asymmetric top.
 Rotational symmetry number  1.
 Warning -- assumption of classical behavior for rotation
           may cause significant error
 Rotational temperatures (Kelvin)      0.19719     0.04047     0.03609
 Rotational constants (GHZ):           4.10875     0.84319     0.75205
 Zero-point vibrational energy     409033.2 (Joules/Mol)
                                   97.76128 (Kcal/Mol)
 Warning -- explicit consideration of  13 degrees of freedom as
           vibrations may cause significant error
 Vibrational temperatures:     75.92   108.36   179.26   246.20   273.45
          (Kelvin)            321.14   412.85   448.99   488.32   564.83
                              571.22   683.47   715.59   898.99   926.83
                              942.27  1157.37  1274.60  1318.94  1382.87
                             1423.35  1479.37  1510.94  1578.51  1604.30
                             1656.30  1687.66  1700.74  1746.07  1767.69
                             1803.07  1875.41  1884.99  1942.40  1991.87
                             2095.23  2108.28  2137.11  2148.84  2171.06
                             3210.61  4297.65  4367.67  4373.62  4421.83
                             4430.34  4467.54  4490.20  4557.55  5041.66
                             5427.34

 Zero-point correction=                           0.155793 (Hartree/Particle)
 Thermal correction to Energy=                    0.165909
 Thermal correction to Enthalpy=                  0.166854
 Thermal correction to Gibbs Free Energy=         0.120345
 Sum of electronic and zero-point Energies=           -422.955759
 Sum of electronic and thermal Energies=              -422.945642
 Sum of electronic and thermal Enthalpies=            -422.944698
 Sum of electronic and thermal Free Energies=         -422.991207

                     E (Thermal)             CV                S
                      KCal/Mol        Cal/Mol-Kelvin    Cal/Mol-Kelvin
 Total                  104.110             36.517             97.885
 Electronic               0.000              0.000              0.000
 Translational            0.889              2.981             40.409
 Rotational               0.889              2.981             29.202
 Vibrational            102.332             30.556             28.275
 Vibration     1          0.596              1.977              4.711
 Vibration     2          0.599              1.965              4.009
 Vibration     3          0.610              1.928              3.028
 Vibration     4          0.626              1.878              2.423
 Vibration     5          0.633              1.854              2.227
 Vibration     6          0.649              1.806              1.933
 Vibration     7          0.684              1.698              1.492
 Vibration     8          0.700              1.651              1.351
 Vibration     9          0.719              1.597              1.215
 Vibration    10          0.760              1.486              0.990
 Vibration    11          0.764              1.477              0.974
 Vibration    12          0.832              1.305              0.724
 Vibration    13          0.853              1.256              0.665

 Optimization completed.
    -- Stationary point found.
 Normal termination of Gaussian 09 at Tue Jan 28 13:34:16 2020.
