 Gaussian 09, Revision D.01,
 Gaussian 09:  ES64L-G09RevD.01 24-Apr-2013

 -----------------------------
 # b3lyp 6-31G(2df,p) opt Freq
 -----------------------------

 -----
 titel
 -----
 Symbolic Z-matrix:
 Charge =  0 Multiplicity = 1

 SCF Done:  E(RB3LYP) =  -423.184352983     A.U. after   14 cycles
 Optimization completed.
    -- Stationary point found.
 Normal termination of Gaussian 09 at Mon Jan 27 13:38:21 2020.

 ----------------------------------------------------------------------
 #N Geom=AllCheck Guess=TCheck SCRF=Check GenChk RB3LYP/6-31G(2df,p) Fr
 eq
 ----------------------------------------------------------------------

 Structure from the checkpoint file:  "/scratch/puck/g09_21951315-c313-4621-8c0a-168ab65aaf2b/Gau-28513.chk"
 -----
 titel
 -----
 Charge =  0 Multiplicity = 1

                         Standard orientation:
 ---------------------------------------------------------------------
 Center     Atomic      Atomic             Coordinates (Angstroms)
 Number     Number       Type             X           Y           Z
 ---------------------------------------------------------------------
      1          8           0       -3.030317    0.149828   -0.202550
      2          6           0       -2.076209   -0.381788    0.300652
      3          6           0       -0.703920   -0.439166   -0.357884
      4          8           0        0.102049   -1.289542    0.433710
      5          6           0        1.406874   -1.432102   -0.113850
      6          6           0        2.222086   -0.141135    0.018390
      7          6           0        1.391634    1.095642   -0.326050
      8          6           0        0.444428    1.656675    0.708630
      9          6           0       -0.105941    0.952126   -0.503370
     10          1           0       -2.117768   -0.870449    1.299100
     11          1           0       -0.838230   -0.874724   -1.364211
     12          1           0        1.879003   -2.256569    0.427106
     13          1           0        1.324866   -1.724509   -1.173269
     14          1           0        2.611669   -0.056461    1.039128
     15          1           0        3.091436   -0.207290   -0.644631
     16          1           0        1.880180    1.821161   -0.968168
     17          1           0        0.397636    1.135817    1.659801
     18          1           0        0.319501    2.731424    0.774581
     19          1           0       -0.595864    1.557797   -1.257827
 ---------------------------------------------------------------------

 SCF Done:  E(RB3LYP) =  -423.184352983     A.U. after    1 cycles

 The electronic state is 1-A.
 Alpha  occ. eigenvalues --  -19.15244 -19.14121 -10.26947 -10.24372 -10.23590
 Alpha  occ. eigenvalues --  -10.19993 -10.19932 -10.19132 -10.18761  -1.05457
 Alpha  occ. eigenvalues --   -1.04257  -0.86774  -0.78315  -0.71248  -0.64802
 Alpha  occ. eigenvalues --   -0.61332  -0.57348  -0.54566  -0.51634  -0.49925
 Alpha  occ. eigenvalues --   -0.47764  -0.45805  -0.44142  -0.42502  -0.41589
 Alpha  occ. eigenvalues --   -0.39604  -0.39104  -0.36549  -0.35655  -0.32215
 Alpha  occ. eigenvalues --   -0.29546  -0.29436  -0.26237  -0.24607
 Alpha virt. eigenvalues --   -0.02471   0.07569   0.09800   0.11084   0.11659
 Alpha virt. eigenvalues --    0.12865   0.13828   0.15014   0.15245   0.16977
 Alpha virt. eigenvalues --    0.18182   0.18283   0.19344   0.21972   0.23688

 Mulliken charges:
               1
     1  O   -0.254465
     2  C    0.144427
     3  C    0.006963
     4  O   -0.263555
     5  C   -0.071105
     6  C   -0.232133
     7  C   -0.042321
     8  C   -0.288940
     9  C   -0.027235
    10  H    0.091895
    11  H    0.092064
    12  H    0.109873
    13  H    0.092652
    14  H    0.110179
    15  H    0.103335
    16  H    0.090511
    17  H    0.120397
    18  H    0.114090
    19  H    0.103369
 Sum of Mulliken charges =   0.00000

 Dipole moment (field-independent basis, Debye):
    X=              3.0151    Y=             -0.1002    Z=             -0.3433  Tot=              3.0362
 Quadrupole moment (field-independent basis, Debye-Ang):
   XX=            -60.3323   YY=            -51.7933   ZZ=            -51.9836
   XY=              0.8441   XZ=             -1.9619   YZ=              0.4937

  Exact polarizability:  86.543  -3.265  72.427   0.419  -0.656  66.271
 Approx polarizability: 118.552  -6.601 101.408   3.672  -3.340 105.668

                      1                      2                      3
                      A                      A                      A
 Frequencies --     23.8257                92.9397               173.5239
 Red. masses --      3.1416                 2.9388                 2.8461
 Frc consts  --      0.0011                 0.0150                 0.0505
 IR Inten    --     11.1678                 1.4307                 0.6425

                      4                      5                      6
                      A                      A                      A
 Frequencies --    220.2528               287.3921               354.8375
 Red. masses --      3.2138                 2.7922                 3.0101
 Frc consts  --      0.0919                 0.1359                 0.2233
 IR Inten    --      2.9937                 4.4629                 0.1425

                      7                      8                      9
                      A                      A                      A
 Frequencies --    408.6793               472.7245               536.0834
 Red. masses --      3.2626                 4.5362                 3.2878
 Frc consts  --      0.3211                 0.5973                 0.5567
 IR Inten    --      0.4732                 3.0568                15.2639

                     10                     11                     12
                      A                      A                      A
 Frequencies --    578.7153               690.5815               750.0687
 Red. masses --      3.1629                 2.3785                 2.5882
 Frc consts  --      0.6241                 0.6683                 0.8579
 IR Inten    --      0.6462                18.6536                 0.7684

                     13                     14                     15
                      A                      A                      A
 Frequencies --    791.0158               840.6607               860.7718
 Red. masses --      3.0990                 1.2730                 1.7339
 Frc consts  --      1.1424                 0.5300                 0.7569
 IR Inten    --      5.1524                 7.8196                 8.8506

                     16                     17                     18
                      A                      A                      A
 Frequencies --    917.1227               943.6112               976.9480
 Red. masses --      2.2143                 3.0303                 2.1298
 Frc consts  --      1.0973                 1.5897                 1.1977
 IR Inten    --      6.4799                12.1786                11.5149

                     19                     20                     21
                      A                      A                      A
 Frequencies --    997.6836              1067.6105              1073.9957
 Red. masses --      2.0444                 1.7946                 1.5119
 Frc consts  --      1.1990                 1.2051                 1.0275
 IR Inten    --      3.1393                 0.5661                19.4309

                     22                     23                     24
                      A                      A                      A
 Frequencies --   1081.8225              1097.2813              1111.2050
 Red. masses --      2.1524                 2.1543                 2.6864
 Frc consts  --      1.4841                 1.5283                 1.9544
 IR Inten    --     28.9420                 9.1640                12.5422

                     25                     26                     27
                      A                      A                      A
 Frequencies --   1130.8852              1145.4963              1162.5795
 Red. masses --      1.1746                 1.8170                 2.4718
 Frc consts  --      0.8851                 1.4047                 1.9684
 IR Inten    --      1.1894                 2.1237                67.2416

                     28                     29                     30
                      A                      A                      A
 Frequencies --   1225.1258              1259.6158              1283.3164
 Red. masses --      1.5205                 1.2530                 1.3170
 Frc consts  --      1.3446                 1.1713                 1.2779
 IR Inten    --      2.4026                 1.9995                13.7792

                     31                     32                     33
                      A                      A                      A
 Frequencies --   1312.3634              1333.6894              1354.2766
 Red. masses --      1.5052                 1.3300                 1.4026
 Frc consts  --      1.5274                 1.3938                 1.5157
 IR Inten    --      6.6202                13.3390                 3.1171

                     34                     35                     36
                      A                      A                      A
 Frequencies --   1369.4922              1394.5044              1409.4160
 Red. masses --      1.4306                 1.3357                 1.5688
 Frc consts  --      1.5808                 1.5303                 1.8361
 IR Inten    --      1.5319                 3.2269                 5.2251

                     37                     38                     39
                      A                      A                      A
 Frequencies --   1421.0247              1479.1120              1493.2725
 Red. masses --      1.3145                 1.1890                 1.2126
 Frc consts  --      1.5639                 1.5326                 1.5931
 IR Inten    --      8.6874                 1.6520                 4.2368

                     40                     41                     42
                      A                      A                      A
 Frequencies --   1501.7229              1839.8949              2895.0503
 Red. masses --      1.1091                10.7785                 1.0846
 Frc consts  --      1.4736                21.4979                 5.3561
 IR Inten    --      2.8358               153.3525                82.6874

                     43                     44                     45
                      A                      A                      A
 Frequencies --   2946.4893              2975.1900              3035.7528
 Red. masses --      1.0806                 1.0706                 1.0609
 Frc consts  --      5.5273                 5.5835                 5.7605
 IR Inten    --     39.6450                52.9025                29.7618

                     46                     47                     48
                      A                      A                      A
 Frequencies --   3074.9215              3092.2594              3131.6835
 Red. masses --      1.1001                 1.0956                 1.0539
 Frc consts  --      6.1283                 6.1723                 6.0901
 IR Inten    --     25.3264                39.1813                10.8734

                     49                     50                     51
                      A                      A                      A
 Frequencies --   3154.9128              3173.0091              3219.9689
 Red. masses --      1.0888                 1.0904                 1.1162
 Frc consts  --      6.3849                 6.4681                 6.8183
 IR Inten    --     13.3635                 7.9583                 8.9127

 - Thermochemistry -
 -------------------
 Temperature   298.150 Kelvin.  Pressure   1.00000 Atm.
 Atom     1 has atomic number  8 and mass  15.99491

 Molecular mass:   126.06808 amu.
 Principal axes and moments of inertia in atomic units:
                           1         2         3
     Eigenvalues --   599.027351334.028041723.55386
           X            0.99998  -0.00394  -0.00574
           Y            0.00401   0.99990   0.01342
           Z            0.00569  -0.01344   0.99989
 This molecule is an asymmetric top.
 Rotational symmetry number  1.
 Warning -- assumption of classical behavior for rotation
           may cause significant error
 Rotational temperatures (Kelvin)      0.14459     0.06493     0.05025
 Rotational constants (GHZ):           3.01279     1.35285     1.04710
 Zero-point vibrational energy     419676.2 (Joules/Mol)
                                  100.30501 (Kcal/Mol)
 Warning -- explicit consideration of  10 degrees of freedom as
           vibrations may cause significant error
 Vibrational temperatures:     34.28   133.72   249.66   316.89   413.49
          (Kelvin)            510.53   588.00   680.14   771.30   832.64
                              993.59  1079.18  1138.09  1209.52  1238.46
                             1319.53  1357.64  1405.61  1435.44  1536.05
                             1545.24  1556.50  1578.74  1598.77  1627.09
                             1648.11  1672.69  1762.68  1812.30  1846.40
                             1888.20  1918.88  1948.50  1970.39  2006.38
                             2027.83  2044.54  2128.11  2148.48  2160.64
                             2647.20  4165.33  4239.34  4280.63  4367.77
                             4424.12  4449.07  4505.79  4539.21  4565.25
                             4632.81

 Zero-point correction=                           0.159846 (Hartree/Particle)
 Thermal correction to Energy=                    0.168066
 Thermal correction to Enthalpy=                  0.169010
 Thermal correction to Gibbs Free Energy=         0.125749
 Sum of electronic and zero-point Energies=           -423.024507
 Sum of electronic and thermal Energies=              -423.016287
 Sum of electronic and thermal Enthalpies=            -423.015343
 Sum of electronic and thermal Free Energies=         -423.058604

                     E (Thermal)             CV                S
                      KCal/Mol        Cal/Mol-Kelvin    Cal/Mol-Kelvin
 Total                  105.463             30.736             91.051
 Electronic               0.000              0.000              0.000
 Translational            0.889              2.981             40.409
 Rotational               0.889              2.981             28.712
 Vibrational            103.685             24.774             21.931
 Vibration     1          0.593              1.985              6.287
 Vibration     2          0.602              1.954              3.597
 Vibration     3          0.627              1.875              2.397
 Vibration     4          0.647              1.810              1.957
 Vibration     5          0.685              1.697              1.489
 Vibration     6          0.731              1.565              1.145
 Vibration     7          0.773              1.451              0.931
 Vibration     8          0.830              1.311              0.730
 Vibration     9          0.891              1.170              0.574
 Vibration    10          0.935              1.077              0.488

 Normal termination of Gaussian 09 at Mon Jan 27 14:21:12 2020.
