 Gaussian 09, Revision D.01,
 Gaussian 09:  ES64L-G09RevD.01 24-Apr-2013

 -----------------------------
 # b3lyp 6-31G(2df,p) opt Freq
 -----------------------------

 -----
 titel
 -----
 Symbolic Z-matrix:
 Charge =  0 Multiplicity = 1

 SCF Done:  E(RB3LYP) =  -423.189029757     A.U. after   13 cycles
 Optimization completed.
    -- Stationary point found.
 Normal termination of Gaussian 09 at Mon Jan 27 11:16:02 2020.

 ----------------------------------------------------------------------
 #N Geom=AllCheck Guess=TCheck SCRF=Check GenChk RB3LYP/6-31G(2df,p) Fr
 eq
 ----------------------------------------------------------------------

 Structure from the checkpoint file:  "/scratch/puck/g09_6291070e-ebf1-41a1-be31-ad54b029a285/Gau-149627.chk"
 -----
 titel
 -----
 Charge =  0 Multiplicity = 1

                         Standard orientation:
 ---------------------------------------------------------------------
 Center     Atomic      Atomic             Coordinates (Angstroms)
 Number     Number       Type             X           Y           Z
 ---------------------------------------------------------------------
      1          6           0       -2.377151   -0.313595    0.359171
      2          6           0       -1.601477    0.399171   -0.718857
      3          6           0       -0.598061    1.447103   -0.264258
      4          6           0        0.386404    0.730482    0.702953
      5          8           0        1.751504    0.870219    0.322646
      6          6           0        1.999612   -0.183733   -0.574171
      7          8           0        1.281599   -1.300574   -0.101698
      8          6           0        0.124113   -0.806799    0.573436
      9          6           0       -1.149408   -0.961786   -0.231579
     10          1           0       -2.330608    0.065916    1.377059
     11          1           0       -3.339413   -0.737563    0.094358
     12          1           0       -2.066438    0.516013   -1.691457
     13          1           0       -0.025928    1.831180   -1.115208
     14          1           0       -1.074202    2.308215    0.215883
     15          1           0        0.306634    1.098204    1.727175
     16          1           0        1.675597    0.082870   -1.596934
     17          1           0        3.069976   -0.410029   -0.570948
     18          1           0        0.073204   -1.317702    1.540883
     19          1           0       -1.257843   -1.859328   -0.828557
 ---------------------------------------------------------------------

 SCF Done:  E(RB3LYP) =  -423.189029757     A.U. after    1 cycles

 The electronic state is 1-A.
 Alpha  occ. eigenvalues --  -19.14596 -19.14143 -10.27044 -10.23605 -10.23374
 Alpha  occ. eigenvalues --  -10.19379 -10.18935 -10.18901 -10.18486  -1.08550
 Alpha  occ. eigenvalues --   -0.99178  -0.88111  -0.76372  -0.71853  -0.64247
 Alpha  occ. eigenvalues --   -0.61568  -0.57623  -0.56075  -0.52075  -0.50391
 Alpha  occ. eigenvalues --   -0.47891  -0.45865  -0.44369  -0.42974  -0.39955
 Alpha  occ. eigenvalues --   -0.38677  -0.37642  -0.36426  -0.33153  -0.31920
 Alpha  occ. eigenvalues --   -0.29420  -0.28249  -0.26899  -0.24898
 Alpha virt. eigenvalues --    0.07987   0.08851   0.10835   0.11917   0.12265
 Alpha virt. eigenvalues --    0.13385   0.15425   0.16482   0.16775   0.17100
 Alpha virt. eigenvalues --    0.18277   0.18832   0.19465   0.22024   0.22171

 Mulliken charges:
               1
     1  C   -0.295099
     2  C   -0.028044
     3  C   -0.258922
     4  C    0.065641
     5  O   -0.248327
     6  C    0.009412
     7  O   -0.263135
     8  C    0.084299
     9  C   -0.063039
    10  H    0.108110
    11  H    0.114810
    12  H    0.086107
    13  H    0.112834
    14  H    0.103378
    15  H    0.090700
    16  H    0.081133
    17  H    0.118477
    18  H    0.086804
    19  H    0.094862
 Sum of Mulliken charges =   0.00000

 Dipole moment (field-independent basis, Debye):
    X=             -1.4850    Y=              0.3962    Z=             -0.3139  Tot=              1.5687
 Quadrupole moment (field-independent basis, Debye-Ang):
   XX=            -53.0829   YY=            -55.9572   ZZ=            -50.7150
   XY=              0.1019   XZ=             -1.5091   YZ=             -0.1125

  Exact polarizability:  83.928  -0.271  68.403  -3.469  -0.661  66.873
 Approx polarizability: 111.306  -1.331 104.065  -5.538  -0.372 102.500

                      1                      2                      3
                      A                      A                      A
 Frequencies --     75.1771               181.4819               242.2918
 Red. masses --      3.4005                 2.8210                 2.4095
 Frc consts  --      0.0113                 0.0547                 0.0833
 IR Inten    --      0.2951                 0.4049                 5.1555

                      4                      5                      6
                      A                      A                      A
 Frequencies --    323.1931               411.3634               446.8272
 Red. masses --      2.6293                 3.4756                 3.3711
 Frc consts  --      0.1618                 0.3465                 0.3966
 IR Inten    --      0.7422                 0.4921                 8.2397

                      7                      8                      9
                      A                      A                      A
 Frequencies --    588.2258               649.1192               739.9942
 Red. masses --      4.6526                 2.9789                 8.1394
 Frc consts  --      0.9485                 0.7395                 2.6260
 IR Inten    --      2.4641                 3.6984                 0.4586

                     10                     11                     12
                      A                      A                      A
 Frequencies --    784.9253               811.8257               828.6193
 Red. masses --      2.0867                 2.5783                 1.7341
 Frc consts  --      0.7575                 1.0012                 0.7015
 IR Inten    --      3.8947                 3.7017                 7.8140

                     13                     14                     15
                      A                      A                      A
 Frequencies --    840.7410               883.9082               893.9103
 Red. masses --      3.6901                 1.7531                 2.4259
 Frc consts  --      1.5368                 0.8070                 1.1421
 IR Inten    --      8.9997                 1.1295                16.1043

                     16                     17                     18
                      A                      A                      A
 Frequencies --    942.2900               976.5437              1000.1321
 Red. masses --      1.9529                 3.7327                 2.8523
 Frc consts  --      1.0216                 2.0973                 1.6810
 IR Inten    --     10.3576                37.7715                38.3112

                     19                     20                     21
                      A                      A                      A
 Frequencies --   1031.0680              1046.1475              1060.6805
 Red. masses --      2.8881                 2.7987                 1.4243
 Frc consts  --      1.8090                 1.8047                 0.9441
 IR Inten    --      6.7244                10.5140                11.2064

                     22                     23                     24
                      A                      A                      A
 Frequencies --   1077.5135              1095.9087              1111.3541
 Red. masses --      1.9050                 2.1477                 1.3244
 Frc consts  --      1.3032                 1.5198                 0.9638
 IR Inten    --      3.9196                89.1076                 4.3895

                     25                     26                     27
                      A                      A                      A
 Frequencies --   1116.1453              1124.6324              1185.7037
 Red. masses --      1.6889                 2.4488                 1.7852
 Frc consts  --      1.2396                 1.8249                 1.4787
 IR Inten    --     21.6737                48.0160                65.1059

                     28                     29                     30
                      A                      A                      A
 Frequencies --   1197.5231              1212.7880              1229.4403
 Red. masses --      1.6515                 1.3919                 1.1168
 Frc consts  --      1.3954                 1.2063                 0.9946
 IR Inten    --     16.3686                 0.5016                 1.2024

                     31                     32                     33
                      A                      A                      A
 Frequencies --   1265.5423              1302.8255              1311.4242
 Red. masses --      1.5762                 1.4115                 1.6599
 Frc consts  --      1.4874                 1.4116                 1.6820
 IR Inten    --      5.1457                 0.6616                 2.0854

                     34                     35                     36
                      A                      A                      A
 Frequencies --   1344.2677              1358.3008              1372.6795
 Red. masses --      1.4954                 1.2439                 1.4617
 Frc consts  --      1.5921                 1.3521                 1.6228
 IR Inten    --      0.3997                10.0873                 3.6768

                     37                     38                     39
                      A                      A                      A
 Frequencies --   1390.3890              1431.1327              1486.8811
 Red. masses --      1.7613                 1.2945                 1.1597
 Frc consts  --      2.0061                 1.5622                 1.5105
 IR Inten    --      1.3271                 8.9113                 4.1496

                     40                     41                     42
                      A                      A                      A
 Frequencies --   1496.4941              1545.3379              2931.6819
 Red. masses --      1.1686                 1.0994                 1.0709
 Frc consts  --      1.5419                 1.5469                 5.4232
 IR Inten    --      2.1323                 3.5793                90.9929

                     43                     44                     45
                      A                      A                      A
 Frequencies --   3044.7042              3047.6107              3080.2447
 Red. masses --      1.0605                 1.0858                 1.1006
 Frc consts  --      5.7924                 5.9421                 6.1524
 IR Inten    --     38.0382                26.5943                 1.7949

                     46                     47                     48
                      A                      A                      A
 Frequencies --   3083.0329              3101.2594              3115.9879
 Red. masses --      1.0936                 1.0912                 1.0573
 Frc consts  --      6.1245                 6.1833                 6.0481
 IR Inten    --     62.6284                31.9181                20.8451

                     49                     50                     51
                      A                      A                      A
 Frequencies --   3168.2121              3185.6152              3206.7640
 Red. masses --      1.0900                 1.0939                 1.1115
 Frc consts  --      6.4464                 6.5407                 6.7343
 IR Inten    --     14.6389                 5.3114                15.9003

 - Thermochemistry -
 -------------------
 Temperature   298.150 Kelvin.  Pressure   1.00000 Atm.
 Atom     1 has atomic number  6 and mass  12.00000

 Molecular mass:   126.06808 amu.
 Principal axes and moments of inertia in atomic units:
                           1         2         3
     Eigenvalues --   532.914711142.784531390.48361
           X            0.99993   0.00044  -0.01216
           Y           -0.00059   0.99992  -0.01282
           Z            0.01215   0.01283   0.99984
 This molecule is an asymmetric top.
 Rotational symmetry number  1.
 Warning -- assumption of classical behavior for rotation
           may cause significant error
 Rotational temperatures (Kelvin)      0.16253     0.07579     0.06229
 Rotational constants (GHZ):           3.38655     1.57925     1.29792
 Zero-point vibrational energy     426946.4 (Joules/Mol)
                                  102.04264 (Kcal/Mol)
 Warning -- explicit consideration of   7 degrees of freedom as
           vibrations may cause significant error
 Vibrational temperatures:    108.16   261.11   348.60   465.00   591.86
          (Kelvin)            642.88   846.32   933.94  1064.69  1129.33
                             1168.03  1192.20  1209.64  1271.75  1286.14
                             1355.74  1405.03  1438.97  1483.47  1505.17
                             1526.08  1550.30  1576.77  1598.99  1605.88
                             1618.09  1705.96  1722.97  1744.93  1768.89
                             1820.83  1874.47  1886.84  1934.10  1954.29
                             1974.98  2000.46  2059.08  2139.29  2153.12
                             2223.39  4218.03  4380.64  4384.83  4431.78
                             4435.79  4462.02  4483.21  4558.34  4583.38
                             4613.81

 Zero-point correction=                           0.162615 (Hartree/Particle)
 Thermal correction to Energy=                    0.169577
 Thermal correction to Enthalpy=                  0.170521
 Thermal correction to Gibbs Free Energy=         0.131000
 Sum of electronic and zero-point Energies=           -423.026414
 Sum of electronic and thermal Energies=              -423.019453
 Sum of electronic and thermal Enthalpies=            -423.018509
 Sum of electronic and thermal Free Energies=         -423.058030

                     E (Thermal)             CV                S
                      KCal/Mol        Cal/Mol-Kelvin    Cal/Mol-Kelvin
 Total                  106.411             27.923             83.179
 Electronic               0.000              0.000              0.000
 Translational            0.889              2.981             40.409
 Rotational               0.889              2.981             28.228
 Vibrational            104.633             21.962             14.542
 Vibration     1          0.599              1.966              4.013
 Vibration     2          0.630              1.865              2.313
 Vibration     3          0.658              1.775              1.786
 Vibration     4          0.708              1.629              1.294
 Vibration     5          0.775              1.446              0.922
 Vibration     6          0.806              1.368              0.805
 Vibration     7          0.945              1.057              0.470

 Optimization completed.
    -- Stationary point found.
 Normal termination of Gaussian 09 at Mon Jan 27 12:07:46 2020.
