 Gaussian 09, Revision D.01,
 Gaussian 09:  ES64L-G09RevD.01 24-Apr-2013

 -----------------------------
 # b3lyp 6-31G(2df,p) opt Freq
 -----------------------------

 -----
 titel
 -----
 Symbolic Z-matrix:
 Charge =  0 Multiplicity = 1

 SCF Done:  E(RB3LYP) =  -423.178938758     A.U. after   13 cycles
 Optimization completed.
    -- Stationary point found.
 Normal termination of Gaussian 09 at Mon Jan 27 18:56:19 2020.

 ----------------------------------------------------------------------
 #N Geom=AllCheck Guess=TCheck SCRF=Check GenChk RB3LYP/6-31G(2df,p) Fr
 eq
 ----------------------------------------------------------------------

 Structure from the checkpoint file:  "/scratch/puck/g09_44437481-2bcd-47b0-a791-50ee0e5161e4/Gau-20192.chk"
 -----
 titel
 -----
 Charge =  0 Multiplicity = 1

                         Standard orientation:
 ---------------------------------------------------------------------
 Center     Atomic      Atomic             Coordinates (Angstroms)
 Number     Number       Type             X           Y           Z
 ---------------------------------------------------------------------
      1          8           0        1.773494    1.104137   -0.801485
      2          6           0        0.713260    0.491031   -0.095392
      3          6           0        1.167197   -0.276879    1.170683
      4          8           0        1.004114   -1.548662    0.509954
      5          6           0        0.322423   -0.917259   -0.623329
      6          6           0       -1.142878   -1.224828   -0.639791
      7          6           0       -2.058002   -0.402778   -0.125648
      8          6           0       -1.733479    0.933505    0.489070
      9          6           0       -0.405176    1.515431   -0.014952
     10          1           0        2.497730    0.472054   -0.869319
     11          1           0        2.204680   -0.089622    1.473798
     12          1           0        0.514726   -0.180652    2.048458
     13          1           0        0.810297   -1.198265   -1.565009
     14          1           0       -1.437005   -2.188906   -1.046794
     15          1           0       -3.103206   -0.703627   -0.119022
     16          1           0       -2.541508    1.645251    0.284739
     17          1           0       -1.716756    0.825650    1.583663
     18          1           0       -0.543414    1.906190   -1.029455
     19          1           0       -0.086476    2.358787    0.607331
 ---------------------------------------------------------------------

 SCF Done:  E(RB3LYP) =  -423.178938758     A.U. after    1 cycles

 The electronic state is 1-A.
 Alpha  occ. eigenvalues --  -19.14204 -19.13065 -10.24019 -10.22947 -10.22479
 Alpha  occ. eigenvalues --  -10.19271 -10.19019 -10.18455 -10.18126  -1.04628
 Alpha  occ. eigenvalues --   -1.01097  -0.82401  -0.75446  -0.71997  -0.68191
 Alpha  occ. eigenvalues --   -0.62380  -0.58401  -0.52609  -0.50665  -0.49072
 Alpha  occ. eigenvalues --   -0.47326  -0.44757  -0.43360  -0.41463  -0.40258
 Alpha  occ. eigenvalues --   -0.38185  -0.37590  -0.36875  -0.34910  -0.32834
 Alpha  occ. eigenvalues --   -0.29023  -0.26331  -0.25943  -0.24526
 Alpha virt. eigenvalues --    0.00676   0.07553   0.09164   0.09661   0.11513
 Alpha virt. eigenvalues --    0.13298   0.13882   0.14827   0.16795   0.17496
 Alpha virt. eigenvalues --    0.18348   0.18963   0.20273   0.21727   0.23287

 Mulliken charges:
               1
     1  O   -0.489177
     2  C    0.372873
     3  C   -0.143182
     4  O   -0.297451
     5  C    0.009289
     6  C   -0.055426
     7  C   -0.056371
     8  C   -0.277851
     9  C   -0.253471
    10  H    0.284678
    11  H    0.097401
    12  H    0.098608
    13  H    0.073700
    14  H    0.092097
    15  H    0.094409
    16  H    0.109480
    17  H    0.117771
    18  H    0.116981
    19  H    0.105640
 Sum of Mulliken charges =   0.00000

 Dipole moment (field-independent basis, Debye):
    X=             -0.7127    Y=              0.6076    Z=              0.1403  Tot=              0.9470
 Quadrupole moment (field-independent basis, Debye-Ang):
   XX=            -48.7315   YY=            -57.7853   ZZ=            -52.5501
   XY=             -0.8668   XZ=             -0.5114   YZ=              4.0824

  Exact polarizability:  86.228  -3.173  74.171  -1.330   6.983  65.982
 Approx polarizability: 121.068 -10.840 112.372  -5.534  11.117 102.500

                      1                      2                      3
                      A                      A                      A
 Frequencies --     67.9154               175.8241               254.1681
 Red. masses --      3.4483                 2.5822                 2.9204
 Frc consts  --      0.0094                 0.0470                 0.1112
 IR Inten    --      3.1712                 0.1980                 7.5711

                      4                      5                      6
                      A                      A                      A
 Frequencies --    302.5213               345.9630               357.9947
 Red. masses --      2.3424                 1.1089                 3.6155
 Frc consts  --      0.1263                 0.0782                 0.2730
 IR Inten    --      0.0541                70.2842                 5.9708

                      7                      8                      9
                      A                      A                      A
 Frequencies --    401.2381               472.8860               490.2511
 Red. masses --      3.0976                 2.9805                 3.4689
 Frc consts  --      0.2938                 0.3927                 0.4912
 IR Inten    --     13.4740                10.2145                 2.5569

                     10                     11                     12
                      A                      A                      A
 Frequencies --    545.8731               645.9300               695.7524
 Red. masses --      4.0156                 3.7340                 1.6894
 Frc consts  --      0.7050                 0.9179                 0.4818
 IR Inten    --      1.0374                 5.0321                 4.7315

                     13                     14                     15
                      A                      A                      A
 Frequencies --    759.6962               830.5543               878.9505
 Red. masses --      1.7998                 3.1832                 2.9090
 Frc consts  --      0.6120                 1.2937                 1.3241
 IR Inten    --     11.6524                13.2629                11.3847

                     16                     17                     18
                      A                      A                      A
 Frequencies --    910.7725               939.4020               951.5009
 Red. masses --      1.8385                 2.5246                 3.5272
 Frc consts  --      0.8985                 1.3127                 1.8814
 IR Inten    --     15.2072                12.5321                20.5920

                     19                     20                     21
                      A                      A                      A
 Frequencies --    981.2555               994.9436              1007.1047
 Red. masses --      2.4114                 2.0777                 3.1347
 Frc consts  --      1.3680                 1.2118                 1.8732
 IR Inten    --     30.4661                24.3875                46.4739

                     22                     23                     24
                      A                      A                      A
 Frequencies --   1011.6459              1068.0669              1099.0559
 Red. masses --      1.6516                 1.8523                 1.9744
 Frc consts  --      0.9959                 1.2450                 1.4051
 IR Inten    --      7.8121                 2.4659                 5.8856

                     25                     26                     27
                      A                      A                      A
 Frequencies --   1134.9842              1148.2250              1173.8606
 Red. masses --      1.7431                 1.4469                 1.9251
 Frc consts  --      1.3229                 1.1239                 1.5630
 IR Inten    --     55.3539                 3.6840                33.5850

                     28                     29                     30
                      A                      A                      A
 Frequencies --   1181.9692              1239.6584              1269.6524
 Red. masses --      1.0908                 1.5555                 1.2797
 Frc consts  --      0.8978                 1.4084                 1.2154
 IR Inten    --      7.5041                11.7475                 0.7818

                     31                     32                     33
                      A                      A                      A
 Frequencies --   1281.0843              1326.2204              1346.7087
 Red. masses --      1.4155                 1.3277                 1.3864
 Frc consts  --      1.3687                 1.3758                 1.4815
 IR Inten    --     11.1046                10.3124                 7.0396

                     34                     35                     36
                      A                      A                      A
 Frequencies --   1360.3703              1384.6926              1416.0325
 Red. masses --      1.5120                 1.8452                 1.6504
 Frc consts  --      1.6486                 2.0845                 1.9498
 IR Inten    --      1.5859                19.9671                 2.4346

                     37                     38                     39
                      A                      A                      A
 Frequencies --   1425.1972              1478.7225              1489.8448
 Red. masses --      1.8739                 1.0819                 1.0996
 Frc consts  --      2.2425                 1.3938                 1.4380
 IR Inten    --     29.4905                 2.0925                 3.4204

                     40                     41                     42
                      A                      A                      A
 Frequencies --   1518.8421              1716.6952              3000.9514
 Red. masses --      1.0983                 6.5779                 1.0688
 Frc consts  --      1.4928                11.4216                 5.6708
 IR Inten    --      1.0844                 3.4215                 4.5065

                     43                     44                     45
                      A                      A                      A
 Frequencies --   3007.5030              3027.3688              3038.7222
 Red. masses --      1.0585                 1.0849                 1.0632
 Frc consts  --      5.6407                 5.8582                 5.7842
 IR Inten    --     79.0860                33.8277                17.1146

                     46                     47                     48
                      A                      A                      A
 Frequencies --   3054.5400              3056.8394              3082.1106
 Red. masses --      1.0979                 1.0972                 1.1037
 Frc consts  --      6.0351                 6.0407                 6.1770
 IR Inten    --     55.7597                25.3685                22.7397

                     49                     50                     51
                      A                      A                      A
 Frequencies --   3144.8065              3168.6953              3801.8587
 Red. masses --      1.0837                 1.0969                 1.0660
 Frc consts  --      6.3144                 6.4888                 9.0782
 IR Inten    --      7.6614                31.5893                17.9687

 - Thermochemistry -
 -------------------
 Temperature   298.150 Kelvin.  Pressure   1.00000 Atm.
 Atom     1 has atomic number  8 and mass  15.99491

 Molecular mass:   126.06808 amu.
 Principal axes and moments of inertia in atomic units:
                           1         2         3
     Eigenvalues --   742.032151023.086861349.46091
           X            0.99978  -0.02083  -0.00188
           Y            0.02090   0.99853   0.05008
           Z            0.00083  -0.05011   0.99874
 This molecule is an asymmetric top.
 Rotational symmetry number  1.
 Warning -- assumption of classical behavior for rotation
           may cause significant error
 Rotational temperatures (Kelvin)      0.11673     0.08466     0.06418
 Rotational constants (GHZ):           2.43216     1.76402     1.33738
 Zero-point vibrational energy     421476.8 (Joules/Mol)
                                  100.73538 (Kcal/Mol)
 Warning -- explicit consideration of  10 degrees of freedom as
           vibrations may cause significant error
 Vibrational temperatures:     97.71   252.97   365.69   435.26   497.76
          (Kelvin)            515.07   577.29   680.38   705.36   785.39
                              929.35  1001.03  1093.03  1194.98  1264.61
                             1310.40  1351.59  1369.00  1411.81  1431.50
                             1449.00  1455.53  1536.71  1581.29  1632.99
                             1652.04  1688.92  1700.59  1783.59  1826.74
                             1843.19  1908.13  1937.61  1957.27  1992.26
                             2037.35  2050.54  2127.55  2143.55  2185.27
                             2469.94  4317.69  4327.12  4355.70  4372.04
                             4394.80  4398.10  4434.46  4524.67  4559.04
                             5470.02

 Zero-point correction=                           0.160532 (Hartree/Particle)
 Thermal correction to Energy=                    0.168354
 Thermal correction to Enthalpy=                  0.169298
 Thermal correction to Gibbs Free Energy=         0.128270
 Sum of electronic and zero-point Energies=           -423.018407
 Sum of electronic and thermal Energies=              -423.010585
 Sum of electronic and thermal Enthalpies=            -423.009641
 Sum of electronic and thermal Free Energies=         -423.050669

                     E (Thermal)             CV                S
                      KCal/Mol        Cal/Mol-Kelvin    Cal/Mol-Kelvin
 Total                  105.644             31.054             86.350
 Electronic               0.000              0.000              0.000
 Translational            0.889              2.981             40.409
 Rotational               0.889              2.981             28.418
 Vibrational            103.866             25.093             17.524
 Vibration     1          0.598              1.970              4.213
 Vibration     2          0.628              1.872              2.372
 Vibration     3          0.665              1.756              1.701
 Vibration     4          0.694              1.669              1.403
 Vibration     5          0.724              1.583              1.185
 Vibration     6          0.733              1.559              1.131
 Vibration     7          0.767              1.467              0.958
 Vibration     8          0.830              1.310              0.730
 Vibration     9          0.846              1.272              0.683
 Vibration    10          0.901              1.149              0.553

 Optimization completed.
    -- Stationary point found.
 Normal termination of Gaussian 09 at Mon Jan 27 20:34:50 2020.
