 Gaussian 09, Revision D.01,
 Gaussian 09:  ES64L-G09RevD.01 24-Apr-2013

 -----------------------------
 # b3lyp 6-31G(2df,p) opt Freq
 -----------------------------

 -----
 titel
 -----
 Symbolic Z-matrix:
 Charge =  0 Multiplicity = 1

 SCF Done:  E(RB3LYP) =  -423.097144402     A.U. after   12 cycles
 Optimization completed.
    -- Stationary point found.
 Normal termination of Gaussian 09 at Tue Jan 28 09:51:30 2020.

 ----------------------------------------------------------------------
 #N Geom=AllCheck Guess=TCheck SCRF=Check GenChk RB3LYP/6-31G(2df,p) Fr
 eq
 ----------------------------------------------------------------------

 Structure from the checkpoint file:  "/scratch/puck/g09_715d8df3-5d59-447f-965a-329a4bf6a123/Gau-96595.chk"
 -----
 titel
 -----
 Charge =  0 Multiplicity = 1

                         Standard orientation:
 ---------------------------------------------------------------------
 Center     Atomic      Atomic             Coordinates (Angstroms)
 Number     Number       Type             X           Y           Z
 ---------------------------------------------------------------------
      1          6           0       -2.796309   -0.311665   -0.403330
      2          8           0       -1.872566    0.240212    0.517927
      3          6           0       -0.563370   -0.070239    0.247838
      4          6           0        0.127456   -1.457075    0.228243
      5          6           0        1.239406   -0.418332   -0.041942
      6          8           0        2.571934   -0.629099   -0.327885
      7          6           0        0.625380    0.643897    0.952934
      8          6           0        0.691826    1.760164   -0.110895
      9          6           0        0.337945    0.496149   -0.923442
     10          1           0       -2.760287   -1.409873   -0.403553
     11          1           0       -3.790871    0.011608   -0.089200
     12          1           0       -2.607323    0.045682   -1.425113
     13          1           0        0.168764   -1.995086    1.181849
     14          1           0       -0.117407   -2.132669   -0.597507
     15          1           0        2.982192   -1.060389    0.429468
     16          1           0        0.783885    0.689109    2.031942
     17          1           0       -0.076509    2.535154   -0.051543
     18          1           0        1.675954    2.197040   -0.298415
     19          1           0        0.172656    0.373116   -1.994697
 ---------------------------------------------------------------------

 SCF Done:  E(RB3LYP) =  -423.097144402     A.U. after    1 cycles

 The electronic state is 1-A.
 Alpha  occ. eigenvalues --  -19.15017 -19.15006 -10.24505 -10.24305 -10.22710
 Alpha  occ. eigenvalues --  -10.18942 -10.18902 -10.17964 -10.17692  -1.04745
 Alpha  occ. eigenvalues --   -1.03572  -0.92584  -0.74213  -0.70397  -0.63547
 Alpha  occ. eigenvalues --   -0.61207  -0.60127  -0.53747  -0.50075  -0.47064
 Alpha  occ. eigenvalues --   -0.46405  -0.45461  -0.44798  -0.42392  -0.41995
 Alpha  occ. eigenvalues --   -0.38097  -0.35502  -0.33430  -0.32600  -0.31694
 Alpha  occ. eigenvalues --   -0.29415  -0.28132  -0.25366  -0.24560
 Alpha virt. eigenvalues --    0.07503   0.09996   0.11636   0.12592   0.12720
 Alpha virt. eigenvalues --    0.13614   0.14210   0.15388   0.16200   0.16975
 Alpha virt. eigenvalues --    0.17782   0.18344   0.19399   0.20169   0.21422

 Mulliken charges:
               1
     1  C   -0.262833
     2  O   -0.296382
     3  C    0.470797
     4  C   -0.406105
     5  C    0.416780
     6  O   -0.477112
     7  C   -0.181155
     8  C   -0.275929
     9  C   -0.156046
    10  H    0.115120
    11  H    0.129690
    12  H    0.113744
    13  H    0.088958
    14  H    0.095165
    15  H    0.285330
    16  H    0.068399
    17  H    0.099970
    18  H    0.100476
    19  H    0.071133
 Sum of Mulliken charges =   0.00000

 Dipole moment (field-independent basis, Debye):
    X=             -0.2830    Y=             -1.1109    Z=              0.3085  Tot=              1.1872
 Quadrupole moment (field-independent basis, Debye-Ang):
   XX=            -50.9422   YY=            -52.6220   ZZ=            -52.8084
   XY=             -0.3600   XZ=              6.6960   YZ=             -1.5641

  Exact polarizability:  84.173   1.625  76.307   3.170  -1.485  67.303
 Approx polarizability: 113.839  -0.242 108.625   1.308  -0.668 107.911

                      1                      2                      3
                      A                      A                      A
 Frequencies --     84.5643               170.6386               179.3843
 Red. masses --      2.7158                 2.3663                 1.2618
 Frc consts  --      0.0114                 0.0406                 0.0239
 IR Inten    --      2.8556                 3.2447                 0.7877

                      4                      5                      6
                      A                      A                      A
 Frequencies --    255.5436               294.1078               297.2049
 Red. masses --      1.5996                 3.0535                 2.0137
 Frc consts  --      0.0615                 0.1556                 0.1048
 IR Inten    --     30.7617                17.2598                24.3627

                      7                      8                      9
                      A                      A                      A
 Frequencies --    343.4578               429.7413               467.6011
 Red. masses --      3.0814                 2.1831                 2.7992
 Frc consts  --      0.2142                 0.2375                 0.3606
 IR Inten    --     38.4622                 5.0671                 0.9530

                     10                     11                     12
                      A                      A                      A
 Frequencies --    521.0878               601.6308               665.1531
 Red. masses --      2.6342                 6.2046                 3.0143
 Frc consts  --      0.4214                 1.3232                 0.7857
 IR Inten    --      1.4093                 0.8668                 1.9475

                     13                     14                     15
                      A                      A                      A
 Frequencies --    700.4378               792.7933               861.6217
 Red. masses --      3.5439                 4.4725                 2.1532
 Frc consts  --      1.0244                 1.6562                 0.9418
 IR Inten    --      5.6242                 0.8607                 2.8418

                     16                     17                     18
                      A                      A                      A
 Frequencies --    891.8842               914.6556               959.4064
 Red. masses --      2.4612                 1.9429                 1.9212
 Frc consts  --      1.1535                 0.9577                 1.0419
 IR Inten    --      0.7840                 0.6029                 0.7903

                     19                     20                     21
                      A                      A                      A
 Frequencies --    986.3071              1028.8515              1047.2780
 Red. masses --      1.0769                 2.8727                 3.2036
 Frc consts  --      0.6173                 1.7916                 2.0702
 IR Inten    --      0.8911                 5.3492                15.0428

                     22                     23                     24
                      A                      A                      A
 Frequencies --   1053.5778              1078.6551              1109.0810
 Red. masses --      2.3883                 1.8366                 1.5746
 Frc consts  --      1.5619                 1.2590                 1.1412
 IR Inten    --     15.6263                14.9810                33.6108

                     25                     26                     27
                      A                      A                      A
 Frequencies --   1121.5475              1131.1862              1142.8308
 Red. masses --      1.5017                 1.6154                 1.7405
 Frc consts  --      1.1130                 1.2179                 1.3393
 IR Inten    --     32.5494                14.9735                48.6609

                     28                     29                     30
                      A                      A                      A
 Frequencies --   1162.3842              1181.8167              1182.5826
 Red. masses --      2.7561                 1.5501                 1.5642
 Frc consts  --      2.1941                 1.2756                 1.2889
 IR Inten    --     24.2182                 1.6728                 9.1152

                     31                     32                     33
                      A                      A                      A
 Frequencies --   1221.5526              1241.7131              1275.4033
 Red. masses --      1.4799                 1.6669                 2.2679
 Frc consts  --      1.3010                 1.5143                 2.1736
 IR Inten    --      5.6415                10.1137                46.6854

                     34                     35                     36
                      A                      A                      A
 Frequencies --   1288.4479              1338.6387              1406.3429
 Red. masses --      2.8447                 2.1362                 2.3548
 Frc consts  --      2.7824                 2.2554                 2.7440
 IR Inten    --    379.8502                42.4614                 4.3150

                     37                     38                     39
                      A                      A                      A
 Frequencies --   1483.1937              1488.3729              1500.2201
 Red. masses --      1.1687                 1.0487                 1.1309
 Frc consts  --      1.5148                 1.3688                 1.4996
 IR Inten    --      1.7499                 4.7943                 0.4225

                     40                     41                     42
                      A                      A                      A
 Frequencies --   1506.1062              1523.1024              2994.8643
 Red. masses --      1.0525                 1.4111                 1.0348
 Frc consts  --      1.4066                 1.9287                 5.4686
 IR Inten    --     10.5051                 0.7046                45.3553

                     43                     44                     45
                      A                      A                      A
 Frequencies --   3033.5438              3049.7827              3057.5090
 Red. masses --      1.0557                 1.1034                 1.0544
 Frc consts  --      5.7240                 6.0465                 5.8076
 IR Inten    --     35.8962                50.4299                46.7115

                     46                     47                     48
                      A                      A                      A
 Frequencies --   3096.6936              3098.9651              3107.6801
 Red. masses --      1.1094                 1.0900                 1.0915
 Frc consts  --      6.2681                 6.1675                 6.2109
 IR Inten    --     32.0699                73.5178                13.4028

                     49                     50                     51
                      A                      A                      A
 Frequencies --   3118.1363              3124.9274              3805.8183
 Red. masses --      1.1102                 1.0985                 1.0658
 Frc consts  --      6.3598                 6.3202                 9.0956
 IR Inten    --     27.0052                27.7246                31.0085

 - Thermochemistry -
 -------------------
 Temperature   298.150 Kelvin.  Pressure   1.00000 Atm.
 Atom     1 has atomic number  6 and mass  12.00000

 Molecular mass:   126.06808 amu.
 Principal axes and moments of inertia in atomic units:
                           1         2         3
     Eigenvalues --   527.147541337.344961558.53362
           X            0.99946   0.02059   0.02550
           Y           -0.02017   0.99966  -0.01664
           Z           -0.02583   0.01612   0.99954
 This molecule is an asymmetric top.
 Rotational symmetry number  1.
 Warning -- assumption of classical behavior for rotation
           may cause significant error
 Rotational temperatures (Kelvin)      0.16431     0.06477     0.05557
 Rotational constants (GHZ):           3.42360     1.34950     1.15797
 Zero-point vibrational energy     415212.0 (Joules/Mol)
                                   99.23805 (Kcal/Mol)
 Warning -- explicit consideration of  11 degrees of freedom as
           vibrations may cause significant error
 Vibrational temperatures:    121.67   245.51   258.09   367.67   423.15
          (Kelvin)            427.61   494.16   618.30   672.77   749.73
                              865.61   957.01  1007.77  1140.65  1239.68
                             1283.22  1315.98  1380.37  1419.07  1480.29
                             1506.80  1515.86  1551.94  1595.72  1613.65
                             1627.52  1644.28  1672.41  1700.37  1701.47
                             1757.54  1786.55  1835.02  1853.79  1926.00
                             2023.41  2133.98  2141.43  2158.48  2166.95
                             2191.40  4308.94  4364.59  4387.95  4399.07
                             4455.45  4458.71  4471.25  4486.30  4496.07
                             5475.72

 Zero-point correction=                           0.158146 (Hartree/Particle)
 Thermal correction to Energy=                    0.166475
 Thermal correction to Enthalpy=                  0.167419
 Thermal correction to Gibbs Free Energy=         0.125473
 Sum of electronic and zero-point Energies=           -422.938998
 Sum of electronic and thermal Energies=              -422.930669
 Sum of electronic and thermal Enthalpies=            -422.929725
 Sum of electronic and thermal Free Energies=         -422.971671

                     E (Thermal)             CV                S
                      KCal/Mol        Cal/Mol-Kelvin    Cal/Mol-Kelvin
 Total                  104.465             32.372             88.283
 Electronic               0.000              0.000              0.000
 Translational            0.889              2.981             40.409
 Rotational               0.889              2.981             28.487
 Vibrational            102.687             26.410             19.388
 Vibration     1          0.601              1.960              3.782
 Vibration     2          0.626              1.879              2.428
 Vibration     3          0.629              1.868              2.335
 Vibration     4          0.666              1.753              1.692
 Vibration     5          0.689              1.685              1.450
 Vibration     6          0.691              1.679              1.433
 Vibration     7          0.722              1.589              1.196
 Vibration     8          0.791              1.405              0.860
 Vibration     9          0.825              1.322              0.744
 Vibration    10          0.876              1.203              0.607
 Vibration    11          0.960              1.028              0.447

 Normal termination of Gaussian 09 at Tue Jan 28 10:36:08 2020.
