 Gaussian 09, Revision D.01,
 Gaussian 09:  ES64L-G09RevD.01 24-Apr-2013

 -----------------------------
 # b3lyp 6-31G(2df,p) opt Freq
 -----------------------------

 -----
 titel
 -----
 Symbolic Z-matrix:
 Charge =  0 Multiplicity = 1

 SCF Done:  E(RB3LYP) =  -423.150793144     A.U. after   15 cycles
 Optimization completed.
    -- Stationary point found.
 Normal termination of Gaussian 09 at Tue Jan 28 08:20:06 2020.

 ----------------------------------------------------------------------
 #N Geom=AllCheck Guess=TCheck SCRF=Check GenChk RB3LYP/6-31G(2df,p) Fr
 eq
 ----------------------------------------------------------------------

 Structure from the checkpoint file:  "/scratch/puck/g09_baba9872-4965-4643-9c86-4d03eaa6c4a3/Gau-59917.chk"
 -----
 titel
 -----
 Charge =  0 Multiplicity = 1

                         Standard orientation:
 ---------------------------------------------------------------------
 Center     Atomic      Atomic             Coordinates (Angstroms)
 Number     Number       Type             X           Y           Z
 ---------------------------------------------------------------------
      1          6           0       -3.054093   -0.255450   -0.667416
      2          6           0       -1.537047   -0.411902   -0.722276
      3          6           0       -0.843925    0.049039    0.541878
      4          8           0       -1.420344    0.446933    1.522791
      5          6           0        0.709369    0.012887    0.529956
      6          8           0        1.115959   -1.156798   -0.153963
      7          6           0        2.509464   -1.400451   -0.095502
      8          6           0        1.209260    1.243598   -0.093298
      9          6           0        1.591687    2.252410   -0.624294
     10          1           0       -3.336519    0.790483   -0.521049
     11          1           0       -3.510153   -0.610187   -1.595741
     12          1           0       -3.476006   -0.825033    0.164548
     13          1           0       -1.237907   -1.452894   -0.893527
     14          1           0       -1.097365    0.144531   -1.560628
     15          1           0        1.027244   -0.016694    1.583076
     16          1           0        3.081427   -0.592254   -0.569282
     17          1           0        2.852137   -1.513423    0.943786
     18          1           0        2.688270   -2.333526   -0.633585
     19          1           0        1.935666    3.147129   -1.082513
 ---------------------------------------------------------------------

 SCF Done:  E(RB3LYP) =  -423.150793144     A.U. after    1 cycles

 The electronic state is 1-A.
 Alpha  occ. eigenvalues --  -19.16004 -19.13669 -10.27476 -10.26584 -10.23352
 Alpha  occ. eigenvalues --  -10.19536 -10.19091 -10.19055 -10.17458  -1.05729
 Alpha  occ. eigenvalues --   -1.04312  -0.79793  -0.77130  -0.73164  -0.66895
 Alpha  occ. eigenvalues --   -0.64732  -0.55707  -0.53011  -0.50558  -0.50229
 Alpha  occ. eigenvalues --   -0.48586  -0.45597  -0.44355  -0.42249  -0.41602
 Alpha  occ. eigenvalues --   -0.37851  -0.36890  -0.36344  -0.35066  -0.33621
 Alpha  occ. eigenvalues --   -0.29514  -0.28505  -0.27763  -0.24515
 Alpha virt. eigenvalues --   -0.02380   0.02981   0.05007   0.10005   0.10897
 Alpha virt. eigenvalues --    0.11764   0.13454   0.14980   0.15429   0.16182
 Alpha virt. eigenvalues --    0.16911   0.17137   0.17388   0.19850   0.21077

 Mulliken charges:
               1
     1  C   -0.384951
     2  C   -0.275928
     3  C    0.365957
     4  O   -0.302310
     5  C   -0.131497
     6  O   -0.235569
     7  C   -0.237352
     8  C    0.339153
     9  C   -0.481536
    10  H    0.130026
    11  H    0.110963
    12  H    0.131886
    13  H    0.144704
    14  H    0.132987
    15  H    0.114732
    16  H    0.125213
    17  H    0.112316
    18  H    0.133313
    19  H    0.207891
 Sum of Mulliken charges =   0.00000

 Dipole moment (field-independent basis, Debye):
    X=              1.9082    Y=             -0.3908    Z=             -1.6919  Tot=              2.5800
 Quadrupole moment (field-independent basis, Debye-Ang):
   XX=            -50.2987   YY=            -49.4833   ZZ=            -55.6598
   XY=              1.4756   XZ=              3.2383   YZ=             -3.4109

  Exact polarizability:  86.219   4.384  81.442  -3.601  -4.499  68.502
 Approx polarizability: 106.436  10.001 125.506 -12.796  -9.796 110.448

                      1                      2                      3
                      A                      A                      A
 Frequencies --     44.0551                61.2105                97.7517
 Red. masses --      4.3473                 2.0696                 2.6218
 Frc consts  --      0.0050                 0.0046                 0.0148
 IR Inten    --      3.7507                 0.0467                 3.4548

                      4                      5                      6
                      A                      A                      A
 Frequencies --    130.1758               155.5945               175.9827
 Red. masses --      3.5151                 3.0150                 1.4437
 Frc consts  --      0.0351                 0.0430                 0.0263
 IR Inten    --      0.1099                 1.3899                 0.3130

                      7                      8                      9
                      A                      A                      A
 Frequencies --    200.1425               241.6937               264.6347
 Red. masses --      1.2299                 2.3278                 3.6954
 Frc consts  --      0.0290                 0.0801                 0.1525
 IR Inten    --      0.9086                 3.3336                 3.7172

                     10                     11                     12
                      A                      A                      A
 Frequencies --    337.3440               383.0249               442.1234
 Red. masses --      3.6197                 4.5886                 8.0581
 Frc consts  --      0.2427                 0.3966                 0.9280
 IR Inten    --      5.8887                 7.2694                 4.8132

                     13                     14                     15
                      A                      A                      A
 Frequencies --    553.6766               594.8110               634.2927
 Red. masses --      2.2279                 6.6640                 1.2915
 Frc consts  --      0.4024                 1.3891                 0.3061
 IR Inten    --      0.3606                 6.6121                29.7976

                     16                     17                     18
                      A                      A                      A
 Frequencies --    675.7114               681.9457               761.3160
 Red. masses --      3.1355                 1.2570                 2.4704
 Frc consts  --      0.8435                 0.3444                 0.8436
 IR Inten    --     33.3069                33.3120                 7.5264

                     19                     20                     21
                      A                      A                      A
 Frequencies --    812.4070               948.8926               989.4454
 Red. masses --      1.7403                 3.9869                 4.0549
 Frc consts  --      0.6767                 2.1150                 2.3389
 IR Inten    --     15.7393                 8.3705                31.7055

                     22                     23                     24
                      A                      A                      A
 Frequencies --   1000.5807              1081.7443              1095.4242
 Red. masses --      1.7986                 2.5122                 1.8033
 Frc consts  --      1.0609                 1.7320                 1.2749
 IR Inten    --      3.8287                11.3331                 1.4997

                     25                     26                     27
                      A                      A                      A
 Frequencies --   1124.3025              1164.7301              1183.5351
 Red. masses --      4.2887                 3.7530                 1.2827
 Frc consts  --      3.1941                 2.9997                 1.0587
 IR Inten    --    170.4433                52.7965                 2.2985

                     28                     29                     30
                      A                      A                      A
 Frequencies --   1220.0930              1264.3959              1291.1972
 Red. masses --      1.4859                 1.2498                 1.3737
 Frc consts  --      1.3032                 1.1773                 1.3493
 IR Inten    --     21.2284                 0.2864                 4.9178

                     31                     32                     33
                      A                      A                      A
 Frequencies --   1342.4639              1373.7832              1414.6020
 Red. masses --      1.1900                 1.8386                 1.2261
 Frc consts  --      1.2636                 2.0444                 1.4456
 IR Inten    --     20.6710                24.1192                 3.1174

                     34                     35                     36
                      A                      A                      A
 Frequencies --   1444.9034              1477.5141              1484.7385
 Red. masses --      1.0858                 1.1461                 1.0464
 Frc consts  --      1.3356                 1.4741                 1.3590
 IR Inten    --     13.8972                 0.1663                 4.8124

                     37                     38                     39
                      A                      A                      A
 Frequencies --   1493.6274              1498.9806              1509.1777
 Red. masses --      1.0385                 1.0507                 1.0531
 Frc consts  --      1.3650                 1.3910                 1.4132
 IR Inten    --      5.2145                 7.1035                 8.0057

                     40                     41                     42
                      A                      A                      A
 Frequencies --   1823.8129              2224.4795              2991.8260
 Red. masses --     11.5292                 5.8993                 1.0411
 Frc consts  --     22.5948                17.1991                 5.4904
 IR Inten    --    153.6642                 3.2235                48.5954

                     43                     44                     45
                      A                      A                      A
 Frequencies --   2997.9316              3036.6574              3050.8889
 Red. masses --      1.0791                 1.0644                 1.0352
 Frc consts  --      5.7140                 5.7828                 5.6771
 IR Inten    --     27.2486                11.2949                23.1559

                     46                     47                     48
                      A                      A                      A
 Frequencies --   3055.0408              3068.4507              3122.2166
 Red. masses --      1.0992                 1.0941                 1.1021
 Frc consts  --      6.0446                 6.0697                 6.3296
 IR Inten    --     33.6103                 2.2043                19.8996

                     49                     50                     51
                      A                      A                      A
 Frequencies --   3126.0326              3127.6236              3500.0393
 Red. masses --      1.1016                 1.0990                 1.1622
 Frc consts  --      6.3426                 6.3342                 8.3883
 IR Inten    --     19.2482                21.4941                64.8514

 - Thermochemistry -
 -------------------
 Temperature   298.150 Kelvin.  Pressure   1.00000 Atm.
 Atom     1 has atomic number  6 and mass  12.00000

 Molecular mass:   126.06808 amu.
 Principal axes and moments of inertia in atomic units:
                           1         2         3
     Eigenvalues --   800.869181682.702251969.70617
           X            0.99964  -0.00866   0.02552
           Y            0.00913   0.99979  -0.01845
           Z           -0.02536   0.01867   0.99950
 This molecule is an asymmetric top.
 Rotational symmetry number  1.
 Warning -- assumption of classical behavior for rotation
           may cause significant error
 Rotational temperatures (Kelvin)      0.10815     0.05147     0.04397
 Rotational constants (GHZ):           2.25348     1.07253     0.91625
 Zero-point vibrational energy     405396.6 (Joules/Mol)
                                   96.89212 (Kcal/Mol)
 Warning -- explicit consideration of  14 degrees of freedom as
           vibrations may cause significant error
 Vibrational temperatures:     63.39    88.07   140.64   187.29   223.87
          (Kelvin)            253.20   287.96   347.74   380.75   485.36
                              551.09   636.12   796.62   855.80   912.60
                              972.20   981.17  1095.36  1168.87  1365.24
                             1423.59  1439.61  1556.39  1576.07  1617.62
                             1675.78  1702.84  1755.44  1819.18  1857.74
                             1931.50  1976.57  2035.29  2078.89  2125.81
                             2136.20  2148.99  2156.70  2171.37  2624.06
                             3200.53  4304.57  4313.35  4369.07  4389.54
                             4395.52  4414.81  4492.17  4497.66  4499.95
                             5035.77

 Zero-point correction=                           0.154407 (Hartree/Particle)
 Thermal correction to Energy=                    0.165277
 Thermal correction to Enthalpy=                  0.166221
 Thermal correction to Gibbs Free Energy=         0.117466
 Sum of electronic and zero-point Energies=           -422.996386
 Sum of electronic and thermal Energies=              -422.985516
 Sum of electronic and thermal Enthalpies=            -422.984572
 Sum of electronic and thermal Free Energies=         -423.033327

                     E (Thermal)             CV                S
                      KCal/Mol        Cal/Mol-Kelvin    Cal/Mol-Kelvin
 Total                  103.713             37.466            102.613
 Electronic               0.000              0.000              0.000
 Translational            0.889              2.981             40.409
 Rotational               0.889              2.981             29.364
 Vibrational            101.935             31.504             32.841
 Vibration     1          0.595              1.980              5.068
 Vibration     2          0.597              1.973              4.418
 Vibration     3          0.603              1.951              3.499
 Vibration     4          0.612              1.923              2.943
 Vibration     5          0.620              1.896              2.603
 Vibration     6          0.628              1.872              2.371
 Vibration     7          0.638              1.840              2.132
 Vibration     8          0.658              1.776              1.790
 Vibration     9          0.671              1.738              1.631
 Vibration    10          0.718              1.601              1.225
 Vibration    11          0.752              1.506              1.027
 Vibration    12          0.802              1.378              0.820
 Vibration    13          0.909              1.132              0.537
 Vibration    14          0.953              1.043              0.459

 Optimization completed.
    -- Stationary point found.
 Normal termination of Gaussian 09 at Tue Jan 28 10:06:18 2020.
