 Gaussian 09, Revision D.01,
 Gaussian 09:  ES64L-G09RevD.01 24-Apr-2013

 -----------------------------
 # b3lyp 6-31G(2df,p) opt Freq
 -----------------------------

 -----
 titel
 -----
 Symbolic Z-matrix:
 Charge =  0 Multiplicity = 1

 SCF Done:  E(RB3LYP) =  -423.128272694     A.U. after   13 cycles
 Optimization completed.
    -- Stationary point found.
 Normal termination of Gaussian 09 at Tue Jan 28 03:02:26 2020.

 ----------------------------------------------------------------------
 #N Geom=AllCheck Guess=TCheck SCRF=Check GenChk RB3LYP/6-31G(2df,p) Fr
 eq
 ----------------------------------------------------------------------

 Structure from the checkpoint file:  "/scratch/puck/g09_af2f402f-6928-4ed6-ab64-ecc0a27f5d5c/Gau-6734.chk"
 -----
 titel
 -----
 Charge =  0 Multiplicity = 1

                         Standard orientation:
 ---------------------------------------------------------------------
 Center     Atomic      Atomic             Coordinates (Angstroms)
 Number     Number       Type             X           Y           Z
 ---------------------------------------------------------------------
      1          8           0        2.860954   -0.762605   -0.155619
      2          6           0        1.663401   -0.260917    0.390819
      3          6           0        1.377904    1.255418    0.173044
      4          6           0        0.040581    0.922931   -0.533928
      5          6           0       -1.161549    0.767947    0.414690
      6          8           0       -2.380500    0.491240   -0.299344
      7          6           0       -2.214726   -0.935441   -0.133013
      8          6           0       -0.865861   -0.758932    0.584367
      9          6           0        0.345563   -0.622799   -0.358934
     10          1           0        2.899428   -0.504904   -1.083152
     11          1           0        1.673943   -0.579290    1.437976
     12          1           0        1.318421    1.881660    1.068734
     13          1           0        2.115786    1.701002   -0.501380
     14          1           0       -0.176884    1.412696   -1.483544
     15          1           0       -1.303065    1.499033    1.217280
     16          1           0       -3.011727   -1.356533    0.493218
     17          1           0       -2.194764   -1.470467   -1.091138
     18          1           0       -0.724873   -1.277828    1.533482
     19          1           0        0.448218   -1.343698   -1.174048
 ---------------------------------------------------------------------

 SCF Done:  E(RB3LYP) =  -423.128272694     A.U. after    1 cycles

 The electronic state is 1-A.
 Alpha  occ. eigenvalues --  -19.13997 -19.13193 -10.23376 -10.23355 -10.23119
 Alpha  occ. eigenvalues --  -10.19411 -10.18881 -10.18799 -10.18428  -1.03987
 Alpha  occ. eigenvalues --   -1.02295  -0.86062  -0.74464  -0.70361  -0.65806
 Alpha  occ. eigenvalues --   -0.62611  -0.57604  -0.52485  -0.50897  -0.50123
 Alpha  occ. eigenvalues --   -0.48809  -0.44968  -0.43581  -0.41154  -0.39888
 Alpha  occ. eigenvalues --   -0.38999  -0.38144  -0.33859  -0.32910  -0.30858
 Alpha  occ. eigenvalues --   -0.30207  -0.27218  -0.25874  -0.24124
 Alpha virt. eigenvalues --    0.06509   0.07328   0.08713   0.10194   0.10538
 Alpha virt. eigenvalues --    0.13741   0.14094   0.15126   0.15375   0.15657
 Alpha virt. eigenvalues --    0.17891   0.18402   0.19282   0.20456   0.22269

 Mulliken charges:
               1
     1  O   -0.432864
     2  C    0.149583
     3  C   -0.283265
     4  C   -0.057230
     5  C    0.119843
     6  O   -0.291695
     7  C   -0.091668
     8  C   -0.086669
     9  C   -0.085442
    10  H    0.277422
    11  H    0.086334
    12  H    0.101105
    13  H    0.100757
    14  H    0.077653
    15  H    0.073358
    16  H    0.101559
    17  H    0.099926
    18  H    0.076296
    19  H    0.064996
 Sum of Mulliken charges =   0.00000

 Dipole moment (field-independent basis, Debye):
    X=              0.3499    Y=             -0.1539    Z=             -0.2000  Tot=              0.4314
 Quadrupole moment (field-independent basis, Debye-Ang):
   XX=            -61.6682   YY=            -53.0603   ZZ=            -49.7791
   XY=              6.0764   XZ=             -4.9074   YZ=              0.9392

  Exact polarizability:  84.590   4.903  72.375  -1.820   1.215  66.430
 Approx polarizability: 110.716   1.596 108.346  -1.273   0.727 103.181

                      1                      2                      3
                      A                      A                      A
 Frequencies --     60.2754               178.3499               207.2312
 Red. masses --      3.3787                 2.8858                 2.8647
 Frc consts  --      0.0072                 0.0541                 0.0725
 IR Inten    --      4.4325                 2.1722                 2.3796

                      4                      5                      6
                      A                      A                      A
 Frequencies --    283.6982               303.1899               357.8171
 Red. masses --      2.4196                 1.3894                 4.2200
 Frc consts  --      0.1147                 0.0752                 0.3183
 IR Inten    --     10.7275                65.7936                11.5604

                      7                      8                      9
                      A                      A                      A
 Frequencies --    412.2698               460.3747               638.0427
 Red. masses --      3.8390                 2.2934                 3.0616
 Frc consts  --      0.3844                 0.2864                 0.7343
 IR Inten    --     10.7983                 1.6557                 1.8855

                     10                     11                     12
                      A                      A                      A
 Frequencies --    771.3905               784.8194               811.6982
 Red. masses --      3.1444                 1.8179                 2.1614
 Frc consts  --      1.1024                 0.6597                 0.8390
 IR Inten    --     12.0224                 4.3232                 6.2355

                     13                     14                     15
                      A                      A                      A
 Frequencies --    839.3319               889.8403               900.0709
 Red. masses --      1.8287                 2.4936                 3.3295
 Frc consts  --      0.7590                 1.1633                 1.5892
 IR Inten    --      7.1388                 0.8218                 2.3509

                     16                     17                     18
                      A                      A                      A
 Frequencies --    937.2612               947.0073               996.7852
 Red. masses --      2.2026                 2.8652                 2.2546
 Frc consts  --      1.1400                 1.5140                 1.3199
 IR Inten    --     14.8294                 7.1908                 5.4314

                     19                     20                     21
                      A                      A                      A
 Frequencies --   1011.2280              1021.2373              1034.4196
 Red. masses --      3.0109                 3.1592                 2.4201
 Frc consts  --      1.8140                 1.9412                 1.5257
 IR Inten    --     12.2194                50.5500                28.6284

                     22                     23                     24
                      A                      A                      A
 Frequencies --   1055.8980              1073.4269              1111.1834
 Red. masses --      2.3959                 1.8085                 1.9331
 Frc consts  --      1.5738                 1.2278                 1.4063
 IR Inten    --     34.6474                 1.6337                26.1912

                     25                     26                     27
                      A                      A                      A
 Frequencies --   1120.9869              1134.6311              1161.1529
 Red. masses --      1.8037                 1.6780                 1.2016
 Frc consts  --      1.3354                 1.2728                 0.9546
 IR Inten    --     68.9079                19.0303                 2.4010

                     28                     29                     30
                      A                      A                      A
 Frequencies --   1183.4558              1216.6330              1219.5146
 Red. masses --      1.5985                 1.5038                 1.5478
 Frc consts  --      1.3191                 1.3115                 1.3563
 IR Inten    --     20.3593                 7.2190                 6.2624

                     31                     32                     33
                      A                      A                      A
 Frequencies --   1230.5400              1257.1993              1267.0396
 Red. masses --      1.5988                 1.4779                 1.4970
 Frc consts  --      1.4264                 1.3763                 1.4160
 IR Inten    --      6.0608                 3.1877                 3.3342

                     34                     35                     36
                      A                      A                      A
 Frequencies --   1272.9016              1305.9165              1313.4411
 Red. masses --      1.4173                 1.6171                 1.5311
 Frc consts  --      1.3530                 1.6249                 1.5562
 IR Inten    --      3.4357                 0.4014                 7.5850

                     37                     38                     39
                      A                      A                      A
 Frequencies --   1330.7352              1365.8390              1433.4113
 Red. masses --      1.6788                 1.4738                 1.2214
 Frc consts  --      1.7516                 1.6199                 1.4786
 IR Inten    --      1.0286                 6.1903                68.9761

                     40                     41                     42
                      A                      A                      A
 Frequencies --   1470.4525              1523.3004              3006.0313
 Red. masses --      1.1045                 1.0973                 1.0549
 Frc consts  --      1.4070                 1.5002                 5.6161
 IR Inten    --      3.3709                 0.8679                89.6286

                     43                     44                     45
                      A                      A                      A
 Frequencies --   3043.8497              3048.2696              3054.4564
 Red. masses --      1.0600                 1.1105                 1.0874
 Frc consts  --      5.7862                 6.0796                 5.9774
 IR Inten    --     28.3277                35.2850                58.0525

                     46                     47                     48
                      A                      A                      A
 Frequencies --   3058.5335              3076.5609              3094.9371
 Red. masses --      1.0872                 1.0874                 1.1032
 Frc consts  --      5.9923                 6.0642                 6.2260
 IR Inten    --     24.2006                35.3660                11.1319

                     49                     50                     51
                      A                      A                      A
 Frequencies --   3100.1379              3109.6511              3800.3176
 Red. masses --      1.0919                 1.0909                 1.0659
 Frc consts  --      6.1829                 6.2155                 9.0700
 IR Inten    --     58.3808                22.4772                13.7399

 - Thermochemistry -
 -------------------
 Temperature   298.150 Kelvin.  Pressure   1.00000 Atm.
 Atom     1 has atomic number  8 and mass  15.99491

 Molecular mass:   126.06808 amu.
 Principal axes and moments of inertia in atomic units:
                           1         2         3
     Eigenvalues --   427.707171522.171681743.44395
           X            0.99955   0.02948  -0.00613
           Y           -0.02937   0.99941   0.01752
           Z            0.00664  -0.01733   0.99983
 This molecule is an asymmetric top.
 Rotational symmetry number  1.
 Rotational temperatures (Kelvin)      0.20251     0.05690     0.04968
 Rotational constants (GHZ):           4.21957     1.18564     1.03516
 Zero-point vibrational energy     420408.1 (Joules/Mol)
                                  100.47994 (Kcal/Mol)
 Warning -- explicit consideration of   8 degrees of freedom as
           vibrations may cause significant error
 Vibrational temperatures:     86.72   256.61   298.16   408.18   436.22
          (Kelvin)            514.82   593.16   662.38   918.00  1109.86
                             1129.18  1167.85  1207.61  1280.28  1295.00
                             1348.51  1362.53  1434.15  1454.93  1469.33
                             1488.30  1519.20  1544.42  1598.74  1612.85
                             1632.48  1670.64  1702.73  1750.46  1754.61
                             1770.47  1808.83  1822.99  1831.42  1878.92
                             1889.75  1914.63  1965.14  2062.36  2115.65
                             2191.69  4325.00  4379.42  4385.77  4394.68
                             4400.54  4426.48  4452.92  4460.40  4474.09
                             5467.80

 Zero-point correction=                           0.160125 (Hartree/Particle)
 Thermal correction to Energy=                    0.167777
 Thermal correction to Enthalpy=                  0.168721
 Thermal correction to Gibbs Free Energy=         0.127690
 Sum of electronic and zero-point Energies=           -422.968148
 Sum of electronic and thermal Energies=              -422.960496
 Sum of electronic and thermal Enthalpies=            -422.959552
 Sum of electronic and thermal Free Energies=         -423.000582

                     E (Thermal)             CV                S
                      KCal/Mol        Cal/Mol-Kelvin    Cal/Mol-Kelvin
 Total                  105.282             29.951             86.357
 Electronic               0.000              0.000              0.000
 Translational            0.889              2.981             40.409
 Rotational               0.889              2.981             28.519
 Vibrational            103.504             23.989             17.428
 Vibration     1          0.597              1.973              4.448
 Vibration     2          0.629              1.869              2.346
 Vibration     3          0.641              1.830              2.068
 Vibration     4          0.682              1.704              1.511
 Vibration     5          0.695              1.668              1.399
 Vibration     6          0.733              1.559              1.132
 Vibration     7          0.776              1.444              0.919
 Vibration     8          0.818              1.338              0.765

 Normal termination of Gaussian 09 at Tue Jan 28 03:47:01 2020.
