 Gaussian 09, Revision D.01,
 Gaussian 09:  ES64L-G09RevD.01 24-Apr-2013

 -----------------------------
 # b3lyp 6-31G(2df,p) opt Freq
 -----------------------------

 -----
 titel
 -----
 Symbolic Z-matrix:
 Charge =  0 Multiplicity = 1

 SCF Done:  E(RB3LYP) =  -423.127125684     A.U. after   13 cycles
 Optimization completed.
    -- Stationary point found.
 Normal termination of Gaussian 09 at Tue Jan 28 02:54:51 2020.

 ----------------------------------------------------------------------
 #N Geom=AllCheck Guess=TCheck SCRF=Check GenChk RB3LYP/6-31G(2df,p) Fr
 eq
 ----------------------------------------------------------------------

 Structure from the checkpoint file:  "/scratch/puck/g09_4694faf2-4688-4c95-b953-7e1f4358d717/Gau-92262.chk"
 -----
 titel
 -----
 Charge =  0 Multiplicity = 1

                         Standard orientation:
 ---------------------------------------------------------------------
 Center     Atomic      Atomic             Coordinates (Angstroms)
 Number     Number       Type             X           Y           Z
 ---------------------------------------------------------------------
      1          8           0        2.554549   -0.453791   -0.605312
      2          6           0        1.621037    0.125443    0.277471
      3          6           0        0.756464    1.321259   -0.309406
      4          6           0       -0.582396    0.651984   -0.052492
      5          6           0       -2.072211    0.696865   -0.371804
      6          6           0       -2.038087   -0.875900   -0.333532
      7          6           0       -0.472903   -0.839324   -0.463428
      8          6           0        0.447803   -0.803220    0.756712
      9          8           0       -0.408445    0.207360    1.355209
     10          1           0        2.095255   -0.718933   -1.408667
     11          1           0        2.197005    0.446419    1.147577
     12          1           0        0.902277    2.254479    0.238294
     13          1           0        0.972964    1.488744   -1.368722
     14          1           0       -2.709749    1.217324    0.346050
     15          1           0       -2.268786    1.075765   -1.379219
     16          1           0       -2.400021   -1.296167    0.603825
     17          1           0       -2.537758   -1.369878   -1.168309
     18          1           0       -0.083284   -1.146635   -1.437452
     19          1           0        0.705025   -1.642316    1.406329
 ---------------------------------------------------------------------

 SCF Done:  E(RB3LYP) =  -423.127125684     A.U. after    1 cycles

 The electronic state is 1-A.
 Alpha  occ. eigenvalues --  -19.14100 -19.13126 -10.23971 -10.23509 -10.23485
 Alpha  occ. eigenvalues --  -10.19291 -10.19238 -10.19060 -10.18679  -1.05388
 Alpha  occ. eigenvalues --   -1.02033  -0.82597  -0.76831  -0.71633  -0.65871
 Alpha  occ. eigenvalues --   -0.62556  -0.58075  -0.52437  -0.51094  -0.48328
 Alpha  occ. eigenvalues --   -0.47272  -0.46257  -0.44403  -0.40363  -0.38668
 Alpha  occ. eigenvalues --   -0.37271  -0.37007  -0.35360  -0.33401  -0.31886
 Alpha  occ. eigenvalues --   -0.31705  -0.28302  -0.26750  -0.23796
 Alpha virt. eigenvalues --    0.06463   0.08482   0.09151   0.10810   0.12063
 Alpha virt. eigenvalues --    0.13619   0.14551   0.15089   0.15952   0.16166
 Alpha virt. eigenvalues --    0.17697   0.18966   0.20007   0.21397   0.21815

 Mulliken charges:
               1
     1  O   -0.437478
     2  C    0.151473
     3  C   -0.366489
     4  C    0.446077
     5  C   -0.330139
     6  C   -0.249486
     7  C   -0.063161
     8  C    0.017718
     9  O   -0.341792
    10  H    0.281864
    11  H    0.100780
    12  H    0.113170
    13  H    0.097496
    14  H    0.114224
    15  H    0.106978
    16  H    0.124209
    17  H    0.101732
    18  H    0.055418
    19  H    0.077408
 Sum of Mulliken charges =   0.00000

 Dipole moment (field-independent basis, Debye):
    X=             -1.1749    Y=             -0.1937    Z=             -1.8799  Tot=              2.2253
 Quadrupole moment (field-independent basis, Debye-Ang):
   XX=            -57.9051   YY=            -51.8999   ZZ=            -52.1952
   XY=              0.5693   XZ=              1.6298   YZ=             -0.1211

  Exact polarizability:  84.489   0.257  70.618   3.021  -0.323  68.102
 Approx polarizability: 113.076  -2.787 105.758   1.569   2.041 110.585

                      1                      2                      3
                      A                      A                      A
 Frequencies --    153.9503               223.9655               260.0558
 Red. masses --      3.9071                 1.6458                 1.2403
 Frc consts  --      0.0546                 0.0486                 0.0494
 IR Inten    --      1.7351                13.8496                51.0835

                      4                      5                      6
                      A                      A                      A
 Frequencies --    301.5469               346.3129               429.1079
 Red. masses --      3.0150                 2.5378                 3.7401
 Frc consts  --      0.1615                 0.1793                 0.4058
 IR Inten    --      5.9764                13.7285                 9.8979

                      7                      8                      9
                      A                      A                      A
 Frequencies --    456.6983               526.4103               606.7416
 Red. masses --      2.5012                 7.1389                 3.3726
 Frc consts  --      0.3074                 1.1655                 0.7315
 IR Inten    --      7.1263                 5.4775                 8.0666

                     10                     11                     12
                      A                      A                      A
 Frequencies --    673.9796               725.5883               756.8118
 Red. masses --      2.2390                 2.9233                 2.1093
 Frc consts  --      0.5992                 0.9068                 0.7118
 IR Inten    --      7.0314                 5.2343                 4.7223

                     13                     14                     15
                      A                      A                      A
 Frequencies --    800.4801               807.9937               857.1249
 Red. masses --      2.5714                 3.1385                 2.1024
 Frc consts  --      0.9708                 1.2072                 0.9100
 IR Inten    --     17.3023                 7.5617                 5.2898

                     16                     17                     18
                      A                      A                      A
 Frequencies --    888.3170               909.6192               933.6937
 Red. masses --      3.3053                 3.0995                 2.4472
 Frc consts  --      1.5367                 1.5110                 1.2570
 IR Inten    --     20.7035                 2.5951                 0.2451

                     19                     20                     21
                      A                      A                      A
 Frequencies --    967.1316              1001.5445              1011.9557
 Red. masses --      3.3318                 2.1371                 1.9636
 Frc consts  --      1.8361                 1.2631                 1.1847
 IR Inten    --     22.8774                 1.8048                 0.4231

                     22                     23                     24
                      A                      A                      A
 Frequencies --   1037.2067              1065.6071              1100.7390
 Red. masses --      1.7471                 2.2094                 1.6931
 Frc consts  --      1.1074                 1.4782                 1.2086
 IR Inten    --     13.6096                 1.1505                10.3679

                     25                     26                     27
                      A                      A                      A
 Frequencies --   1115.0490              1153.3879              1167.2996
 Red. masses --      1.8881                 1.7243                 1.4367
 Frc consts  --      1.3831                 1.3515                 1.1534
 IR Inten    --    141.1613                 9.3911                14.5512

                     28                     29                     30
                      A                      A                      A
 Frequencies --   1197.3502              1221.5878              1228.1228
 Red. masses --      1.6010                 1.5853                 1.5057
 Frc consts  --      1.3524                 1.3938                 1.3381
 IR Inten    --      5.3486                 5.7423                 1.5797

                     31                     32                     33
                      A                      A                      A
 Frequencies --   1248.1316              1252.0883              1267.7859
 Red. masses --      1.3620                 1.4515                 1.4259
 Frc consts  --      1.2501                 1.3407                 1.3503
 IR Inten    --      2.1550                 1.5079                 5.6656

                     34                     35                     36
                      A                      A                      A
 Frequencies --   1288.7236              1301.5864              1330.9793
 Red. masses --      1.3996                 1.4951                 2.9746
 Frc consts  --      1.3695                 1.4923                 3.1047
 IR Inten    --      1.6998                 1.0467                26.5958

                     37                     38                     39
                      A                      A                      A
 Frequencies --   1353.4294              1422.9898              1462.8656
 Red. masses --      1.7610                 1.2293                 1.0901
 Frc consts  --      1.9006                 1.4666                 1.3745
 IR Inten    --      1.8174                67.2218                 1.0061

                     40                     41                     42
                      A                      A                      A
 Frequencies --   1479.0545              1485.8248              3058.8503
 Red. masses --      1.1397                 1.1224                 1.0589
 Frc consts  --      1.4689                 1.4599                 5.8374
 IR Inten    --      1.8410                 1.6881                21.1774

                     43                     44                     45
                      A                      A                      A
 Frequencies --   3060.2385              3067.8564              3088.1354
 Red. masses --      1.0637                 1.0798                 1.0621
 Frc consts  --      5.8694                 5.9876                 5.9678
 IR Inten    --     31.7606                48.1774                36.0859

                     46                     47                     48
                      A                      A                      A
 Frequencies --   3094.3541              3103.7410              3117.8886
 Red. masses --      1.0890                 1.0919                 1.1056
 Frc consts  --      6.1438                 6.1970                 6.3326
 IR Inten    --     17.2077                50.4683                 7.8022

                     49                     50                     51
                      A                      A                      A
 Frequencies --   3119.3897              3152.1616              3815.2175
 Red. masses --      1.1049                 1.1072                 1.0656
 Frc consts  --      6.3346                 6.4819                 9.1390
 IR Inten    --     32.6809                19.7962                 9.3470

 - Thermochemistry -
 -------------------
 Temperature   298.150 Kelvin.  Pressure   1.00000 Atm.
 Atom     1 has atomic number  8 and mass  15.99491

 Molecular mass:   126.06808 amu.
 Principal axes and moments of inertia in atomic units:
                           1         2         3
     Eigenvalues --   509.142541268.430111329.37852
           X            0.99981   0.01349   0.01381
           Y           -0.01279   0.99870  -0.04926
           Z           -0.01446   0.04908   0.99869
 This molecule is an asymmetric top.
 Rotational symmetry number  1.
 Warning -- assumption of classical behavior for rotation
           may cause significant error
 Rotational temperatures (Kelvin)      0.17012     0.06828     0.06515
 Rotational constants (GHZ):           3.54467     1.42281     1.35758
 Zero-point vibrational energy     421663.7 (Joules/Mol)
                                  100.78005 (Kcal/Mol)
 Warning -- explicit consideration of   9 degrees of freedom as
           vibrations may cause significant error
 Vibrational temperatures:    221.50   322.24   374.16   433.86   498.27
          (Kelvin)            617.39   657.09   757.39   872.96   969.71
                             1043.96  1088.88  1151.71  1162.52  1233.21
                             1278.09  1308.74  1343.38  1391.48  1441.00
                             1455.98  1492.31  1533.17  1583.72  1604.30
                             1659.47  1679.48  1722.72  1757.59  1766.99
                             1795.78  1801.47  1824.06  1854.18  1872.69
                             1914.98  1947.28  2047.36  2104.73  2128.03
                             2137.77  4401.00  4403.00  4413.96  4443.13
                             4452.08  4465.59  4485.94  4488.10  4535.25
                             5489.24

 Zero-point correction=                           0.160603 (Hartree/Particle)
 Thermal correction to Energy=                    0.167860
 Thermal correction to Enthalpy=                  0.168804
 Thermal correction to Gibbs Free Energy=         0.129372
 Sum of electronic and zero-point Energies=           -422.966522
 Sum of electronic and thermal Energies=              -422.959265
 Sum of electronic and thermal Enthalpies=            -422.958321
 Sum of electronic and thermal Free Energies=         -422.997753

                     E (Thermal)             CV                S
                      KCal/Mol        Cal/Mol-Kelvin    Cal/Mol-Kelvin
 Total                  105.334             30.134             82.992
 Electronic               0.000              0.000              0.000
 Translational            0.889              2.981             40.409
 Rotational               0.889              2.981             28.242
 Vibrational            103.556             24.172             14.342
 Vibration     1          0.619              1.898              2.623
 Vibration     2          0.649              1.805              1.927
 Vibration     3          0.668              1.746              1.661
 Vibration     4          0.694              1.671              1.408
 Vibration     5          0.724              1.583              1.183
 Vibration     6          0.790              1.407              0.862
 Vibration     7          0.815              1.346              0.776
 Vibration     8          0.881              1.192              0.595
 Vibration     9          0.965              1.018              0.438

 Optimization completed.
    -- Stationary point found.
 Normal termination of Gaussian 09 at Tue Jan 28 03:45:08 2020.
 Normal termination of Gaussian 09 at Tue Jan 28 02:46:33 2020.
