 Gaussian 09, Revision D.01,
 Gaussian 09:  ES64L-G09RevD.01 24-Apr-2013

 -----------------------------
 # b3lyp 6-31G(2df,p) opt Freq
 -----------------------------

 -----
 titel
 -----
 Symbolic Z-matrix:
 Charge =  0 Multiplicity = 1

 SCF Done:  E(RB3LYP) =  -423.182723167     A.U. after   13 cycles
 Optimization completed.
    -- Stationary point found.
 Normal termination of Gaussian 09 at Mon Jan 27 17:34:05 2020.

 ----------------------------------------------------------------------
 #N Geom=AllCheck Guess=TCheck SCRF=Check GenChk RB3LYP/6-31G(2df,p) Fr
 eq
 ----------------------------------------------------------------------

 Structure from the checkpoint file:  "/scratch/puck/g09_290ae943-e05e-4371-8790-e98858a93b14/Gau-112904.chk"
 -----
 titel
 -----
 Charge =  0 Multiplicity = 1

                         Standard orientation:
 ---------------------------------------------------------------------
 Center     Atomic      Atomic             Coordinates (Angstroms)
 Number     Number       Type             X           Y           Z
 ---------------------------------------------------------------------
      1          6           0        1.959357    1.228837   -0.233680
      2          6           0        1.014582    0.114814    0.134419
      3          6           0        1.427255   -1.335954    0.168721
      4          6           0        0.413659   -0.878790   -0.850614
      5          6           0       -1.053643   -0.909923   -0.419940
      6          6           0       -1.662761    0.463489   -0.791589
      7          8           0       -1.041596    1.333000    0.174996
      8          6           0       -0.232034    0.452955    0.964422
      9          8           0       -0.968702   -0.752080    1.007621
     10          1           0        1.404574    2.091329   -0.615487
     11          1           0        2.542559    1.560341    0.633820
     12          1           0        2.668864    0.908577   -1.002770
     13          1           0        2.419040   -1.552458   -0.214658
     14          1           0        1.103897   -1.969004    0.986755
     15          1           0        0.655745   -0.852692   -1.906689
     16          1           0       -1.647888   -1.788800   -0.667833
     17          1           0       -1.411597    0.781812   -1.808957
     18          1           0       -2.749856    0.486956   -0.657178
     19          1           0       -0.101450    0.874005    1.961624
 ---------------------------------------------------------------------

 SCF Done:  E(RB3LYP) =  -423.182723167     A.U. after    1 cycles

 The electronic state is 1-A.
 Alpha  occ. eigenvalues --  -19.14909 -19.13843 -10.27488 -10.24215 -10.22929
 Alpha  occ. eigenvalues --  -10.19576 -10.19275 -10.18566 -10.17865  -1.09569
 Alpha  occ. eigenvalues --   -0.98829  -0.86495  -0.76888  -0.70998  -0.65472
 Alpha  occ. eigenvalues --   -0.62585  -0.57543  -0.55974  -0.51387  -0.50840
 Alpha  occ. eigenvalues --   -0.46855  -0.44118  -0.43026  -0.40812  -0.39705
 Alpha  occ. eigenvalues --   -0.39351  -0.38766  -0.37206  -0.34438  -0.33875
 Alpha  occ. eigenvalues --   -0.29418  -0.28277  -0.26313  -0.25000
 Alpha virt. eigenvalues --    0.09130   0.10884   0.11755   0.12076   0.13017
 Alpha virt. eigenvalues --    0.13414   0.13719   0.15806   0.16643   0.16712
 Alpha virt. eigenvalues --    0.17138   0.17837   0.19359   0.20723   0.22563

 Mulliken charges:
               1
     1  C   -0.489071
     2  C    0.333219
     3  C   -0.360042
     4  C   -0.091111
     5  C    0.013764
     6  C   -0.080817
     7  O   -0.272008
     8  C    0.115855
     9  O   -0.248466
    10  H    0.133902
    11  H    0.117830
    12  H    0.115076
    13  H    0.109426
    14  H    0.123916
    15  H    0.091231
    16  H    0.089864
    17  H    0.102205
    18  H    0.106687
    19  H    0.088540
 Sum of Mulliken charges =   0.00000

 Dipole moment (field-independent basis, Debye):
    X=              0.7879    Y=             -0.6151    Z=             -1.3999  Tot=              1.7201
 Quadrupole moment (field-independent basis, Debye-Ang):
   XX=            -51.7067   YY=            -55.8661   ZZ=            -51.3771
   XY=              1.4914   XZ=              2.5453   YZ=              1.6546

  Exact polarizability:  80.302  -0.017  71.296   3.995   1.330  67.842
 Approx polarizability: 108.033   0.007 107.882   5.688   3.008 107.564

                      1                      2                      3
                      A                      A                      A
 Frequencies --    182.4650               215.1532               259.3399
 Red. masses --      2.7815                 1.0299                 3.3828
 Frc consts  --      0.0546                 0.0281                 0.1341
 IR Inten    --      0.7064                 0.0197                 1.6128

                      4                      5                      6
                      A                      A                      A
 Frequencies --    312.1551               359.2309               441.6537
 Red. masses --      2.3441                 2.5639                 2.6827
 Frc consts  --      0.1346                 0.1949                 0.3083
 IR Inten    --      2.8840                 0.1164                 1.0193

                      7                      8                      9
                      A                      A                      A
 Frequencies --    500.5285               564.4787               622.7265
 Red. masses --      4.2172                 4.2153                 4.5626
 Frc consts  --      0.6225                 0.7914                 1.0424
 IR Inten    --      2.6078                 3.3982                 6.1296

                     10                     11                     12
                      A                      A                      A
 Frequencies --    710.4516               780.0365               825.2115
 Red. masses --      4.3285                 3.9114                 2.3462
 Frc consts  --      1.2872                 1.4022                 0.9413
 IR Inten    --      2.4532                 3.7742                 2.3712

                     13                     14                     15
                      A                      A                      A
 Frequencies --    844.3453               896.2964               904.6371
 Red. masses --      4.6557                 2.4568                 3.0169
 Frc consts  --      1.9556                 1.1629                 1.4546
 IR Inten    --      2.6710                29.5720                41.6267

                     16                     17                     18
                      A                      A                      A
 Frequencies --    916.7836               936.9211               960.6826
 Red. masses --      1.8689                 2.0753                 1.9602
 Frc consts  --      0.9255                 1.0733                 1.0659
 IR Inten    --     24.3573                35.7947                13.4249

                     19                     20                     21
                      A                      A                      A
 Frequencies --    974.3449               977.9155              1003.3218
 Red. masses --      3.3220                 1.5621                 3.1127
 Frc consts  --      1.8581                 0.8802                 1.8461
 IR Inten    --     39.5611                18.9937                17.8752

                     22                     23                     24
                      A                      A                      A
 Frequencies --   1052.5503              1075.1193              1087.9347
 Red. masses --      2.1348                 1.5843                 1.7705
 Frc consts  --      1.3935                 1.0789                 1.2347
 IR Inten    --     17.5718                16.5632                 4.0796

                     25                     26                     27
                      A                      A                      A
 Frequencies --   1094.1809              1118.3101              1131.0926
 Red. masses --      1.4355                 3.5510                 1.9309
 Frc consts  --      1.0126                 2.6166                 1.4555
 IR Inten    --      3.7154                48.8056                 6.7991

                     28                     29                     30
                      A                      A                      A
 Frequencies --   1191.4135              1245.5825              1259.8681
 Red. masses --      1.1068                 1.4638                 1.4179
 Frc consts  --      0.9257                 1.3381                 1.3260
 IR Inten    --      1.8894                 1.0771                 0.1836

                     31                     32                     33
                      A                      A                      A
 Frequencies --   1282.9398              1296.8851              1316.6828
 Red. masses --      1.6252                 1.4512                 2.1986
 Frc consts  --      1.5760                 1.4381                 2.2457
 IR Inten    --      1.1637                 1.8383                 6.8567

                     34                     35                     36
                      A                      A                      A
 Frequencies --   1330.6378              1365.2996              1393.1299
 Red. masses --      1.6941                 1.4627                 1.5935
 Frc consts  --      1.7673                 1.6064                 1.8222
 IR Inten    --     16.3799                 4.4229                 1.0176

                     37                     38                     39
                      A                      A                      A
 Frequencies --   1420.7242              1482.0538              1490.0831
 Red. masses --      1.4771                 1.4112                 1.0454
 Frc consts  --      1.7567                 1.8262                 1.3676
 IR Inten    --      2.6924                 4.4250                 2.4102

                     40                     41                     42
                      A                      A                      A
 Frequencies --   1507.2528              1517.6369              3027.9302
 Red. masses --      1.0636                 1.0943                 1.0376
 Frc consts  --      1.4237                 1.4850                 5.6051
 IR Inten    --      5.5317                 0.8325                38.5188

                     43                     44                     45
                      A                      A                      A
 Frequencies --   3032.4792              3079.1761              3088.7270
 Red. masses --      1.0559                 1.1106                 1.0978
 Frc consts  --      5.7210                 6.2041                 6.1705
 IR Inten    --     55.5505                31.4423                20.1577

                     46                     47                     48
                      A                      A                      A
 Frequencies --   3110.7582              3124.5263              3129.5864
 Red. masses --      1.1014                 1.0887                 1.0923
 Frc consts  --      6.2794                 6.2623                 6.3035
 IR Inten    --     14.2513                50.6542                19.2664

                     49                     50                     51
                      A                      A                      A
 Frequencies --   3135.4645              3180.9115              3223.8651
 Red. masses --      1.0542                 1.0919                 1.1157
 Frc consts  --      6.1063                 6.5092                 6.8322
 IR Inten    --     14.6376                 8.9942                 5.1183

 - Thermochemistry -
 -------------------
 Temperature   298.150 Kelvin.  Pressure   1.00000 Atm.
 Atom     1 has atomic number  6 and mass  12.00000

 Molecular mass:   126.06808 amu.
 Principal axes and moments of inertia in atomic units:
                           1         2         3
     Eigenvalues --   652.53628 935.203881146.03183
           X            0.99899   0.04108   0.01813
           Y           -0.04109   0.99916   0.00041
           Z           -0.01810  -0.00115   0.99984
 This molecule is an asymmetric top.
 Rotational symmetry number  1.
 Warning -- assumption of classical behavior for rotation
           may cause significant error
 Rotational temperatures (Kelvin)      0.13273     0.09261     0.07558
 Rotational constants (GHZ):           2.76573     1.92978     1.57477
 Zero-point vibrational energy     424563.5 (Joules/Mol)
                                  101.47312 (Kcal/Mol)
 Warning -- explicit consideration of   8 degrees of freedom as
           vibrations may cause significant error
 Vibrational temperatures:    262.53   309.56   373.13   449.12   516.85
          (Kelvin)            635.44   720.15   812.16   895.96  1022.18
                             1122.30  1187.29  1214.82  1289.57  1301.57
                             1319.05  1348.02  1382.21  1401.86  1407.00
                             1443.55  1514.38  1546.85  1565.29  1574.28
                             1609.00  1627.39  1714.18  1792.11  1812.67
                             1845.86  1865.93  1894.41  1914.49  1964.36
                             2004.40  2044.10  2132.34  2143.89  2168.60
                             2183.54  4356.51  4363.06  4430.24  4443.98
                             4475.68  4495.49  4502.77  4511.23  4576.62
                             4638.42

 Zero-point correction=                           0.161708 (Hartree/Particle)
 Thermal correction to Energy=                    0.168701
 Thermal correction to Enthalpy=                  0.169645
 Thermal correction to Gibbs Free Energy=         0.130770
 Sum of electronic and zero-point Energies=           -423.021015
 Sum of electronic and thermal Energies=              -423.014022
 Sum of electronic and thermal Enthalpies=            -423.013078
 Sum of electronic and thermal Free Energies=         -423.051954

                     E (Thermal)             CV                S
                      KCal/Mol        Cal/Mol-Kelvin    Cal/Mol-Kelvin
 Total                  105.862             29.017             81.821
 Electronic               0.000              0.000              0.000
 Translational            0.889              2.981             40.409
 Rotational               0.889              2.981             28.038
 Vibrational            104.084             23.056             13.374
 Vibration     1          0.630              1.864              2.303
 Vibration     2          0.645              1.818              2.000
 Vibration     3          0.668              1.747              1.666
 Vibration     4          0.701              1.651              1.351
 Vibration     5          0.734              1.556              1.125
 Vibration     6          0.801              1.379              0.821
 Vibration     7          0.856              1.249              0.657
 Vibration     8          0.920              1.108              0.515

 Optimization completed.
    -- Stationary point found.
 Normal termination of Gaussian 09 at Mon Jan 27 18:18:59 2020.
