 Gaussian 09, Revision D.01,
 Gaussian 09:  ES64L-G09RevD.01 24-Apr-2013

 -----------------------------
 # b3lyp 6-31G(2df,p) opt Freq
 -----------------------------

 -----
 titel
 -----
 Symbolic Z-matrix:
 Charge =  0 Multiplicity = 1

 SCF Done:  E(RB3LYP) =  -423.117803659     A.U. after   12 cycles
 Optimization completed.
    -- Stationary point found.
 Normal termination of Gaussian 09 at Mon Jan 27 23:43:18 2020.

 ----------------------------------------------------------------------
 #N Geom=AllCheck Guess=TCheck SCRF=Check GenChk RB3LYP/6-31G(2df,p) Fr
 eq
 ----------------------------------------------------------------------

 Structure from the checkpoint file:  "/scratch/puck/g09_d544d52e-be49-4bdd-a37e-917561e367da/Gau-185979.chk"
 -----
 titel
 -----
 Charge =  0 Multiplicity = 1

                         Standard orientation:
 ---------------------------------------------------------------------
 Center     Atomic      Atomic             Coordinates (Angstroms)
 Number     Number       Type             X           Y           Z
 ---------------------------------------------------------------------
      1          6           0        3.119216   -0.634181    0.233056
      2          6           0        1.737567   -0.342945   -0.310467
      3          6           0        1.164630    1.022362   -0.093929
      4          8           0       -0.065221    1.180633   -0.813329
      5          6           0       -0.679768    0.142751   -0.017287
      6          6           0       -1.965804    0.497692    0.750232
      7          8           0       -2.652786   -0.636892    0.182619
      8          6           0       -1.553117   -0.915174   -0.710984
      9          6           0        0.626300   -0.137333    0.709087
     10          1           0        3.232956   -1.695211    0.478620
     11          1           0        3.891967   -0.371346   -0.496586
     12          1           0        3.314783   -0.061976    1.146615
     13          1           0        1.486807   -0.833817   -1.249489
     14          1           0        1.719452    1.914268    0.173257
     15          1           0       -1.921887    0.453062    1.844985
     16          1           0       -2.398858    1.455299    0.434159
     17          1           0       -1.214990   -1.956016   -0.647661
     18          1           0       -1.788811   -0.664263   -1.753124
     19          1           0        0.728497   -0.388968    1.756665
 ---------------------------------------------------------------------

 SCF Done:  E(RB3LYP) =  -423.117803659     A.U. after    1 cycles

 The electronic state is 1-A.
 Alpha  occ. eigenvalues --  -19.14461 -19.13278 -10.24822 -10.24290 -10.22759
 Alpha  occ. eigenvalues --  -10.22655 -10.20225 -10.19899 -10.18930  -1.06382
 Alpha  occ. eigenvalues --   -1.03231  -0.84721  -0.73906  -0.71399  -0.69374
 Alpha  occ. eigenvalues --   -0.60752  -0.58618  -0.53201  -0.51691  -0.50931
 Alpha  occ. eigenvalues --   -0.46698  -0.45265  -0.44497  -0.41906  -0.40499
 Alpha  occ. eigenvalues --   -0.39286  -0.39216  -0.36225  -0.34470  -0.33061
 Alpha  occ. eigenvalues --   -0.30390  -0.27144  -0.25009  -0.23803
 Alpha virt. eigenvalues --    0.07064   0.08018   0.09656   0.10524   0.11561
 Alpha virt. eigenvalues --    0.11920   0.14480   0.15024   0.15584   0.16004
 Alpha virt. eigenvalues --    0.17384   0.18365   0.18467   0.19739   0.20666

 Mulliken charges:
               1
     1  C   -0.426237
     2  C   -0.039008
     3  C    0.080473
     4  O   -0.321442
     5  C    0.364286
     6  C   -0.136389
     7  O   -0.275434
     8  C   -0.129552
     9  C   -0.216651
    10  H    0.125817
    11  H    0.125927
    12  H    0.118155
    13  H    0.092005
    14  H    0.106182
    15  H    0.103513
    16  H    0.110289
    17  H    0.105148
    18  H    0.110953
    19  H    0.101964
 Sum of Mulliken charges =   0.00000

 Dipole moment (field-independent basis, Debye):
    X=              2.4075    Y=             -0.2074    Z=              0.9522  Tot=              2.5973
 Quadrupole moment (field-independent basis, Debye-Ang):
   XX=            -56.5687   YY=            -53.3912   ZZ=            -52.1769
   XY=             -1.8591   XZ=              0.7741   YZ=              2.9097

  Exact polarizability:  89.751  -2.266  69.588  -1.118   3.019  67.015
 Approx polarizability: 112.272  -0.315 106.832  -3.225   0.378 103.093

                      1                      2                      3
                      A                      A                      A
 Frequencies --     80.6191               118.3074               192.2305
 Red. masses --      4.2552                 3.0739                 1.2719
 Frc consts  --      0.0163                 0.0253                 0.0277
 IR Inten    --      4.0779                 0.3994                 0.0071

                      4                      5                      6
                      A                      A                      A
 Frequencies --    225.7131               251.6462               301.6461
 Red. masses --      2.1390                 1.8773                 2.9236
 Frc consts  --      0.0642                 0.0700                 0.1567
 IR Inten    --      2.1229                 0.3466                 1.4941

                      7                      8                      9
                      A                      A                      A
 Frequencies --    367.0030               433.4089               480.8458
 Red. masses --      2.5621                 3.8300                 4.1168
 Frc consts  --      0.2033                 0.4239                 0.5608
 IR Inten    --      0.9724                 0.5975                 7.3230

                     10                     11                     12
                      A                      A                      A
 Frequencies --    553.8991               788.5171               803.0065
 Red. masses --      4.5220                 1.6101                 3.2442
 Frc consts  --      0.8174                 0.5898                 1.2325
 IR Inten    --      2.4694                10.7337                10.0994

                     13                     14                     15
                      A                      A                      A
 Frequencies --    855.6228               871.4341               896.7287
 Red. masses --      1.9076                 2.8515                 2.2701
 Frc consts  --      0.8228                 1.2758                 1.0755
 IR Inten    --      0.7531                19.4003                12.3131

                     16                     17                     18
                      A                      A                      A
 Frequencies --    906.3774               937.5666               984.1359
 Red. masses --      2.3038                 1.3438                 4.1893
 Frc consts  --      1.1151                 0.6959                 2.3906
 IR Inten    --     18.0763                 0.1603                 0.4896

                     19                     20                     21
                      A                      A                      A
 Frequencies --   1016.8597              1025.0784              1026.3068
 Red. masses --      2.2942                 1.4740                 7.1658
 Frc consts  --      1.3977                 0.9126                 4.4470
 IR Inten    --     34.7530                12.6366                64.8297

                     22                     23                     24
                      A                      A                      A
 Frequencies --   1037.2851              1045.5723              1099.5010
 Red. masses --      2.2743                 2.1673                 2.4386
 Frc consts  --      1.4417                 1.3960                 1.7369
 IR Inten    --     12.0264                59.8998                 3.1944

                     25                     26                     27
                      A                      A                      A
 Frequencies --   1127.8162              1141.2954              1147.3165
 Red. masses --      2.2785                 1.6414                 1.0791
 Frc consts  --      1.7075                 1.2597                 0.8369
 IR Inten    --      7.3048                 1.3450                 0.0965

                     28                     29                     30
                      A                      A                      A
 Frequencies --   1153.1965              1172.9762              1193.8220
 Red. masses --      1.5353                 2.4000                 1.5019
 Frc consts  --      1.2029                 1.9455                 1.2612
 IR Inten    --      4.7911                47.9512                 7.7822

                     31                     32                     33
                      A                      A                      A
 Frequencies --   1235.5751              1290.3768              1296.5507
 Red. masses --      2.1180                 1.3954                 1.3611
 Frc consts  --      1.9051                 1.3689                 1.3481
 IR Inten    --      3.0064                 8.2129                 2.2009

                     34                     35                     36
                      A                      A                      A
 Frequencies --   1311.4675              1384.1792              1416.2514
 Red. masses --      2.2498                 2.0201                 1.6407
 Frc consts  --      2.2799                 2.2804                 1.9390
 IR Inten    --     21.8061                 9.4613                 2.7666

                     37                     38                     39
                      A                      A                      A
 Frequencies --   1417.0319              1493.4050              1494.9750
 Red. masses --      1.7409                 1.0466                 1.0778
 Frc consts  --      2.0595                 1.3752                 1.4192
 IR Inten    --      1.0327                 2.3872                 0.2037

                     40                     41                     42
                      A                      A                      A
 Frequencies --   1502.7364              1521.9241              3008.9943
 Red. masses --      1.0728                 1.1140                 1.0525
 Frc consts  --      1.4274                 1.5203                 5.6146
 IR Inten    --      5.4833                 1.7014                90.3194

                     43                     44                     45
                      A                      A                      A
 Frequencies --   3020.8123              3030.5391              3065.7778
 Red. masses --      1.0580                 1.0351                 1.1108
 Frc consts  --      5.6883                 5.6009                 6.1511
 IR Inten    --      4.1333                30.6038                29.3314

                     46                     47                     48
                      A                      A                      A
 Frequencies --   3067.3724              3093.8444              3099.0692
 Red. masses --      1.1103                 1.0990                 1.1017
 Frc consts  --      6.1549                 6.1979                 6.2339
 IR Inten    --     33.3348                13.3308                19.8698

                     49                     50                     51
                      A                      A                      A
 Frequencies --   3121.4698              3179.5440              3198.9082
 Red. masses --      1.0898                 1.0903                 1.0973
 Frc consts  --      6.2563                 6.4940                 6.6160
 IR Inten    --     24.3722                19.8171                 8.5981

 - Thermochemistry -
 -------------------
 Temperature   298.150 Kelvin.  Pressure   1.00000 Atm.
 Atom     1 has atomic number  6 and mass  12.00000

 Molecular mass:   126.06808 amu.
 Principal axes and moments of inertia in atomic units:
                           1         2         3
     Eigenvalues --   430.821361675.123471784.33626
           X            0.99982  -0.01863   0.00461
           Y            0.01791   0.99203   0.12471
           Z           -0.00690  -0.12460   0.99218
 This molecule is an asymmetric top.
 Rotational symmetry number  1.
 Rotational temperatures (Kelvin)      0.20104     0.05171     0.04854
 Rotational constants (GHZ):           4.18907     1.07738     1.01144
 Zero-point vibrational energy     415621.8 (Joules/Mol)
                                   99.33599 (Kcal/Mol)
 Warning -- explicit consideration of  10 degrees of freedom as
           vibrations may cause significant error
 Vibrational temperatures:    115.99   170.22   276.58   324.75   362.06
          (Kelvin)            434.00   528.03   623.58   691.83   796.94
                             1134.50  1155.35  1231.05  1253.80  1290.19
                             1304.07  1348.95  1415.95  1463.03  1474.86
                             1476.62  1492.42  1504.34  1581.93  1622.67
                             1642.07  1650.73  1659.19  1687.65  1717.64
                             1777.71  1856.56  1865.45  1886.91  1991.52
                             2037.67  2038.79  2148.67  2150.93  2162.10
                             2189.71  4329.27  4346.27  4360.26  4410.96
                             4413.26  4451.35  4458.86  4491.09  4574.65
                             4602.51

 Zero-point correction=                           0.158302 (Hartree/Particle)
 Thermal correction to Energy=                    0.166526
 Thermal correction to Enthalpy=                  0.167470
 Thermal correction to Gibbs Free Energy=         0.125316
 Sum of electronic and zero-point Energies=           -422.959502
 Sum of electronic and thermal Energies=              -422.951277
 Sum of electronic and thermal Enthalpies=            -422.950333
 Sum of electronic and thermal Free Energies=         -422.992488

                     E (Thermal)             CV                S
                      KCal/Mol        Cal/Mol-Kelvin    Cal/Mol-Kelvin
 Total                  104.497             31.223             88.721
 Electronic               0.000              0.000              0.000
 Translational            0.889              2.981             40.409
 Rotational               0.889              2.981             28.645
 Vibrational            102.719             25.262             19.668
 Vibration     1          0.600              1.962              3.876
 Vibration     2          0.608              1.934              3.128
 Vibration     3          0.634              1.851              2.206
 Vibration     4          0.650              1.802              1.913
 Vibration     5          0.664              1.760              1.719
 Vibration     6          0.694              1.671              1.408
 Vibration     7          0.740              1.540              1.092
 Vibration     8          0.794              1.397              0.848
 Vibration     9          0.837              1.293              0.708
 Vibration    10          0.909              1.131              0.536

 Normal termination of Gaussian 09 at Tue Jan 28 00:23:55 2020.
