 Gaussian 09, Revision D.01,
 Gaussian 09:  ES64L-G09RevD.01 24-Apr-2013

 -----------------------------
 # b3lyp 6-31G(2df,p) opt Freq
 -----------------------------

 -----
 titel
 -----
 Symbolic Z-matrix:
 Charge =  0 Multiplicity = 1

 SCF Done:  E(RB3LYP) =  -423.187777226     A.U. after   14 cycles
 Optimization completed.
    -- Stationary point found.
 Normal termination of Gaussian 09 at Tue Jan 28 14:28:08 2020.

 ----------------------------------------------------------------------
 #N Geom=AllCheck Guess=TCheck SCRF=Check GenChk RB3LYP/6-31G(2df,p) Fr
 eq
 ----------------------------------------------------------------------

 Structure from the checkpoint file:  "/scratch/puck/g09_8062e497-4099-491e-98b9-2e82218e7176/Gau-35074.chk"
 -----
 titel
 -----
 Charge =  0 Multiplicity = 1

                         Standard orientation:
 ---------------------------------------------------------------------
 Center     Atomic      Atomic             Coordinates (Angstroms)
 Number     Number       Type             X           Y           Z
 ---------------------------------------------------------------------
      1          6           0       -3.762066    0.546586   -0.079471
      2          6           0       -2.279282    0.831733    0.174692
      3          6           0       -1.418817   -0.397338   -0.064717
      4          8           0       -0.047646   -0.032246    0.198261
      5          6           0        0.861489   -0.995911    0.009184
      6          8           0        0.607961   -2.118468   -0.344951
      7          6           0        2.275282   -0.521142    0.352635
      8          6           0        2.582828    0.857452    0.003466
      9          6           0        2.864748    1.987103   -0.290207
     10          1           0       -3.936276    0.227358   -1.112708
     11          1           0       -4.135845   -0.244575    0.579559
     12          1           0       -4.366478    1.440218    0.098505
     13          1           0       -1.930218    1.640241   -0.477346
     14          1           0       -2.129881    1.173941    1.205051
     15          1           0       -1.697614   -1.226617    0.594464
     16          1           0       -1.497248   -0.758007   -1.095706
     17          1           0        2.399598   -0.668863    1.434440
     18          1           0        2.963217   -1.217231   -0.135346
     19          1           0        3.103135    2.988354   -0.550885
 ---------------------------------------------------------------------

 SCF Done:  E(RB3LYP) =  -423.187777226     A.U. after    1 cycles

 The electronic state is 1-A.
 Alpha  occ. eigenvalues --  -19.18545 -19.12822 -10.31227 -10.24010 -10.22400
 Alpha  occ. eigenvalues --  -10.19065 -10.18735 -10.18384 -10.17539  -1.10574
 Alpha  occ. eigenvalues --   -1.01773  -0.81056  -0.78690  -0.72243  -0.69372
 Alpha  occ. eigenvalues --   -0.60583  -0.57435  -0.54092  -0.50239  -0.49712
 Alpha  occ. eigenvalues --   -0.47609  -0.46830  -0.44068  -0.42727  -0.42562
 Alpha  occ. eigenvalues --   -0.37961  -0.37417  -0.36862  -0.34303  -0.34210
 Alpha  occ. eigenvalues --   -0.30394  -0.29230  -0.26915  -0.25799
 Alpha virt. eigenvalues --    0.01079   0.04987   0.05471   0.08604   0.10074
 Alpha virt. eigenvalues --    0.12499   0.13182   0.13548   0.14593   0.15822
 Alpha virt. eigenvalues --    0.17450   0.18194   0.18725   0.19584   0.21581

 Mulliken charges:
               1
     1  C   -0.384897
     2  C   -0.189982
     3  C   -0.045020
     4  O   -0.227470
     5  C    0.444654
     6  O   -0.357452
     7  C   -0.467557
     8  C    0.322174
     9  C   -0.452386
    10  H    0.121494
    11  H    0.120747
    12  H    0.121627
    13  H    0.114107
    14  H    0.110944
    15  H    0.120453
    16  H    0.123530
    17  H    0.161664
    18  H    0.163389
    19  H    0.199981
 Sum of Mulliken charges =   0.00000

 Dipole moment (field-independent basis, Debye):
    X=             -0.9056    Y=              1.4633    Z=              0.6217  Tot=              1.8297
 Quadrupole moment (field-independent basis, Debye-Ang):
   XX=            -48.2578   YY=            -55.9702   ZZ=            -52.1965
   XY=              0.4799   XZ=              0.7116   YZ=             -3.0486

  Exact polarizability:  88.369   4.781  88.564  -0.366  -3.014  57.917
 Approx polarizability: 100.801   9.625 144.756  -1.487  -5.173  89.084

                      1                      2                      3
                      A                      A                      A
 Frequencies --     18.8485                47.9010                70.9089
 Red. masses --      2.8395                 3.7141                 2.2109
 Frc consts  --      0.0006                 0.0050                 0.0065
 IR Inten    --      1.0944                 0.4454                 0.5093

                      4                      5                      6
                      A                      A                      A
 Frequencies --     95.9128               155.8321               200.0471
 Red. masses --      3.1495                 3.7717                 3.2241
 Frc consts  --      0.0171                 0.0540                 0.0760
 IR Inten    --      0.6714                 0.9117                 2.9224

                      7                      8                      9
                      A                      A                      A
 Frequencies --    237.3928               293.1714               327.8245
 Red. masses --      1.0931                 3.6235                 3.1712
 Frc consts  --      0.0363                 0.1835                 0.2008
 IR Inten    --      0.0099                 1.6152                 5.2146

                     10                     11                     12
                      A                      A                      A
 Frequencies --    331.5388               437.4283               483.9110
 Red. masses --      4.3991                 4.6936                 5.7098
 Frc consts  --      0.2849                 0.5291                 0.7878
 IR Inten    --     11.9239                 3.0652                 1.3975

                     13                     14                     15
                      A                      A                      A
 Frequencies --    590.4373               626.5426               647.3959
 Red. masses --      3.6319                 1.2200                 1.2645
 Frc consts  --      0.7460                 0.2822                 0.3123
 IR Inten    --      3.1421                43.9809                41.6391

                     16                     17                     18
                      A                      A                      A
 Frequencies --    722.5641               760.1258               890.5691
 Red. masses --      4.2992                 1.0794                 1.2657
 Frc consts  --      1.3225                 0.3675                 0.5914
 IR Inten    --     19.1965                 1.4940                 2.0099

                     19                     20                     21
                      A                      A                      A
 Frequencies --    892.9612               922.2738               954.4694
 Red. masses --      3.1693                 2.0281                 2.5352
 Frc consts  --      1.4889                 1.0164                 1.3608
 IR Inten    --      5.1826                13.7876                 2.5923

                     22                     23                     24
                      A                      A                      A
 Frequencies --    997.0333              1030.6928              1056.6420
 Red. masses --      3.1628                 5.1820                 2.8670
 Frc consts  --      1.8524                 3.2435                 1.8860
 IR Inten    --      0.7930                47.5682                36.2357

                     25                     26                     27
                      A                      A                      A
 Frequencies --   1148.3362              1188.8060              1208.7832
 Red. masses --      2.2774                 1.6293                 1.2948
 Frc consts  --      1.7694                 1.3567                 1.1147
 IR Inten    --      1.1885                 1.2663                96.1940

                     28                     29                     30
                      A                      A                      A
 Frequencies --   1269.0039              1283.8500              1313.9593
 Red. masses --      1.2052                 3.3631                 1.0885
 Frc consts  --      1.1435                 3.2660                 1.1072
 IR Inten    --      0.7857               393.0432                 0.2334

                     31                     32                     33
                      A                      A                      A
 Frequencies --   1317.3869              1336.5758              1413.8553
 Red. masses --      1.4717                 1.4478                 1.3373
 Frc consts  --      1.5048                 1.5239                 1.5751
 IR Inten    --      8.5172                 7.6600                 4.7497

                     34                     35                     36
                      A                      A                      A
 Frequencies --   1423.0318              1448.6138              1491.8058
 Red. masses --      1.4202                 1.0901                 1.0562
 Frc consts  --      1.6945                 1.3478                 1.3849
 IR Inten    --      1.6978                 2.9275                 0.9313

                     37                     38                     39
                      A                      A                      A
 Frequencies --   1501.2577              1504.4527              1519.9540
 Red. masses --      1.0397                 1.0754                 1.0937
 Frc consts  --      1.3807                 1.4341                 1.4887
 IR Inten    --      5.3200                 0.1798                 7.1627

                     40                     41                     42
                      A                      A                      A
 Frequencies --   1821.6516              2247.7642              3024.6573
 Red. masses --     11.9369                 5.9150                 1.0675
 Frc consts  --     23.3385                17.6079                 5.7542
 IR Inten    --    261.4357                 1.5460                 6.7796

                     43                     44                     45
                      A                      A                      A
 Frequencies --   3034.8025              3038.6487              3047.7197
 Red. masses --      1.0373                 1.0584                 1.0567
 Frc consts  --      5.6285                 5.7581                 5.7828
 IR Inten    --     15.6550                 1.7660                44.1090

                     46                     47                     48
                      A                      A                      A
 Frequencies --   3068.2176              3090.7155              3093.9143
 Red. masses --      1.1021                 1.1057                 1.0915
 Frc consts  --      6.1127                 6.2231                 6.1559
 IR Inten    --      0.1211                 1.5851                 2.1588

                     49                     50                     51
                      A                      A                      A
 Frequencies --   3107.1838              3112.9938              3506.5645
 Red. masses --      1.1047                 1.1005                 1.1632
 Frc consts  --      6.2840                 6.2836                 8.4268
 IR Inten    --     65.4510                27.0071                64.5263

 - Thermochemistry -
 -------------------
 Temperature   298.150 Kelvin.  Pressure   1.00000 Atm.
 Atom     1 has atomic number  6 and mass  12.00000

 Molecular mass:   126.06808 amu.
 Principal axes and moments of inertia in atomic units:
                           1         2         3
     Eigenvalues --   674.655612191.173482774.76171
           X            0.99993  -0.01131   0.00317
           Y            0.01135   0.99986  -0.01189
           Z           -0.00304   0.01192   0.99992
 This molecule is an asymmetric top.
 Rotational symmetry number  1.
 Warning -- assumption of classical behavior for rotation
           may cause significant error
 Rotational temperatures (Kelvin)      0.12838     0.03953     0.03121
 Rotational constants (GHZ):           2.67506     0.82364     0.65041
 Zero-point vibrational energy     408865.2 (Joules/Mol)
                                   97.72114 (Kcal/Mol)
 Warning -- explicit consideration of  13 degrees of freedom as
           vibrations may cause significant error
 Vibrational temperatures:     27.12    68.92   102.02   138.00   224.21
          (Kelvin)            287.82   341.55   421.81   471.67   477.01
                              629.36   696.24   849.51   901.45   931.46
                             1039.61  1093.65  1281.33  1284.77  1326.94
                             1373.27  1434.51  1482.94  1520.27  1652.20
                             1710.42  1739.17  1825.81  1847.17  1890.49
                             1895.42  1923.03  2034.22  2047.42  2084.23
                             2146.37  2159.97  2164.57  2186.87  2620.95
                             3234.03  4351.80  4366.40  4371.93  4384.98
                             4414.48  4446.84  4451.45  4470.54  4478.90
                             5045.16

 Zero-point correction=                           0.155729 (Hartree/Particle)
 Thermal correction to Energy=                    0.166340
 Thermal correction to Enthalpy=                  0.167284
 Thermal correction to Gibbs Free Energy=         0.117629
 Sum of electronic and zero-point Energies=           -423.032049
 Sum of electronic and thermal Energies=              -423.021438
 Sum of electronic and thermal Enthalpies=            -423.020493
 Sum of electronic and thermal Free Energies=         -423.070149

                     E (Thermal)             CV                S
                      KCal/Mol        Cal/Mol-Kelvin    Cal/Mol-Kelvin
 Total                  104.380             36.390            104.508
 Electronic               0.000              0.000              0.000
 Translational            0.889              2.981             40.409
 Rotational               0.889              2.981             29.796
 Vibrational            102.602             30.429             34.303
 Vibration     1          0.593              1.986              6.752
 Vibration     2          0.595              1.978              4.902
 Vibration     3          0.598              1.968              4.128
 Vibration     4          0.603              1.952              3.536
 Vibration     5          0.620              1.896              2.600
 Vibration     6          0.638              1.840              2.133
 Vibration     7          0.656              1.783              1.822
 Vibration     8          0.688              1.686              1.456
 Vibration     9          0.711              1.620              1.271
 Vibration    10          0.714              1.613              1.253
 Vibration    11          0.798              1.389              0.835
 Vibration    12          0.840              1.286              0.700
 Vibration    13          0.948              1.052              0.466

 Optimization completed.
    -- Stationary point found.
 Normal termination of Gaussian 09 at Tue Jan 28 14:59:17 2020.
