 Gaussian 09, Revision D.01,
 Gaussian 09:  ES64L-G09RevD.01 24-Apr-2013

 -----------------------------
 # b3lyp 6-31G(2df,p) opt Freq
 -----------------------------

 -----
 titel
 -----
 Symbolic Z-matrix:
 Charge =  0 Multiplicity = 1

 SCF Done:  E(RB3LYP) =  -423.226695264     A.U. after   14 cycles
 Optimization completed.
    -- Stationary point found.
 Normal termination of Gaussian 09 at Tue Jan 28 12:09:16 2020.

 ----------------------------------------------------------------------
 #N Geom=AllCheck Guess=TCheck SCRF=Check GenChk RB3LYP/6-31G(2df,p) Fr
 eq
 ----------------------------------------------------------------------

 Structure from the checkpoint file:  "/scratch/puck/g09_c1a44005-c85e-4342-9b42-8c7cbed2be3e/Gau-128790.chk"
 -----
 titel
 -----
 Charge =  0 Multiplicity = 1

                         Standard orientation:
 ---------------------------------------------------------------------
 Center     Atomic      Atomic             Coordinates (Angstroms)
 Number     Number       Type             X           Y           Z
 ---------------------------------------------------------------------
      1          6           0        2.722444   -0.710234   -0.675155
      2          6           0        1.863023   -0.811631    0.602176
      3          6           0        0.438479   -0.407004    0.371651
      4          6           0       -0.604387   -1.207887    0.101262
      5          6           0       -1.843165   -0.431753   -0.107096
      6          8           0       -2.959459   -0.861169   -0.284757
      7          6           0       -1.444281    1.051790   -0.052652
      8          6           0        0.007304    1.048761    0.460977
      9          8           0        0.912161    1.856920   -0.282112
     10          1           0        3.753832   -1.004994   -0.459770
     11          1           0        2.334207   -1.371557   -1.455500
     12          1           0        2.719937    0.311330   -1.058538
     13          1           0        1.890855   -1.840047    0.978342
     14          1           0        2.300127   -0.169679    1.376317
     15          1           0       -0.585247   -2.289889    0.046029
     16          1           0       -1.464028    1.458011   -1.069554
     17          1           0       -2.148162    1.624751    0.555837
     18          1           0        0.039804    1.344526    1.523250
     19          1           0        0.700556    2.779285   -0.108445
 ---------------------------------------------------------------------

 SCF Done:  E(RB3LYP) =  -423.226695264     A.U. after    1 cycles

 The electronic state is 1-A.
 Alpha  occ. eigenvalues --  -19.15176 -19.11590 -10.25928 -10.25071 -10.21418
 Alpha  occ. eigenvalues --  -10.19748 -10.18729 -10.18725 -10.17949  -1.03428
 Alpha  occ. eigenvalues --   -1.02586  -0.85229  -0.77737  -0.71844  -0.67848
 Alpha  occ. eigenvalues --   -0.62684  -0.55127  -0.53806  -0.52732  -0.47803
 Alpha  occ. eigenvalues --   -0.45456  -0.44173  -0.42317  -0.40758  -0.40001
 Alpha  occ. eigenvalues --   -0.39536  -0.38175  -0.37197  -0.35411  -0.35151
 Alpha  occ. eigenvalues --   -0.32319  -0.29278  -0.26580  -0.23374
 Alpha virt. eigenvalues --   -0.04356   0.04855   0.07902   0.10693   0.10857
 Alpha virt. eigenvalues --    0.13035   0.13723   0.15588   0.16363   0.16663
 Alpha virt. eigenvalues --    0.17944   0.18739   0.19786   0.20835   0.23908

 Mulliken charges:
               1
     1  C   -0.376147
     2  C   -0.286588
     3  C    0.332481
     4  C   -0.298209
     5  C    0.391063
     6  O   -0.332702
     7  C   -0.371328
     8  C    0.014763
     9  O   -0.426180
    10  H    0.114189
    11  H    0.121545
    12  H    0.149911
    13  H    0.110869
    14  H    0.110251
    15  H    0.109740
    16  H    0.138533
    17  H    0.120796
    18  H    0.087041
    19  H    0.289972
 Sum of Mulliken charges =   0.00000

 Dipole moment (field-independent basis, Debye):
    X=              2.8124    Y=              1.8855    Z=              1.2967  Tot=              3.6258
 Quadrupole moment (field-independent basis, Debye-Ang):
   XX=            -64.6916   YY=            -46.6370   ZZ=            -52.8435
   XY=             -5.8597   XZ=             -0.3147   YZ=              0.8779

  Exact polarizability: 103.755   3.170  80.175   3.672   1.732  57.485
 Approx polarizability: 155.526  17.424 117.988  10.283   4.685  89.217

                      1                      2                      3
                      A                      A                      A
 Frequencies --     69.0078                81.2472               133.0751
 Red. masses --      2.5412                 3.3219                 3.6112
 Frc consts  --      0.0071                 0.0129                 0.0377
 IR Inten    --      0.1381                 3.6702                 0.5688

                      4                      5                      6
                      A                      A                      A
 Frequencies --    203.6717               239.1657               261.2744
 Red. masses --      1.4834                 2.6759                 1.0661
 Frc consts  --      0.0363                 0.0902                 0.0429
 IR Inten    --      0.2584                 4.3706                90.4558

                      7                      8                      9
                      A                      A                      A
 Frequencies --    286.4824               350.5082               395.1432
 Red. masses --      2.2792                 4.6690                 2.8427
 Frc consts  --      0.1102                 0.3380                 0.2615
 IR Inten    --      2.1694                11.7684                 4.8158

                     10                     11                     12
                      A                      A                      A
 Frequencies --    514.0349               534.8939               557.4282
 Red. masses --      2.6085                 3.0642                 5.3928
 Frc consts  --      0.4061                 0.5165                 0.9873
 IR Inten    --      1.9766                 3.2533                 0.1703

                     13                     14                     15
                      A                      A                      A
 Frequencies --    630.4461               688.9767               789.4746
 Red. masses --      3.8770                 3.4786                 1.4318
 Frc consts  --      0.9079                 0.9729                 0.5258
 IR Inten    --      2.3563                 6.1812                 3.0561

                     16                     17                     18
                      A                      A                      A
 Frequencies --    819.2509               848.0433               904.8042
 Red. masses --      2.1704                 2.7156                 1.4334
 Frc consts  --      0.8583                 1.1507                 0.6914
 IR Inten    --      6.9446                 3.0640                 8.5630

                     19                     20                     21
                      A                      A                      A
 Frequencies --    929.9955               969.1682              1019.4602
 Red. masses --      2.5133                 2.1695                 2.8972
 Frc consts  --      1.2807                 1.2006                 1.7741
 IR Inten    --      4.3281                 8.1990                10.8160

                     22                     23                     24
                      A                      A                      A
 Frequencies --   1068.4287              1085.8896              1101.4838
 Red. masses --      1.9665                 1.6231                 2.4837
 Frc consts  --      1.3226                 1.1276                 1.7755
 IR Inten    --     46.3651                 8.2006                37.2356

                     25                     26                     27
                      A                      A                      A
 Frequencies --   1147.7593              1181.1153              1194.4768
 Red. masses --      1.9993                 1.6528                 2.0479
 Frc consts  --      1.5518                 1.3585                 1.7216
 IR Inten    --     21.0561                19.8725                55.4266

                     28                     29                     30
                      A                      A                      A
 Frequencies --   1220.7914              1249.6422              1266.3670
 Red. masses --      1.1146                 1.6528                 1.4886
 Frc consts  --      0.9787                 1.5207                 1.4065
 IR Inten    --     50.8890                14.8570                15.3362

                     31                     32                     33
                      A                      A                      A
 Frequencies --   1322.8962              1343.4145              1354.0762
 Red. masses --      1.4792                 1.3738                 1.6053
 Frc consts  --      1.5252                 1.4608                 1.7342
 IR Inten    --     51.7498                 0.8570                 5.1423

                     34                     35                     36
                      A                      A                      A
 Frequencies --   1404.9179              1420.5267              1453.2526
 Red. masses --      1.2359                 1.5218                 1.1224
 Frc consts  --      1.4373                 1.8092                 1.3967
 IR Inten    --      1.2347                10.4515                 4.6392

                     37                     38                     39
                      A                      A                      A
 Frequencies --   1485.5632              1496.1138              1513.7325
 Red. masses --      1.0811                 1.0470                 1.0669
 Frc consts  --      1.4058                 1.3807                 1.4404
 IR Inten    --      3.5836                 5.4109                 1.8258

                     40                     41                     42
                      A                      A                      A
 Frequencies --   1675.5516              1814.9591              2955.5581
 Red. masses --      7.8372                12.3577                 1.0820
 Frc consts  --     12.9637                23.9839                 5.5688
 IR Inten    --     53.2375               323.1481                38.6079

                     43                     44                     45
                      A                      A                      A
 Frequencies --   3031.5613              3045.7515              3058.9735
 Red. masses --      1.0587                 1.0363                 1.0610
 Frc consts  --      5.7328                 5.6643                 5.8497
 IR Inten    --     23.6564                31.3273                 5.4120

                     46                     47                     48
                      A                      A                      A
 Frequencies --   3074.1014              3113.2087              3113.6869
 Red. masses --      1.1023                 1.1024                 1.1024
 Frc consts  --      6.1377                 6.2949                 6.2972
 IR Inten    --     15.1257                29.1678                12.8983

                     49                     50                     51
                      A                      A                      A
 Frequencies --   3147.4729              3208.5927              3823.8585
 Red. masses --      1.1007                 1.0955                 1.0665
 Frc consts  --      6.4244                 6.6452                 9.1874
 IR Inten    --     10.9750                 4.5414                27.0486

 - Thermochemistry -
 -------------------
 Temperature   298.150 Kelvin.  Pressure   1.00000 Atm.
 Atom     1 has atomic number  6 and mass  12.00000

 Molecular mass:   126.06808 amu.
 Principal axes and moments of inertia in atomic units:
                           1         2         3
     Eigenvalues --   649.095391525.387411981.42374
           X            0.99876  -0.04927  -0.00730
           Y            0.04934   0.99874   0.00905
           Z            0.00684  -0.00940   0.99993
 This molecule is an asymmetric top.
 Rotational symmetry number  1.
 Warning -- assumption of classical behavior for rotation
           may cause significant error
 Rotational temperatures (Kelvin)      0.13344     0.05678     0.04371
 Rotational constants (GHZ):           2.78039     1.18314     0.91083
 Zero-point vibrational energy     416296.1 (Joules/Mol)
                                   99.49716 (Kcal/Mol)
 Warning -- explicit consideration of  12 degrees of freedom as
           vibrations may cause significant error
 Vibrational temperatures:     99.29   116.90   191.47   293.04   344.11
          (Kelvin)            375.92   412.18   504.30   568.52   739.58
                              769.59   802.01   907.07   991.28  1135.88
                             1178.72  1220.14  1301.81  1338.05  1394.42
                             1466.77  1537.23  1562.35  1584.79  1651.37
                             1699.36  1718.58  1756.44  1797.95  1822.02
                             1903.35  1932.87  1948.21  2021.36  2043.82
                             2090.90  2137.39  2152.57  2177.92  2410.74
                             2611.32  4252.38  4361.74  4382.15  4401.18
                             4422.94  4479.21  4479.90  4528.51  4616.44
                             5501.67

 Zero-point correction=                           0.158559 (Hartree/Particle)
 Thermal correction to Energy=                    0.167772
 Thermal correction to Enthalpy=                  0.168716
 Thermal correction to Gibbs Free Energy=         0.124196
 Sum of electronic and zero-point Energies=           -423.068136
 Sum of electronic and thermal Energies=              -423.058923
 Sum of electronic and thermal Enthalpies=            -423.057979
 Sum of electronic and thermal Free Energies=         -423.102499

                     E (Thermal)             CV                S
                      KCal/Mol        Cal/Mol-Kelvin    Cal/Mol-Kelvin
 Total                  105.279             33.894             93.700
 Electronic               0.000              0.000              0.000
 Translational            0.889              2.981             40.409
 Rotational               0.889              2.981             29.063
 Vibrational            103.501             27.932             24.229
 Vibration     1          0.598              1.969              4.181
 Vibration     2          0.600              1.962              3.861
 Vibration     3          0.613              1.920              2.901
 Vibration     4          0.639              1.835              2.100
 Vibration     5          0.657              1.781              1.809
 Vibration     6          0.669              1.744              1.653
 Vibration     7          0.684              1.699              1.495
 Vibration     8          0.727              1.574              1.164
 Vibration     9          0.762              1.481              0.981
 Vibration    10          0.869              1.219              0.624
 Vibration    11          0.890              1.173              0.576
 Vibration    12          0.913              1.123              0.529

 Normal termination of Gaussian 09 at Tue Jan 28 13:00:20 2020.
