 Gaussian 09, Revision D.01,
 Gaussian 09:  ES64L-G09RevD.01 24-Apr-2013

 -----------------------------
 # b3lyp 6-31G(2df,p) opt Freq
 -----------------------------

 -----
 titel
 -----
 Symbolic Z-matrix:
 Charge =  0 Multiplicity = 1

 SCF Done:  E(RB3LYP) =  -423.083668579     A.U. after   14 cycles
 Optimization completed.
    -- Stationary point found.
 Normal termination of Gaussian 09 at Mon Jan 27 23:04:13 2020.

 ----------------------------------------------------------------------
 #N Geom=AllCheck Guess=TCheck SCRF=Check GenChk RB3LYP/6-31G(2df,p) Fr
 eq
 ----------------------------------------------------------------------

 Structure from the checkpoint file:  "/scratch/puck/g09_713a4543-f4a2-410a-8278-df9f492ef03c/Gau-29520.chk"
 -----
 titel
 -----
 Charge =  0 Multiplicity = 1

                         Standard orientation:
 ---------------------------------------------------------------------
 Center     Atomic      Atomic             Coordinates (Angstroms)
 Number     Number       Type             X           Y           Z
 ---------------------------------------------------------------------
      1          6           0       -2.071399    1.497684   -0.000108
      2          6           0       -1.752667    0.011769   -0.000008
      3          6           0       -0.663275   -0.641683    0.897973
      4          8           0       -0.698487   -1.825253    0.000006
      5          6           0       -0.663300   -0.641948   -0.897889
      6          6           0        0.464092   -0.085802    0.000034
      7          6           0        1.881540   -0.666973    0.000044
      8          8           0        2.454549    0.662501   -0.000228
      9          6           0        1.159228    1.287977    0.000110
     10          1           0       -2.667161    1.756756   -0.881864
     11          1           0       -2.667157    1.756830    0.881648
     12          1           0       -1.186459    2.136578   -0.000080
     13          1           0       -2.661548   -0.596093    0.000068
     14          1           0       -0.660458   -0.828236    1.973402
     15          1           0       -0.660406   -0.828441   -1.973327
     16          1           0        2.164483   -1.237686    0.892662
     17          1           0        2.164449   -1.238048   -0.892340
     18          1           0        1.000325    1.906825    0.893235
     19          1           0        1.000113    1.907389   -0.892568
 ---------------------------------------------------------------------

 SCF Done:  E(RB3LYP) =  -423.083668579     A.U. after    1 cycles

 The electronic state is 1-A.
 Alpha  occ. eigenvalues --  -19.13893 -19.13140 -10.25052 -10.25048 -10.23330
 Alpha  occ. eigenvalues --  -10.22638 -10.20881 -10.20460 -10.18831  -1.06242
 Alpha  occ. eigenvalues --   -1.03493  -0.80660  -0.74335  -0.69314  -0.68174
 Alpha  occ. eigenvalues --   -0.65822  -0.59187  -0.52739  -0.52524  -0.48485
 Alpha  occ. eigenvalues --   -0.46774  -0.44702  -0.43185  -0.41956  -0.40418
 Alpha  occ. eigenvalues --   -0.39094  -0.37873  -0.36469  -0.33054  -0.31387
 Alpha  occ. eigenvalues --   -0.31130  -0.30680  -0.24746  -0.24275
 Alpha virt. eigenvalues --    0.06548   0.08010   0.09469   0.10282   0.11933
 Alpha virt. eigenvalues --    0.12503   0.13654   0.13727   0.14066   0.16338
 Alpha virt. eigenvalues --    0.16539   0.17291   0.18213   0.19216   0.21444

 Mulliken charges:
               1
     1  C   -0.448457
     2  C    0.040932
     3  C   -0.055364
     4  O   -0.315144
     5  C   -0.055354
     6  C    0.368515
     7  C   -0.148998
     8  O   -0.282434
     9  C   -0.188456
    10  H    0.127014
    11  H    0.127008
    12  H    0.131009
    13  H    0.087452
    14  H    0.094025
    15  H    0.094006
    16  H    0.107851
    17  H    0.107873
    18  H    0.104249
    19  H    0.104274
 Sum of Mulliken charges =   0.00000

 Dipole moment (field-independent basis, Debye):
    X=             -1.8133    Y=              1.2849    Z=              0.0006  Tot=              2.2224
 Quadrupole moment (field-independent basis, Debye-Ang):
   XX=            -58.3883   YY=            -56.9243   ZZ=            -49.5329
   XY=             -4.6081   XZ=              0.0011   YZ=              0.0007

  Exact polarizability:  81.029  -4.379  75.841   0.001   0.002  68.241
 Approx polarizability: 107.701  -2.090 113.779  -0.001   0.005 107.506

                      1                      2                      3
                      A                      A                      A
 Frequencies --     95.6402               173.6626               180.4479
 Red. masses --      2.8118                 1.0965                 4.0884
 Frc consts  --      0.0152                 0.0195                 0.0784
 IR Inten    --      5.0565                 0.7565                 1.8312

                      4                      5                      6
                      A                      A                      A
 Frequencies --    192.2998               298.6861               332.4603
 Red. masses --      2.2988                 3.8194                 2.3706
 Frc consts  --      0.0501                 0.2008                 0.1544
 IR Inten    --      0.0035                 1.9941                 0.5069

                      7                      8                      9
                      A                      A                      A
 Frequencies --    344.4563               453.4698               602.9467
 Red. masses --      2.1610                 5.2527                 4.8459
 Frc consts  --      0.1511                 0.6364                 1.0380
 IR Inten    --      0.0083                 0.6171                 5.1748

                     10                     11                     12
                      A                      A                      A
 Frequencies --    628.0316               728.5839               791.3610
 Red. masses --      3.7158                 4.3896                 2.4712
 Frc consts  --      0.8635                 1.3729                 0.9118
 IR Inten    --      5.3142                10.0679                 0.0353

                     13                     14                     15
                      A                      A                      A
 Frequencies --    808.1481               860.8043               864.0780
 Red. masses --      1.9583                 3.9344                 2.9463
 Frc consts  --      0.7535                 1.7177                 1.2961
 IR Inten    --     11.4427                 8.9109                 7.7718

                     16                     17                     18
                      A                      A                      A
 Frequencies --    882.6305               961.2979               979.3264
 Red. masses --      3.3342                 1.3098                 4.2967
 Frc consts  --      1.5304                 0.7131                 2.4280
 IR Inten    --     33.8567                 0.2745                15.1126

                     19                     20                     21
                      A                      A                      A
 Frequencies --   1028.7043              1029.9948              1036.7100
 Red. masses --      1.1309                 2.1382                 3.2694
 Frc consts  --      0.7051                 1.3365                 2.0703
 IR Inten    --      0.5671                23.2974                68.4377

                     22                     23                     24
                      A                      A                      A
 Frequencies --   1085.3847              1114.7657              1124.9627
 Red. masses --      5.2425                 1.8209                 3.2993
 Frc consts  --      3.6388                 1.3332                 2.4601
 IR Inten    --      6.8418                 0.1061                 5.9456

                     25                     26                     27
                      A                      A                      A
 Frequencies --   1139.2464              1143.9729              1163.7392
 Red. masses --      1.3555                 1.2741                 1.1948
 Frc consts  --      1.0365                 0.9824                 0.9533
 IR Inten    --      4.2662                 2.6225                 0.9267

                     28                     29                     30
                      A                      A                      A
 Frequencies --   1168.3459              1192.6354              1219.8103
 Red. masses --      3.7338                 1.3516                 2.0268
 Frc consts  --      3.0030                 1.1327                 1.7769
 IR Inten    --      9.6213                 1.0207                 9.4914

                     31                     32                     33
                      A                      A                      A
 Frequencies --   1237.7079              1260.1723              1306.8350
 Red. masses --      1.6156                 1.4603                 1.3284
 Frc consts  --      1.4582                 1.3663                 1.3366
 IR Inten    --      7.0569                 4.4011                 1.1643

                     34                     35                     36
                      A                      A                      A
 Frequencies --   1326.4516              1385.1360              1400.4713
 Red. masses --      2.0995                 1.5800                 1.8808
 Frc consts  --      2.1764                 1.7860                 2.1734
 IR Inten    --      2.9629                 2.1085                 3.6693

                     37                     38                     39
                      A                      A                      A
 Frequencies --   1417.7343              1493.2701              1501.6405
 Red. masses --      1.3198                 1.0461                 1.0558
 Frc consts  --      1.5630                 1.3744                 1.4027
 IR Inten    --      7.2732                 2.4734                 2.8757

                     40                     41                     42
                      A                      A                      A
 Frequencies --   1507.3341              1531.7645              2999.3426
 Red. masses --      1.0814                 1.1103                 1.0536
 Frc consts  --      1.4476                 1.5348                 5.5842
 IR Inten    --      0.8885                 0.3255                87.1384

                     43                     44                     45
                      A                      A                      A
 Frequencies --   3020.9789              3040.1316              3041.3798
 Red. masses --      1.0569                 1.1101                 1.0395
 Frc consts  --      5.6828                 6.0448                 5.6652
 IR Inten    --     24.7137                33.7766                22.8713

                     46                     47                     48
                      A                      A                      A
 Frequencies --   3061.9807              3077.0122              3096.5953
 Red. masses --      1.1111                 1.0841                 1.1005
 Frc consts  --      6.1376                 6.0477                 6.2174
 IR Inten    --     33.6272                18.2189                16.6684

                     49                     50                     51
                      A                      A                      A
 Frequencies --   3102.1900              3108.7522              3136.1771
 Red. masses --      1.0897                 1.0957                 1.0964
 Frc consts  --      6.1786                 6.2388                 6.3538
 IR Inten    --     88.0846                 4.2283                28.0791

 - Thermochemistry -
 -------------------
 Temperature   298.150 Kelvin.  Pressure   1.00000 Atm.
 Atom     1 has atomic number  6 and mass  12.00000

 Molecular mass:   126.06808 amu.
 Principal axes and moments of inertia in atomic units:
                           1         2         3
     Eigenvalues --   630.210501185.980111587.78708
           X            0.99757  -0.06972   0.00001
           Y            0.06972   0.99757   0.00000
           Z           -0.00001   0.00000   1.00000
 This molecule is an asymmetric top.
 Rotational symmetry number  1.
 Warning -- assumption of classical behavior for rotation
           may cause significant error
 Rotational temperatures (Kelvin)      0.13744     0.07303     0.05455
 Rotational constants (GHZ):           2.86371     1.52173     1.13664
 Zero-point vibrational energy     416776.9 (Joules/Mol)
                                   99.61208 (Kcal/Mol)
 Warning -- explicit consideration of   9 degrees of freedom as
           vibrations may cause significant error
 Vibrational temperatures:    137.60   249.86   259.62   276.68   429.74
          (Kelvin)            478.34   495.60   652.44   867.50   903.60
                             1048.27  1138.59  1162.74  1238.50  1243.21
                             1269.91  1383.09  1409.03  1480.07  1481.93
                             1491.59  1561.62  1603.90  1618.57  1639.12
                             1645.92  1674.36  1680.99  1715.93  1755.03
                             1780.78  1813.10  1880.24  1908.47  1992.90
                             2014.96  2039.80  2148.48  2160.52  2168.71
                             2203.86  4315.38  4346.51  4374.07  4375.86
                             4405.50  4427.13  4455.30  4463.35  4472.80
                             4512.25

 Zero-point correction=                           0.158742 (Hartree/Particle)
 Thermal correction to Energy=                    0.166717
 Thermal correction to Enthalpy=                  0.167661
 Thermal correction to Gibbs Free Energy=         0.126212
 Sum of electronic and zero-point Energies=           -422.924927
 Sum of electronic and thermal Energies=              -422.916951
 Sum of electronic and thermal Enthalpies=            -422.916007
 Sum of electronic and thermal Free Energies=         -422.957456

                     E (Thermal)             CV                S
                      KCal/Mol        Cal/Mol-Kelvin    Cal/Mol-Kelvin
 Total                  104.617             30.703             87.237
 Electronic               0.000              0.000              0.000
 Translational            0.889              2.981             40.409
 Rotational               0.889              2.981             28.564
 Vibrational            102.839             24.741             18.265
 Vibration     1          0.603              1.952              3.541
 Vibration     2          0.627              1.875              2.395
 Vibration     3          0.629              1.866              2.324
 Vibration     4          0.634              1.851              2.206
 Vibration     5          0.692              1.676              1.424
 Vibration     6          0.714              1.611              1.248
 Vibration     7          0.723              1.587              1.191
 Vibration     8          0.812              1.353              0.785
 Vibration     9          0.961              1.026              0.445

 Optimization completed.
    -- Stationary point found.
 Normal termination of Gaussian 09 at Mon Jan 27 23:51:45 2020.
