 Gaussian 09, Revision D.01,
 Gaussian 09:  ES64L-G09RevD.01 24-Apr-2013

 -----------------------------
 # b3lyp 6-31G(2df,p) opt Freq
 -----------------------------

 -----
 titel
 -----
 Symbolic Z-matrix:
 Charge =  0 Multiplicity = 1

 SCF Done:  E(RB3LYP) =  -423.181057863     A.U. after   14 cycles
 Optimization completed.
    -- Stationary point found.
 Normal termination of Gaussian 09 at Mon Jan 27 14:01:26 2020.

 ----------------------------------------------------------------------
 #N Geom=AllCheck Guess=TCheck SCRF=Check GenChk RB3LYP/6-31G(2df,p) Fr
 eq
 ----------------------------------------------------------------------

 Structure from the checkpoint file:  "/scratch/puck/g09_171516e8-a3c8-4c13-a278-6965e3ca91db/Gau-3923.chk"
 -----
 titel
 -----
 Charge =  0 Multiplicity = 1

                         Standard orientation:
 ---------------------------------------------------------------------
 Center     Atomic      Atomic             Coordinates (Angstroms)
 Number     Number       Type             X           Y           Z
 ---------------------------------------------------------------------
      1          8           0        2.401210    1.105612    0.687474
      2          6           0        2.627146    0.421757   -0.274743
      3          8           0        1.985688   -0.694165   -0.637407
      4          6           0        0.897929   -1.141408    0.216404
      5          6           0       -0.434331   -0.664277   -0.292248
      6          6           0       -0.897308    0.703725    0.140976
      7          6           0       -2.210112    1.059624   -0.567402
      8          6           0       -2.865430   -0.229028    0.035603
      9          6           0       -1.537340   -0.555041    0.729444
     10          1           0        3.423930    0.619648   -1.008729
     11          1           0        0.967029   -2.231772    0.190216
     12          1           0        1.081904   -0.787749    1.233580
     13          1           0       -0.681825   -1.014208   -1.294587
     14          1           0       -0.205951    1.396713    0.602641
     15          1           0       -2.669706    1.972212   -0.182331
     16          1           0       -2.162537    1.128570   -1.659290
     17          1           0       -3.665961    0.008342    0.739363
     18          1           0       -3.234904   -0.978600   -0.672071
     19          1           0       -1.430481   -0.976851    1.722467
 ---------------------------------------------------------------------

 SCF Done:  E(RB3LYP) =  -423.181057864     A.U. after    1 cycles

 The electronic state is 1-A.
 Alpha  occ. eigenvalues --  -19.18710 -19.13302 -10.30794 -10.24371 -10.19549
 Alpha  occ. eigenvalues --  -10.19434 -10.18938 -10.18625 -10.18467  -1.10220
 Alpha  occ. eigenvalues --   -1.01993  -0.89818  -0.76798  -0.70297  -0.65321
 Alpha  occ. eigenvalues --   -0.60424  -0.57048  -0.53490  -0.52676  -0.50479
 Alpha  occ. eigenvalues --   -0.47219  -0.45744  -0.44993  -0.43336  -0.41484
 Alpha  occ. eigenvalues --   -0.38112  -0.37218  -0.35217  -0.33827  -0.32600
 Alpha  occ. eigenvalues --   -0.30449  -0.28384  -0.27583  -0.26003
 Alpha virt. eigenvalues --    0.00954   0.09669   0.10345   0.10609   0.11239
 Alpha virt. eigenvalues --    0.12022   0.14042   0.14835   0.15242   0.17190
 Alpha virt. eigenvalues --    0.17509   0.18535   0.19802   0.20851   0.23391

 Mulliken charges:
               1
     1  O   -0.307278
     2  C    0.191529
     3  O   -0.208568
     4  C   -0.123487
     5  C   -0.019821
     6  C   -0.043197
     7  C   -0.240511
     8  C   -0.239017
     9  C   -0.061120
    10  H    0.110837
    11  H    0.119573
    12  H    0.133545
    13  H    0.080559
    14  H    0.115314
    15  H    0.107411
    16  H    0.096533
    17  H    0.106604
    18  H    0.095957
    19  H    0.085139
 Sum of Mulliken charges =   0.00000

 Dipole moment (field-independent basis, Debye):
    X=             -0.9637    Y=             -1.2219    Z=             -0.6330  Tot=              1.6800
 Quadrupole moment (field-independent basis, Debye-Ang):
   XX=            -52.2215   YY=            -53.9116   ZZ=            -53.3652
   XY=             -2.4361   XZ=             -3.1685   YZ=             -2.7421

  Exact polarizability:  90.161   1.726  72.176  -2.900   0.074  66.070
 Approx polarizability: 110.136   4.005 113.204  -5.388   7.460 107.402

                      1                      2                      3
                      A                      A                      A
 Frequencies --     60.9684                86.8157               137.4045
 Red. masses --      5.0023                 4.1903                 3.5753
 Frc consts  --      0.0110                 0.0186                 0.0398
 IR Inten    --      1.7134                 1.4886                 1.0858

                      4                      5                      6
                      A                      A                      A
 Frequencies --    216.6807               265.7991               292.3517
 Red. masses --      3.7595                 1.8546                 2.3382
 Frc consts  --      0.1040                 0.0772                 0.1177
 IR Inten    --      1.0619                 0.4631                 9.2228

                      7                      8                      9
                      A                      A                      A
 Frequencies --    343.8904               392.2541               525.2774
 Red. masses --      2.5567                 4.4091                 2.9341
 Frc consts  --      0.1781                 0.3997                 0.4770
 IR Inten    --     16.5574                 4.0719                11.8367

                     10                     11                     12
                      A                      A                      A
 Frequencies --    715.8681               753.8090               776.2913
 Red. masses --      3.7066                 2.9493                 1.4140
 Frc consts  --      1.1192                 0.9874                 0.5021
 IR Inten    --      2.6487                 5.5457                 4.7263

                     13                     14                     15
                      A                      A                      A
 Frequencies --    805.8550               851.1425               918.9480
 Red. masses --      2.4467                 2.1710                 1.6282
 Frc consts  --      0.9362                 0.9267                 0.8101
 IR Inten    --      1.3513                 4.8683                 5.7185

                     16                     17                     18
                      A                      A                      A
 Frequencies --    924.3292               938.9625               965.5416
 Red. masses --      3.7354                 2.4788                 1.9374
 Frc consts  --      1.8804                 1.2876                 1.0642
 IR Inten    --     24.8909                 6.0986                 5.2380

                     19                     20                     21
                      A                      A                      A
 Frequencies --    998.9347              1022.4691              1039.8481
 Red. masses --      1.7637                 2.1329                 1.4489
 Frc consts  --      1.0369                 1.3137                 0.9230
 IR Inten    --      7.9251                 1.5579                 5.3927

                     22                     23                     24
                      A                      A                      A
 Frequencies --   1048.9688              1081.9296              1095.1442
 Red. masses --      1.4763                 1.7338                 1.9449
 Frc consts  --      0.9571                 1.1958                 1.3743
 IR Inten    --      1.1860                 5.0666                 4.7937

                     25                     26                     27
                      A                      A                      A
 Frequencies --   1121.7997              1155.2930              1186.2844
 Red. masses --      1.6621                 1.5217                 3.6672
 Frc consts  --      1.2323                 1.1966                 3.0407
 IR Inten    --      2.0247                 5.8155               283.7496

                     28                     29                     30
                      A                      A                      A
 Frequencies --   1220.9095              1225.1246              1242.4649
 Red. masses --      2.0818                 1.2178                 1.5404
 Frc consts  --      1.8284                 1.0769                 1.4011
 IR Inten    --     57.2113                 7.1245                 2.6856

                     31                     32                     33
                      A                      A                      A
 Frequencies --   1261.2994              1292.7062              1293.8150
 Red. masses --      1.3516                 1.7153                 1.3363
 Frc consts  --      1.2669                 1.6889                 1.3179
 IR Inten    --      0.4858                 6.3685                 8.3283

                     34                     35                     36
                      A                      A                      A
 Frequencies --   1326.5741              1398.6662              1411.1562
 Red. masses --      1.3280                 1.3443                 1.1747
 Frc consts  --      1.3770                 1.5494                 1.3783
 IR Inten    --     11.7865                 4.0949                 1.6187

                     37                     38                     39
                      A                      A                      A
 Frequencies --   1443.3256              1480.6592              1484.9345
 Red. masses --      2.1281                 1.0850                 1.1107
 Frc consts  --      2.6120                 1.4015                 1.4430
 IR Inten    --      3.2944                 0.1939                 9.0049

                     40                     41                     42
                      A                      A                      A
 Frequencies --   1501.5593              1813.8064              3027.5988
 Red. masses --      1.1235                 9.1400                 1.0898
 Frc consts  --      1.4925                17.7165                 5.8859
 IR Inten    --      0.3841               225.8778                73.6296

                     43                     44                     45
                      A                      A                      A
 Frequencies --   3042.6842              3050.9664              3066.9823
 Red. masses --      1.0619                 1.0641                 1.0573
 Frc consts  --      5.7923                 5.8360                 5.8599
 IR Inten    --     44.8109                61.9244                24.3150

                     46                     47                     48
                      A                      A                      A
 Frequencies --   3098.2862              3098.6194              3116.7203
 Red. masses --      1.0926                 1.0992                 1.1027
 Frc consts  --      6.1795                 6.2181                 6.3108
 IR Inten    --      8.7932                 4.5361                42.5566

                     49                     50                     51
                      A                      A                      A
 Frequencies --   3125.7111              3171.4452              3205.9159
 Red. masses --      1.1071                 1.0909                 1.0939
 Frc consts  --      6.3726                 6.4645                 6.6242
 IR Inten    --     16.1768                19.7268                 3.0449

 - Thermochemistry -
 -------------------
 Temperature   298.150 Kelvin.  Pressure   1.00000 Atm.
 Atom     1 has atomic number  8 and mass  15.99491

 Molecular mass:   126.06808 amu.
 Principal axes and moments of inertia in atomic units:
                           1         2         3
     Eigenvalues --   459.599751912.306502098.19250
           X            0.99996  -0.00876   0.00029
           Y            0.00876   0.99820  -0.05935
           Z            0.00023   0.05935   0.99824
 This molecule is an asymmetric top.
 Rotational symmetry number  1.
 Warning -- assumption of classical behavior for rotation
           may cause significant error
 Rotational temperatures (Kelvin)      0.18845     0.04529     0.04128
 Rotational constants (GHZ):           3.92677     0.94375     0.86014
 Zero-point vibrational energy     419439.4 (Joules/Mol)
                                  100.24842 (Kcal/Mol)
 Warning -- explicit consideration of   9 degrees of freedom as
           vibrations may cause significant error
 Vibrational temperatures:     87.72   124.91   197.69   311.75   382.43
          (Kelvin)            420.63   494.78   564.37   755.76  1029.97
                             1084.56  1116.91  1159.44  1224.60  1322.16
                             1329.90  1350.96  1389.20  1437.24  1471.10
                             1496.11  1509.23  1556.65  1575.67  1614.02
                             1662.21  1706.80  1756.61  1762.68  1787.63
                             1814.73  1859.91  1861.51  1908.64  2012.37
                             2030.34  2076.62  2130.34  2136.49  2160.41
                             2609.66  4356.03  4377.74  4389.65  4412.70
                             4457.74  4458.22  4484.26  4497.20  4563.00
                             4612.59

 Zero-point correction=                           0.159756 (Hartree/Particle)
 Thermal correction to Energy=                    0.168136
 Thermal correction to Enthalpy=                  0.169080
 Thermal correction to Gibbs Free Energy=         0.125934
 Sum of electronic and zero-point Energies=           -423.021302
 Sum of electronic and thermal Energies=              -423.012922
 Sum of electronic and thermal Enthalpies=            -423.011978
 Sum of electronic and thermal Free Energies=         -423.055124

                     E (Thermal)             CV                S
                      KCal/Mol        Cal/Mol-Kelvin    Cal/Mol-Kelvin
 Total                  105.507             30.965             90.809
 Electronic               0.000              0.000              0.000
 Translational            0.889              2.981             40.409
 Rotational               0.889              2.981             29.002
 Vibrational            103.729             25.004             21.399
 Vibration     1          0.597              1.973              4.426
 Vibration     2          0.601              1.958              3.731
 Vibration     3          0.614              1.916              2.840
 Vibration     4          0.646              1.816              1.987
 Vibration     5          0.672              1.736              1.623
 Vibration     6          0.688              1.688              1.460
 Vibration     7          0.723              1.588              1.194
 Vibration     8          0.760              1.487              0.992
 Vibration     9          0.880              1.194              0.598

 Optimization completed.
    -- Stationary point found.
 Normal termination of Gaussian 09 at Mon Jan 27 15:46:57 2020.
