 Gaussian 09, Revision D.01,
 Gaussian 09:  ES64L-G09RevD.01 24-Apr-2013

 -----------------------------
 # b3lyp 6-31G(2df,p) opt Freq
 -----------------------------

 -----
 titel
 -----
 Symbolic Z-matrix:
 Charge =  0 Multiplicity = 1

 SCF Done:  E(RB3LYP) =  -423.180925325     A.U. after   13 cycles
 Optimization completed.
    -- Stationary point found.
 Normal termination of Gaussian 09 at Mon Jan 27 12:43:47 2020.

 ----------------------------------------------------------------------
 #N Geom=AllCheck Guess=TCheck SCRF=Check GenChk RB3LYP/6-31G(2df,p) Fr
 eq
 ----------------------------------------------------------------------

 Structure from the checkpoint file:  "/scratch/puck/g09_989f5b9e-a866-4a8c-b749-f8309aff4014/Gau-24513.chk"
 -----
 titel
 -----
 Charge =  0 Multiplicity = 1

                         Standard orientation:
 ---------------------------------------------------------------------
 Center     Atomic      Atomic             Coordinates (Angstroms)
 Number     Number       Type             X           Y           Z
 ---------------------------------------------------------------------
      1          6           0        0.622880    0.624514    1.362708
      2          8           0        0.479808   -0.793961    1.320481
      3          6           0        0.214844   -1.346168    0.030455
      4          6           0       -1.266714   -1.093721   -0.354643
      5          8           0       -1.736645    0.186695    0.018839
      6          6           0       -1.004620    1.300893   -0.459648
      7          6           0        0.484654    1.293567   -0.025134
      8          6           0        1.343411    0.523048   -1.001542
      9          6           0        1.190685   -0.797161   -0.990112
     10          1           0       -0.134584    1.025324    2.047567
     11          1           0        1.615239    0.851462    1.773389
     12          1           0        0.351458   -2.426347    0.144427
     13          1           0       -1.399182   -1.274215   -1.434339
     14          1           0       -1.907458   -1.791550    0.192484
     15          1           0       -1.072852    1.378318   -1.556055
     16          1           0       -1.513345    2.168010   -0.025616
     17          1           0        0.819524    2.332745    0.055390
     18          1           0        2.042185    1.039301   -1.651668
     19          1           0        1.742861   -1.474770   -1.632648
 ---------------------------------------------------------------------

 SCF Done:  E(RB3LYP) =  -423.180925325     A.U. after    1 cycles

 The electronic state is 1-A.
 Alpha  occ. eigenvalues --  -19.13871 -19.13187 -10.23309 -10.22914 -10.22514
 Alpha  occ. eigenvalues --  -10.22423 -10.19516 -10.18587 -10.18203  -1.04131
 Alpha  occ. eigenvalues --   -1.01282  -0.81442  -0.78539  -0.69725  -0.68372
 Alpha  occ. eigenvalues --   -0.62291  -0.58158  -0.52594  -0.51101  -0.49252
 Alpha  occ. eigenvalues --   -0.46552  -0.45828  -0.43907  -0.42168  -0.41072
 Alpha  occ. eigenvalues --   -0.40025  -0.38629  -0.35765  -0.34240  -0.31747
 Alpha  occ. eigenvalues --   -0.29319  -0.26752  -0.24425  -0.23738
 Alpha virt. eigenvalues --    0.00666   0.07646   0.11399   0.11750   0.12700
 Alpha virt. eigenvalues --    0.14102   0.14877   0.15685   0.16602   0.16797
 Alpha virt. eigenvalues --    0.18396   0.18994   0.19362   0.21802   0.22904

 Mulliken charges:
               1
     1  C   -0.049775
     2  O   -0.266076
     3  C    0.041343
     4  C   -0.083471
     5  O   -0.236444
     6  C   -0.075541
     7  C   -0.113194
     8  C   -0.080944
     9  C   -0.075958
    10  H    0.104730
    11  H    0.094782
    12  H    0.082631
    13  H    0.085444
    14  H    0.110590
    15  H    0.090175
    16  H    0.106545
    17  H    0.075280
    18  H    0.093950
    19  H    0.095931
 Sum of Mulliken charges =   0.00000

 Dipole moment (field-independent basis, Debye):
    X=              0.8934    Y=              0.7317    Z=             -1.5368  Tot=              1.9224
 Quadrupole moment (field-independent basis, Debye-Ang):
   XX=            -55.8543   YY=            -47.9445   ZZ=            -54.4834
   XY=              1.5733   XZ=             -0.7567   YZ=              2.4297

  Exact polarizability:  69.414   2.412  85.519  -3.317   3.248  68.711
 Approx polarizability:  97.779   4.034 132.983  -5.846   2.906 102.675

                      1                      2                      3
                      A                      A                      A
 Frequencies --    166.2375               239.6486               268.5542
 Red. masses --      2.4959                 3.6067                 2.5336
 Frc consts  --      0.0406                 0.1220                 0.1077
 IR Inten    --      2.8657                 3.7212                 2.2979

                      4                      5                      6
                      A                      A                      A
 Frequencies --    323.6177               371.8382               387.4053
 Red. masses --      3.5859                 2.2566                 2.9823
 Frc consts  --      0.2213                 0.1838                 0.2637
 IR Inten    --      1.4957                 3.2363                 1.3767

                      7                      8                      9
                      A                      A                      A
 Frequencies --    490.6129               586.9649               613.8897
 Red. masses --      4.9856                 4.6335                 3.2284
 Frc consts  --      0.7070                 0.9405                 0.7168
 IR Inten    --      4.5970                 1.3216                 1.4388

                     10                     11                     12
                      A                      A                      A
 Frequencies --    715.4189               778.1761               784.1306
 Red. masses --      2.1670                 2.7701                 3.9049
 Frc consts  --      0.6535                 0.9883                 1.4146
 IR Inten    --      5.5593                15.8917                24.4292

                     13                     14                     15
                      A                      A                      A
 Frequencies --    801.0398               868.5086               927.9342
 Red. masses --      2.7075                 3.0738                 3.0245
 Frc consts  --      1.0236                 1.3661                 1.5344
 IR Inten    --     13.0221                10.1251                21.2555

                     16                     17                     18
                      A                      A                      A
 Frequencies --    940.6564               963.9124               970.8655
 Red. masses --      2.3091                 2.1080                 1.5035
 Frc consts  --      1.2038                 1.1540                 0.8350
 IR Inten    --      7.9319                 6.7318                 7.0727

                     19                     20                     21
                      A                      A                      A
 Frequencies --    991.5834              1021.2025              1045.4957
 Red. masses --      1.9961                 3.5561                 2.1745
 Frc consts  --      1.1563                 2.1850                 1.4004
 IR Inten    --      7.5659                 1.5291                 6.3471

                     22                     23                     24
                      A                      A                      A
 Frequencies --   1080.4643              1102.9220              1116.1279
 Red. masses --      1.8238                 2.3307                 2.5985
 Frc consts  --      1.2544                 1.6704                 1.9073
 IR Inten    --      3.3375                30.7354                20.9858

                     25                     26                     27
                      A                      A                      A
 Frequencies --   1153.8039              1176.0873              1238.1268
 Red. masses --      3.7732                 1.2317                 1.0760
 Frc consts  --      2.9595                 1.0038                 0.9719
 IR Inten    --     84.8749                16.2106                 3.9453

                     28                     29                     30
                      A                      A                      A
 Frequencies --   1259.7568              1286.6219              1323.8320
 Red. masses --      1.3037                 1.3465                 1.3148
 Frc consts  --      1.2190                 1.3133                 1.3576
 IR Inten    --     30.1322                12.1435                 5.0411

                     31                     32                     33
                      A                      A                      A
 Frequencies --   1327.7304              1344.2189              1354.6627
 Red. masses --      1.4357                 1.2895                 1.2892
 Frc consts  --      1.4912                 1.3728                 1.3939
 IR Inten    --      1.0119                 1.7305                 0.2290

                     34                     35                     36
                      A                      A                      A
 Frequencies --   1378.1778              1398.3817              1415.7406
 Red. masses --      1.3586                 1.4628                 1.3262
 Frc consts  --      1.5204                 1.6854                 1.5662
 IR Inten    --      2.0108                 6.3359                 3.3021

                     37                     38                     39
                      A                      A                      A
 Frequencies --   1422.0197              1486.3245              1497.5548
 Red. masses --      1.3147                 1.0823                 1.0984
 Frc consts  --      1.5664                 1.4087                 1.4513
 IR Inten    --      5.0506                 0.7544                 2.5713

                     40                     41                     42
                      A                      A                      A
 Frequencies --   1510.5910              1710.2925              2969.9188
 Red. masses --      1.0868                 6.2618                 1.0690
 Frc consts  --      1.4612                10.7918                 5.5554
 IR Inten    --      0.3120                 1.5369                50.0703

                     43                     44                     45
                      A                      A                      A
 Frequencies --   2982.7205              3009.8395              3048.2638
 Red. masses --      1.0680                 1.0575                 1.1059
 Frc consts  --      5.5981                 5.6446                 6.0544
 IR Inten    --     73.4392                62.0114                28.6235

                     46                     47                     48
                      A                      A                      A
 Frequencies --   3054.6276              3057.3133              3072.2692
 Red. masses --      1.0883                 1.0881                 1.0933
 Frc consts  --      5.9831                 5.9921                 6.0799
 IR Inten    --     28.9295                19.0356                59.3075

                     49                     50                     51
                      A                      A                      A
 Frequencies --   3083.2953              3169.5152              3193.9209
 Red. masses --      1.0933                 1.0845                 1.1022
 Frc consts  --      6.1240                 6.4190                 6.6249
 IR Inten    --     39.5844                 6.6705                22.5595

 - Thermochemistry -
 -------------------
 Temperature   298.150 Kelvin.  Pressure   1.00000 Atm.
 Atom     1 has atomic number  6 and mass  12.00000

 Molecular mass:   126.06808 amu.
 Principal axes and moments of inertia in atomic units:
                           1         2         3
     Eigenvalues --   806.50766 875.584001002.80421
           X            0.99291   0.11886   0.00039
           Y           -0.11839   0.98866   0.09236
           Z            0.01060  -0.09175   0.99573
 This molecule is an asymmetric top.
 Rotational symmetry number  1.
 Warning -- assumption of classical behavior for rotation
           may cause significant error
 Rotational temperatures (Kelvin)      0.10739     0.09892     0.08637
 Rotational constants (GHZ):           2.23772     2.06119     1.79969
 Zero-point vibrational energy     427562.2 (Joules/Mol)
                                  102.18981 (Kcal/Mol)
 Warning -- explicit consideration of   9 degrees of freedom as
           vibrations may cause significant error
 Vibrational temperatures:    239.18   344.80   386.39   465.61   534.99
          (Kelvin)            557.39   705.88   844.51   883.25  1029.33
                             1119.62  1128.19  1152.52  1249.59  1335.09
                             1353.39  1386.85  1396.86  1426.67  1469.28
                             1504.23  1554.55  1586.86  1605.86  1660.06
                             1692.13  1781.39  1812.51  1851.16  1904.70
                             1910.31  1934.03  1949.06  1982.89  2011.96
                             2036.93  2045.97  2138.49  2154.64  2173.40
                             2460.73  4273.05  4291.46  4330.48  4385.77
                             4394.92  4398.79  4420.30  4436.17  4560.22
                             4595.33

 Zero-point correction=                           0.162850 (Hartree/Particle)
 Thermal correction to Energy=                    0.169795
 Thermal correction to Enthalpy=                  0.170739
 Thermal correction to Gibbs Free Energy=         0.131918
 Sum of electronic and zero-point Energies=           -423.018075
 Sum of electronic and thermal Energies=              -423.011131
 Sum of electronic and thermal Enthalpies=            -423.010187
 Sum of electronic and thermal Free Energies=         -423.049007

                     E (Thermal)             CV                S
                      KCal/Mol        Cal/Mol-Kelvin    Cal/Mol-Kelvin
 Total                  106.548             28.521             81.704
 Electronic               0.000              0.000              0.000
 Translational            0.889              2.981             40.409
 Rotational               0.889              2.981             28.051
 Vibrational            104.770             22.560             13.245
 Vibration     1          0.624              1.884              2.478
 Vibration     2          0.657              1.780              1.805
 Vibration     3          0.673              1.731              1.605
 Vibration     4          0.708              1.628              1.292
 Vibration     5          0.744              1.530              1.072
 Vibration     6          0.756              1.497              1.010
 Vibration     7          0.846              1.271              0.682
 Vibration     8          0.944              1.060              0.473
 Vibration     9          0.973              1.002              0.426

 Normal termination of Gaussian 09 at Mon Jan 27 13:30:30 2020.
