 Gaussian 09, Revision D.01,
 Gaussian 09:  ES64L-G09RevD.01 24-Apr-2013

 -----------------------------
 # b3lyp 6-31G(2df,p) opt Freq
 -----------------------------

 -----
 titel
 -----
 Symbolic Z-matrix:
 Charge =  0 Multiplicity = 1

 SCF Done:  E(RB3LYP) =  -423.151782736     A.U. after   14 cycles
 Optimization completed.
    -- Stationary point found.
 Normal termination of Gaussian 09 at Tue Jan 28 09:03:36 2020.

 ----------------------------------------------------------------------
 #N Geom=AllCheck Guess=TCheck SCRF=Check GenChk RB3LYP/6-31G(2df,p) Fr
 eq
 ----------------------------------------------------------------------

 Structure from the checkpoint file:  "/scratch/puck/g09_91bc1c33-47ec-4e6b-8e04-697ffc0acb65/Gau-94245.chk"
 -----
 titel
 -----
 Charge =  0 Multiplicity = 1

                         Standard orientation:
 ---------------------------------------------------------------------
 Center     Atomic      Atomic             Coordinates (Angstroms)
 Number     Number       Type             X           Y           Z
 ---------------------------------------------------------------------
      1          6           0       -2.452106   -0.890594   -0.216546
      2          6           0       -1.348843   -0.525111    0.785200
      3          6           0       -0.139188    0.211812    0.189627
      4          6           0        1.188049    0.218817    1.034282
      5          6           0        1.868725   -0.572768   -0.083923
      6          8           0        1.118888   -1.784218   -0.284311
      7          6           0        0.650881   -0.588612   -0.901333
      8          6           0       -0.489068    1.589835   -0.334349
      9          8           0        0.208039    2.569651   -0.239838
     10          1           0       -3.232420   -1.476875    0.277653
     11          1           0       -2.936483   -0.013059   -0.655294
     12          1           0       -2.053765   -1.498455   -1.035580
     13          1           0       -1.766107    0.073726    1.604949
     14          1           0       -0.965222   -1.445137    1.236059
     15          1           0        1.577083    1.232735    1.137714
     16          1           0        1.143676   -0.280537    2.004623
     17          1           0        2.910795   -0.587937   -0.378944
     18          1           0        0.502966   -0.598759   -1.975316
     19          1           0       -1.466629    1.650561   -0.860416
 ---------------------------------------------------------------------

 SCF Done:  E(RB3LYP) =  -423.151782736     A.U. after    1 cycles

 The electronic state is 1-A.
 Alpha  occ. eigenvalues --  -19.16082 -19.14677 -10.27477 -10.24900 -10.24442
 Alpha  occ. eigenvalues --  -10.21193 -10.19245 -10.19114 -10.18419  -1.08728
 Alpha  occ. eigenvalues --   -1.05254  -0.83305  -0.76385  -0.69131  -0.65294
 Alpha  occ. eigenvalues --   -0.62119  -0.60108  -0.54377  -0.52075  -0.48621
 Alpha  occ. eigenvalues --   -0.46480  -0.44549  -0.42970  -0.42061  -0.41310
 Alpha  occ. eigenvalues --   -0.39042  -0.38563  -0.36793  -0.35472  -0.34299
 Alpha  occ. eigenvalues --   -0.32895  -0.29791  -0.26618  -0.25328
 Alpha virt. eigenvalues --   -0.03276   0.07508   0.09537   0.10284   0.11867
 Alpha virt. eigenvalues --    0.12486   0.14147   0.14256   0.14674   0.16304
 Alpha virt. eigenvalues --    0.17204   0.18069   0.18415   0.19428   0.20858

 Mulliken charges:
               1
     1  C   -0.398292
     2  C   -0.254998
     3  C    0.189653
     4  C   -0.325885
     5  C    0.048022
     6  O   -0.247474
     7  C   -0.012944
     8  C    0.102434
     9  O   -0.250001
    10  H    0.122724
    11  H    0.120253
    12  H    0.128029
    13  H    0.102627
    14  H    0.125134
    15  H    0.139751
    16  H    0.108706
    17  H    0.111242
    18  H    0.108584
    19  H    0.082435
 Sum of Mulliken charges =   0.00000

 Dipole moment (field-independent basis, Debye):
    X=             -0.8598    Y=             -0.6963    Z=             -0.1543  Tot=              1.1171
 Quadrupole moment (field-independent basis, Debye-Ang):
   XX=            -49.3217   YY=            -65.0394   ZZ=            -50.6345
   XY=             -0.2085   XZ=              0.1056   YZ=              0.2849

  Exact polarizability:  83.930   1.099  74.793   3.817   0.775  66.516
 Approx polarizability: 115.207   3.965 120.427   7.310   1.647 100.959

                      1                      2                      3
                      A                      A                      A
 Frequencies --     43.1224                76.3206               159.1162
 Red. masses --      2.8630                 2.8429                 2.3135
 Frc consts  --      0.0031                 0.0098                 0.0345
 IR Inten    --      4.2932                 3.6200                 3.4772

                      4                      5                      6
                      A                      A                      A
 Frequencies --    203.5184               229.3621               254.8756
 Red. masses --      2.9183                 1.5844                 3.4485
 Frc consts  --      0.0712                 0.0491                 0.1320
 IR Inten    --      1.2331                 1.4806                 3.7290

                      7                      8                      9
                      A                      A                      A
 Frequencies --    294.8114               386.6784               407.1123
 Red. masses --      1.8623                 2.9476                 2.6717
 Frc consts  --      0.0954                 0.2597                 0.2609
 IR Inten    --      1.0318                 5.3616                 0.7225

                     10                     11                     12
                      A                      A                      A
 Frequencies --    471.3266               630.7624               681.0366
 Red. masses --      4.1222                 3.1712                 4.4050
 Frc consts  --      0.5395                 0.7434                 1.2037
 IR Inten    --      6.4403                 3.5554                14.9509

                     13                     14                     15
                      A                      A                      A
 Frequencies --    772.1820               781.6541               839.7185
 Red. masses --      1.5005                 3.2454                 2.9752
 Frc consts  --      0.5271                 1.1683                 1.2361
 IR Inten    --     17.7025                 8.2325                 1.2874

                     16                     17                     18
                      A                      A                      A
 Frequencies --    857.2931               869.1854               899.0632
 Red. masses --      1.7935                 2.2107                 2.2701
 Frc consts  --      0.7766                 0.9840                 1.0811
 IR Inten    --     22.8236                 9.9630                 0.5447

                     19                     20                     21
                      A                      A                      A
 Frequencies --    959.4315               992.3405               998.0781
 Red. masses --      2.2644                 2.0441                 2.0261
 Frc consts  --      1.2281                 1.1860                 1.1892
 IR Inten    --     10.5831                26.0238                 5.3448

                     22                     23                     24
                      A                      A                      A
 Frequencies --   1028.5113              1050.3878              1058.3183
 Red. masses --      1.7920                 1.6928                 1.5120
 Frc consts  --      1.1169                 1.1004                 0.9978
 IR Inten    --      3.7921                 2.0952                 1.7153

                     25                     26                     27
                      A                      A                      A
 Frequencies --   1115.6153              1145.9801              1178.5664
 Red. masses --      2.0926                 1.8670                 2.0515
 Frc consts  --      1.5345                 1.4446                 1.6789
 IR Inten    --      3.0229                 0.6997                19.7976

                     28                     29                     30
                      A                      A                      A
 Frequencies --   1231.2834              1240.1222              1250.4128
 Red. masses --      1.3735                 1.9184                 1.6941
 Frc consts  --      1.2268                 1.7383                 1.5606
 IR Inten    --     11.8164                 0.4441                 5.1364

                     31                     32                     33
                      A                      A                      A
 Frequencies --   1264.9705              1323.1380              1370.4288
 Red. masses --      1.5529                 1.3448                 1.4699
 Frc consts  --      1.4640                 1.3871                 1.6265
 IR Inten    --      3.0846                 3.8437                 5.3829

                     34                     35                     36
                      A                      A                      A
 Frequencies --   1382.9078              1411.9285              1437.2938
 Red. masses --      3.4279                 1.2363                 1.2190
 Frc consts  --      3.8625                 1.4521                 1.4837
 IR Inten    --     25.7417                 8.4509                 4.8660

                     37                     38                     39
                      A                      A                      A
 Frequencies --   1466.2865              1486.9182              1503.2228
 Red. masses --      1.1242                 1.0684                 1.0571
 Frc consts  --      1.4241                 1.3917                 1.4073
 IR Inten    --      6.0982                 1.8972                 3.3061

                     40                     41                     42
                      A                      A                      A
 Frequencies --   1507.5072              1814.6536              2895.2943
 Red. masses --      1.0469                10.7698                 1.0816
 Frc consts  --      1.4017                20.8952                 5.3420
 IR Inten    --      3.9445               145.4078               101.6221

                     43                     44                     45
                      A                      A                      A
 Frequencies --   3028.7851              3040.8749              3074.4043
 Red. masses --      1.0662                 1.0357                 1.0616
 Frc consts  --      5.7627                 5.6428                 5.9119
 IR Inten    --     19.2863                22.7356                19.2637

                     46                     47                     48
                      A                      A                      A
 Frequencies --   3081.1646              3108.0509              3112.0829
 Red. masses --      1.0928                 1.1011                 1.1010
 Frc consts  --      6.1127                 6.2668                 6.2824
 IR Inten    --      3.1557                28.1629                34.1802

                     49                     50                     51
                      A                      A                      A
 Frequencies --   3144.1317              3178.5370              3199.7998
 Red. masses --      1.1071                 1.0884                 1.0995
 Frc consts  --      6.4480                 6.4790                 6.6329
 IR Inten    --      3.8794                11.6757                19.1414

 - Thermochemistry -
 -------------------
 Temperature   298.150 Kelvin.  Pressure   1.00000 Atm.
 Atom     1 has atomic number  6 and mass  12.00000

 Molecular mass:   126.06808 amu.
 Principal axes and moments of inertia in atomic units:
                           1         2         3
     Eigenvalues --   949.80109 997.215871586.50509
           X            0.79064   0.61213   0.01330
           Y           -0.61221   0.79070   0.00211
           Z           -0.00922  -0.00981   0.99991
 This molecule is an asymmetric top.
 Rotational symmetry number  1.
 Warning -- assumption of classical behavior for rotation
           may cause significant error
 Rotational temperatures (Kelvin)      0.09119     0.08686     0.05459
 Rotational constants (GHZ):           1.90013     1.80978     1.13756
 Zero-point vibrational energy     412344.2 (Joules/Mol)
                                   98.55263 (Kcal/Mol)
 Warning -- explicit consideration of  10 degrees of freedom as
           vibrations may cause significant error
 Vibrational temperatures:     62.04   109.81   228.93   292.82   330.00
          (Kelvin)            366.71   424.17   556.34   585.74   678.13
                              907.53   979.86  1111.00  1124.62  1208.17
                             1233.45  1250.56  1293.55  1380.41  1427.75
                             1436.01  1479.80  1511.27  1522.68  1605.12
                             1648.81  1695.69  1771.54  1784.26  1799.06
                             1820.01  1903.70  1971.74  1989.69  2031.45
                             2067.94  2109.66  2139.34  2162.80  2168.96
                             2610.88  4165.68  4357.74  4375.14  4423.38
                             4433.10  4471.79  4477.59  4523.70  4573.20
                             4603.79

 Zero-point correction=                           0.157054 (Hartree/Particle)
 Thermal correction to Energy=                    0.166065
 Thermal correction to Enthalpy=                  0.167009
 Thermal correction to Gibbs Free Energy=         0.122598
 Sum of electronic and zero-point Energies=           -422.994729
 Sum of electronic and thermal Energies=              -422.985718
 Sum of electronic and thermal Enthalpies=            -422.984774
 Sum of electronic and thermal Free Energies=         -423.029185

                     E (Thermal)             CV                S
                      KCal/Mol        Cal/Mol-Kelvin    Cal/Mol-Kelvin
 Total                  104.207             33.050             93.471
 Electronic               0.000              0.000              0.000
 Translational            0.889              2.981             40.409
 Rotational               0.889              2.981             28.798
 Vibrational            102.430             27.089             24.264
 Vibration     1          0.595              1.980              5.110
 Vibration     2          0.599              1.965              3.983
 Vibration     3          0.621              1.892              2.560
 Vibration     4          0.639              1.835              2.101
 Vibration     5          0.652              1.796              1.884
 Vibration     6          0.665              1.755              1.697
 Vibration     7          0.689              1.683              1.446
 Vibration     8          0.755              1.499              1.013
 Vibration     9          0.772              1.455              0.937
 Vibration    10          0.828              1.314              0.734

 Normal termination of Gaussian 09 at Tue Jan 28 09:46:27 2020.
