 Gaussian 09, Revision D.01,
 Gaussian 09:  ES64L-G09RevD.01 24-Apr-2013

 -----------------------------
 # b3lyp 6-31G(2df,p) opt Freq
 -----------------------------

 -----
 titel
 -----
 Symbolic Z-matrix:
 Charge =  0 Multiplicity = 1

 SCF Done:  E(RB3LYP) =  -423.130212110     A.U. after   14 cycles
 Optimization completed.
    -- Stationary point found.
 Normal termination of Gaussian 09 at Tue Jan 28 00:01:34 2020.

 ----------------------------------------------------------------------
 #N Geom=AllCheck Guess=TCheck SCRF=Check GenChk RB3LYP/6-31G(2df,p) Fr
 eq
 ----------------------------------------------------------------------

 Structure from the checkpoint file:  "/scratch/puck/g09_fa2d4f29-b731-44cb-a1f8-7f7e9d65f322/Gau-1999.chk"
 -----
 titel
 -----
 Charge =  0 Multiplicity = 1

                         Standard orientation:
 ---------------------------------------------------------------------
 Center     Atomic      Atomic             Coordinates (Angstroms)
 Number     Number       Type             X           Y           Z
 ---------------------------------------------------------------------
      1          8           0        1.156017    1.968965    0.096518
      2          6           0        0.229537    0.977875    0.439395
      3          6           0       -1.025644    0.788568   -0.484371
      4          6           0       -2.307825    0.359000    0.265479
      5          6           0       -1.838299   -1.127732    0.217898
      6          6           0       -0.629923   -0.727619   -0.682867
      7          6           0        0.669077   -0.452185    0.056335
      8          6           0        1.735966   -1.294858    0.591675
      9          8           0        1.917552   -0.556440   -0.633047
     10          1           0        1.835856    1.528906   -0.433915
     11          1           0       -0.045855    1.106433    1.494340
     12          1           0       -1.091962    1.508537   -1.299551
     13          1           0       -2.453761    0.799594    1.256749
     14          1           0       -3.216242    0.526326   -0.318236
     15          1           0       -1.557200   -1.560469    1.182551
     16          1           0       -2.542971   -1.808523   -0.263706
     17          1           0       -0.535741   -1.220307   -1.650912
     18          1           0        2.328519   -0.943023    1.434951
     19          1           0        1.693463   -2.375963    0.468690
 ---------------------------------------------------------------------

 SCF Done:  E(RB3LYP) =  -423.130212110     A.U. after    1 cycles

 The electronic state is 1-A.
 Alpha  occ. eigenvalues --  -19.16391 -19.13069 -10.24220 -10.24039 -10.23082
 Alpha  occ. eigenvalues --  -10.19094 -10.18867 -10.18440 -10.18409  -1.08107
 Alpha  occ. eigenvalues --   -1.01464  -0.86750  -0.73631  -0.68030  -0.67048
 Alpha  occ. eigenvalues --   -0.61875  -0.58559  -0.53663  -0.51818  -0.49689
 Alpha  occ. eigenvalues --   -0.48757  -0.44897  -0.43871  -0.41106  -0.40170
 Alpha  occ. eigenvalues --   -0.38958  -0.36069  -0.33755  -0.32997  -0.31921
 Alpha  occ. eigenvalues --   -0.30622  -0.27858  -0.27175  -0.25169
 Alpha virt. eigenvalues --    0.05883   0.08694   0.09510   0.10216   0.10599
 Alpha virt. eigenvalues --    0.12500   0.14390   0.15234   0.15371   0.16604
 Alpha virt. eigenvalues --    0.17252   0.18455   0.19588   0.21419   0.22219

 Mulliken charges:
               1
     1  O   -0.443090
     2  C    0.075918
     3  C   -0.059531
     4  C   -0.226497
     5  C   -0.235793
     6  C   -0.125390
     7  C    0.380686
     8  C   -0.265506
     9  O   -0.286399
    10  H    0.293882
    11  H    0.078043
    12  H    0.077707
    13  H    0.098269
    14  H    0.105021
    15  H    0.100362
    16  H    0.107326
    17  H    0.080721
    18  H    0.122735
    19  H    0.121536
 Sum of Mulliken charges =   0.00000

 Dipole moment (field-independent basis, Debye):
    X=             -1.0890    Y=             -1.9353    Z=              0.6476  Tot=              2.3131
 Quadrupole moment (field-independent basis, Debye-Ang):
   XX=            -52.7428   YY=            -56.0058   ZZ=            -52.0737
   XY=             -1.7381   XZ=              2.3150   YZ=             -1.8378

  Exact polarizability:  85.148  -2.716  75.215   2.134  -1.273  64.526
 Approx polarizability: 113.314  -2.609 108.307  -0.757  -2.272 101.909

                      1                      2                      3
                      A                      A                      A
 Frequencies --     57.2980               174.6697               237.1330
 Red. masses --      3.0781                 2.3813                 3.4016
 Frc consts  --      0.0060                 0.0428                 0.1127
 IR Inten    --      0.5929                 0.0669                15.2249

                      4                      5                      6
                      A                      A                      A
 Frequencies --    255.8095               292.5834               314.5178
 Red. masses --      3.4997                 2.5100                 4.2555
 Frc consts  --      0.1349                 0.1266                 0.2480
 IR Inten    --      4.8653                 3.2322                 1.8397

                      7                      8                      9
                      A                      A                      A
 Frequencies --    411.7352               429.8792               543.9825
 Red. masses --      1.2506                 3.7503                 4.0515
 Frc consts  --      0.1249                 0.4083                 0.7064
 IR Inten    --     60.2796                 2.7347                 1.0133

                     10                     11                     12
                      A                      A                      A
 Frequencies --    596.7954               733.2988               754.6592
 Red. masses --      3.1733                 1.4129                 2.7203
 Frc consts  --      0.6659                 0.4476                 0.9128
 IR Inten    --      8.4100                 5.2648                12.2148

                     13                     14                     15
                      A                      A                      A
 Frequencies --    816.7096               825.1715               847.2740
 Red. masses --      1.8581                 2.1255                 2.6709
 Frc consts  --      0.7302                 0.8527                 1.1297
 IR Inten    --      1.4668                18.0118                 1.6066

                     16                     17                     18
                      A                      A                      A
 Frequencies --    889.0362               894.8676               953.3188
 Red. masses --      3.9054                 2.0889                 2.8290
 Frc consts  --      1.8187                 0.9856                 1.5148
 IR Inten    --      6.6342                 2.1744                 5.7817

                     19                     20                     21
                      A                      A                      A
 Frequencies --    960.3415               969.2556              1014.0308
 Red. masses --      2.5265                 2.4839                 2.5504
 Frc consts  --      1.3728                 1.3748                 1.5451
 IR Inten    --     15.9079                19.8053                10.3727

                     22                     23                     24
                      A                      A                      A
 Frequencies --   1047.8051              1099.2899              1116.7323
 Red. masses --      1.9359                 1.5429                 1.4808
 Frc consts  --      1.2522                 1.0985                 1.0880
 IR Inten    --     13.5512                14.6083                 2.7357

                     25                     26                     27
                      A                      A                      A
 Frequencies --   1128.2709              1143.6638              1158.7941
 Red. masses --      1.6399                 2.1706                 1.4644
 Frc consts  --      1.2300                 1.6727                 1.1586
 IR Inten    --      5.9668               101.8543                 1.1219

                     28                     29                     30
                      A                      A                      A
 Frequencies --   1193.3519              1207.2664              1224.8161
 Red. masses --      1.4674                 1.7767                 1.4286
 Frc consts  --      1.2312                 1.5257                 1.2627
 IR Inten    --      4.1290                 1.7004                 0.9355

                     31                     32                     33
                      A                      A                      A
 Frequencies --   1234.3821              1253.5876              1272.7633
 Red. masses --      1.4240                 1.5860                 1.5141
 Frc consts  --      1.2784                 1.4684                 1.4451
 IR Inten    --      2.5830                 1.0859                 1.4309

                     34                     35                     36
                      A                      A                      A
 Frequencies --   1280.2284              1283.8196              1346.5310
 Red. masses --      1.6387                 1.4194                 1.4757
 Frc consts  --      1.5825                 1.3784                 1.5764
 IR Inten    --      1.9758                 3.3862                 5.6327

                     37                     38                     39
                      A                      A                      A
 Frequencies --   1420.5038              1448.2886              1476.9388
 Red. masses --      1.5193                 1.7841                 1.0818
 Frc consts  --      1.8062                 2.2049                 1.3904
 IR Inten    --     45.0773                56.5576                 0.3949

                     40                     41                     42
                      A                      A                      A
 Frequencies --   1493.2976              1526.6686              3016.8707
 Red. masses --      1.1099                 1.5389                 1.0855
 Frc consts  --      1.4582                 2.1133                 5.8209
 IR Inten    --      2.4347                 4.5454                36.1809

                     43                     44                     45
                      A                      A                      A
 Frequencies --   3048.7807              3058.1477              3085.1937
 Red. masses --      1.0596                 1.0616                 1.0504
 Frc consts  --      5.8030                 5.8497                 5.8905
 IR Inten    --     43.5323                41.1313                23.1038

                     46                     47                     48
                      A                      A                      A
 Frequencies --   3094.6684              3106.9252              3115.1886
 Red. masses --      1.1039                 1.0927                 1.0972
 Frc consts  --      6.2289                 6.2148                 6.2735
 IR Inten    --      3.9792                 9.1543                24.1505

                     49                     50                     51
                      A                      A                      A
 Frequencies --   3123.2159              3173.7808              3728.4432
 Red. masses --      1.0959                 1.1194                 1.0653
 Frc consts  --      6.2982                 6.6435                 8.7249
 IR Inten    --     47.0716                15.6401                52.6439

 - Thermochemistry -
 -------------------
 Temperature   298.150 Kelvin.  Pressure   1.00000 Atm.
 Atom     1 has atomic number  8 and mass  15.99491

 Molecular mass:   126.06808 amu.
 Principal axes and moments of inertia in atomic units:
                           1         2         3
     Eigenvalues --   669.492521135.272441553.22306
           X            0.99993  -0.00709   0.00911
           Y            0.00724   0.99983  -0.01692
           Z           -0.00898   0.01698   0.99982
 This molecule is an asymmetric top.
 Rotational symmetry number  1.
 Warning -- assumption of classical behavior for rotation
           may cause significant error
 Rotational temperatures (Kelvin)      0.12937     0.07629     0.05576
 Rotational constants (GHZ):           2.69569     1.58970     1.16193
 Zero-point vibrational energy     417978.7 (Joules/Mol)
                                   99.89931 (Kcal/Mol)
 Warning -- explicit consideration of  10 degrees of freedom as
           vibrations may cause significant error
 Vibrational temperatures:     82.44   251.31   341.18   368.05   420.96
          (Kelvin)            452.52   592.39   618.50   782.67   858.65
                             1055.05  1085.78  1175.06  1187.24  1219.04
                             1279.12  1287.51  1371.61  1381.72  1394.54
                             1458.96  1507.56  1581.63  1606.73  1623.33
                             1645.48  1667.24  1716.97  1736.98  1762.24
                             1776.00  1803.63  1831.22  1841.96  1847.13
                             1937.36  2043.79  2083.76  2124.98  2148.52
                             2196.53  4340.60  4386.51  4399.99  4438.90
                             4452.53  4470.17  4482.06  4493.61  4566.36
                             5364.39

 Zero-point correction=                           0.159200 (Hartree/Particle)
 Thermal correction to Energy=                    0.167174
 Thermal correction to Enthalpy=                  0.168118
 Thermal correction to Gibbs Free Energy=         0.126543
 Sum of electronic and zero-point Energies=           -422.971012
 Sum of electronic and thermal Energies=              -422.963038
 Sum of electronic and thermal Enthalpies=            -422.962094
 Sum of electronic and thermal Free Energies=         -423.003669

                     E (Thermal)             CV                S
                      KCal/Mol        Cal/Mol-Kelvin    Cal/Mol-Kelvin
 Total                  104.903             31.259             87.501
 Electronic               0.000              0.000              0.000
 Translational            0.889              2.981             40.409
 Rotational               0.889              2.981             28.559
 Vibrational            103.126             25.297             18.534
 Vibration     1          0.596              1.975              4.548
 Vibration     2          0.627              1.874              2.385
 Vibration     3          0.656              1.784              1.824
 Vibration     4          0.666              1.753              1.690
 Vibration     5          0.688              1.688              1.459
 Vibration     6          0.702              1.646              1.338
 Vibration     7          0.776              1.445              0.921
 Vibration     8          0.791              1.405              0.859
 Vibration     9          0.899              1.153              0.557
 Vibration    10          0.955              1.039              0.455

 Optimization completed.
    -- Stationary point found.
 Normal termination of Gaussian 09 at Tue Jan 28 00:43:35 2020.
