 Gaussian 09, Revision D.01,
 Gaussian 09:  ES64L-G09RevD.01 24-Apr-2013

 -----------------------------
 # b3lyp 6-31G(2df,p) opt Freq
 -----------------------------

 -----
 titel
 -----
 Symbolic Z-matrix:
 Charge =  0 Multiplicity = 1

 SCF Done:  E(RB3LYP) =  -423.141257158     A.U. after   13 cycles
 Optimization completed.
    -- Stationary point found.
 Normal termination of Gaussian 09 at Mon Jan 27 22:05:36 2020.

 ----------------------------------------------------------------------
 #N Geom=AllCheck Guess=TCheck SCRF=Check GenChk RB3LYP/6-31G(2df,p) Fr
 eq
 ----------------------------------------------------------------------

 Structure from the checkpoint file:  "/scratch/puck/g09_213451bc-7349-4635-991e-61c4d2148616/Gau-111377.chk"
 -----
 titel
 -----
 Charge =  0 Multiplicity = 1

                         Standard orientation:
 ---------------------------------------------------------------------
 Center     Atomic      Atomic             Coordinates (Angstroms)
 Number     Number       Type             X           Y           Z
 ---------------------------------------------------------------------
      1          6           0        2.536474   -1.023829   -0.273257
      2          6           0        1.538090   -0.193018    0.519235
      3          8           0        1.434582    1.141600   -0.028436
      4          6           0        0.054625    1.254935   -0.307493
      5          6           0       -0.489002   -0.068387   -0.922148
      6          6           0       -1.832490    0.198218   -0.231398
      7          8           0       -2.610694   -0.955214   -0.011373
      8          6           0       -0.787836    0.611605    0.832709
      9          6           0        0.079590   -0.633942    0.432139
     10          1           0        3.517796   -0.540875   -0.273192
     11          1           0        2.644998   -2.019285    0.170431
     12          1           0        2.212476   -1.139736   -1.311772
     13          1           0        1.867151   -0.113865    1.565294
     14          1           0       -0.178419    2.232180   -0.728629
     15          1           0       -0.319794   -0.455164   -1.926945
     16          1           0       -2.438216    1.013059   -0.652366
     17          1           0       -3.339093   -0.718203    0.570851
     18          1           0       -0.951390    1.005205    1.837299
     19          1           0       -0.203315   -1.627896    0.768773
 ---------------------------------------------------------------------

 SCF Done:  E(RB3LYP) =  -423.141257158     A.U. after    1 cycles

 The electronic state is 1-A.
 Alpha  occ. eigenvalues --  -19.13908 -19.13062 -10.23761 -10.23595 -10.22576
 Alpha  occ. eigenvalues --  -10.19405 -10.19344 -10.19249 -10.17219  -1.04238
 Alpha  occ. eigenvalues --   -1.02242  -0.88889  -0.76201  -0.67498  -0.64175
 Alpha  occ. eigenvalues --   -0.63587  -0.57057  -0.55051  -0.50448  -0.49506
 Alpha  occ. eigenvalues --   -0.48985  -0.44812  -0.42018  -0.40240  -0.38602
 Alpha  occ. eigenvalues --   -0.37045  -0.35644  -0.34934  -0.33095  -0.31643
 Alpha  occ. eigenvalues --   -0.30764  -0.30072  -0.26778  -0.23288
 Alpha virt. eigenvalues --    0.07853   0.10093   0.11609   0.12676   0.13541
 Alpha virt. eigenvalues --    0.13816   0.15070   0.15670   0.16190   0.16646
 Alpha virt. eigenvalues --    0.17601   0.19026   0.19487   0.20806   0.21022

 Mulliken charges:
               1
     1  C   -0.401393
     2  C    0.114046
     3  O   -0.297300
     4  C    0.134295
     5  C   -0.111873
     6  C    0.113039
     7  O   -0.437627
     8  C   -0.149229
     9  C   -0.056327
    10  H    0.125559
    11  H    0.112703
    12  H    0.119590
    13  H    0.074387
    14  H    0.083039
    15  H    0.075833
    16  H    0.062859
    17  H    0.283946
    18  H    0.068188
    19  H    0.086264
 Sum of Mulliken charges =   0.00000

 Dipole moment (field-independent basis, Debye):
    X=             -1.2837    Y=             -0.0050    Z=              0.8809  Tot=              1.5569
 Quadrupole moment (field-independent basis, Debye-Ang):
   XX=            -50.3525   YY=            -55.0733   ZZ=            -51.4624
   XY=             -5.7279   XZ=             -2.2657   YZ=             -1.1610

  Exact polarizability:  87.307  -4.479  69.945   0.133  -0.934  66.938
 Approx polarizability: 113.838  -1.537 108.357   0.322  -1.453 105.465

                      1                      2                      3
                      A                      A                      A
 Frequencies --    158.9600               192.9786               211.4354
 Red. masses --      3.1119                 3.3262                 1.0958
 Frc consts  --      0.0463                 0.0730                 0.0289
 IR Inten    --      2.2768                 2.6641                 0.3764

                      4                      5                      6
                      A                      A                      A
 Frequencies --    259.1150               293.4785               353.8274
 Red. masses --      1.8124                 1.5887                 3.2407
 Frc consts  --      0.0717                 0.0806                 0.2390
 IR Inten    --     19.0767                89.1434                 4.4341

                      7                      8                      9
                      A                      A                      A
 Frequencies --    473.9356               492.6747               539.0732
 Red. masses --      3.6574                 3.2390                 5.2899
 Frc consts  --      0.4840                 0.4632                 0.9057
 IR Inten    --      2.3849                 3.6338                 3.2725

                     10                     11                     12
                      A                      A                      A
 Frequencies --    698.2851               716.8457               773.1809
 Red. masses --      3.3093                 4.5123                 2.8887
 Frc consts  --      0.9507                 1.3662                 1.0174
 IR Inten    --      2.3509                 2.8555                 3.0602

                     13                     14                     15
                      A                      A                      A
 Frequencies --    806.2541               848.5355               871.4730
 Red. masses --      2.7887                 2.5045                 2.3712
 Frc consts  --      1.0681                 1.0625                 1.0610
 IR Inten    --      0.6499                13.3030                 4.8533

                     16                     17                     18
                      A                      A                      A
 Frequencies --    921.7978               932.2620               943.4329
 Red. masses --      1.8631                 1.8033                 2.1514
 Frc consts  --      0.9327                 0.9234                 1.1282
 IR Inten    --      6.7162                 6.3957                13.1671

                     19                     20                     21
                      A                      A                      A
 Frequencies --    976.7288               998.8611              1039.1303
 Red. masses --      4.2922                 1.1853                 2.8575
 Frc consts  --      2.4125                 0.6968                 1.8180
 IR Inten    --     20.0023                 1.8217                80.1283

                     22                     23                     24
                      A                      A                      A
 Frequencies --   1056.4565              1091.2470              1113.9311
 Red. masses --      2.0547                 1.9721                 1.4313
 Frc consts  --      1.3511                 1.3837                 1.0464
 IR Inten    --     53.5629                17.4592                 0.4769

                     25                     26                     27
                      A                      A                      A
 Frequencies --   1121.4637              1131.0462              1136.0403
 Red. masses --      2.9311                 3.9698                 2.2921
 Frc consts  --      2.1720                 2.9921                 1.7429
 IR Inten    --      8.3327                60.2830                14.1363

                     28                     29                     30
                      A                      A                      A
 Frequencies --   1151.7177              1182.7827              1201.7700
 Red. masses --      1.4475                 1.5945                 1.3705
 Frc consts  --      1.1312                 1.3142                 1.1662
 IR Inten    --      3.3812                 2.4742                16.9563

                     31                     32                     33
                      A                      A                      A
 Frequencies --   1215.7729              1258.2223              1281.8289
 Red. masses --      1.5812                 1.6130                 1.7709
 Frc consts  --      1.3770                 1.5045                 1.7143
 IR Inten    --     39.2317                40.0400                 1.3315

                     34                     35                     36
                      A                      A                      A
 Frequencies --   1308.8705              1317.7049              1365.8053
 Red. masses --      1.4803                 1.3749                 1.5886
 Frc consts  --      1.4942                 1.4065                 1.7460
 IR Inten    --      0.1819                39.1939                31.2177

                     37                     38                     39
                      A                      A                      A
 Frequencies --   1389.4275              1407.7909              1442.5636
 Red. masses --      1.4185                 1.3217                 1.4438
 Frc consts  --      1.6134                 1.5433                 1.7703
 IR Inten    --      5.6358                13.0011                11.6047

                     40                     41                     42
                      A                      A                      A
 Frequencies --   1486.8545              1495.4489              3000.7719
 Red. masses --      1.0583                 1.0483                 1.0843
 Frc consts  --      1.3785                 1.3813                 5.7524
 IR Inten    --      2.3751                 3.4811                73.3224

                     43                     44                     45
                      A                      A                      A
 Frequencies --   3001.7902              3037.9173              3099.7111
 Red. masses --      1.0838                 1.0352                 1.0900
 Frc consts  --      5.7541                 5.6290                 6.1706
 IR Inten    --     52.2595                17.8916                50.3855

                     46                     47                     48
                      A                      A                      A
 Frequencies --   3108.7539              3114.7361              3119.2453
 Red. masses --      1.1002                 1.0923                 1.0999
 Frc consts  --      6.2643                 6.2437                 6.3054
 IR Inten    --     17.2981                23.0820                39.1949

                     49                     50                     51
                      A                      A                      A
 Frequencies --   3135.4929              3160.4162              3820.6452
 Red. masses --      1.0917                 1.0907                 1.0662
 Frc consts  --      6.3234                 6.4185                 9.1698
 IR Inten    --     44.6183                11.9265                26.8921

 - Thermochemistry -
 -------------------
 Temperature   298.150 Kelvin.  Pressure   1.00000 Atm.
 Atom     1 has atomic number  6 and mass  12.00000

 Molecular mass:   126.06808 amu.
 Principal axes and moments of inertia in atomic units:
                           1         2         3
     Eigenvalues --   474.618611374.783051563.59263
           X            0.99905  -0.04318  -0.00637
           Y            0.04318   0.99907  -0.00065
           Z            0.00640   0.00038   0.99998
 This molecule is an asymmetric top.
 Rotational symmetry number  1.
 Warning -- assumption of classical behavior for rotation
           may cause significant error
 Rotational temperatures (Kelvin)      0.18249     0.06300     0.05539
 Rotational constants (GHZ):           3.80251     1.31275     1.15423
 Zero-point vibrational energy     420239.1 (Joules/Mol)
                                  100.43956 (Kcal/Mol)
 Warning -- explicit consideration of   9 degrees of freedom as
           vibrations may cause significant error
 Vibrational temperatures:    228.71   277.65   304.21   372.81   422.25
          (Kelvin)            509.08   681.89   708.85   775.61  1004.68
                             1031.38  1112.43  1160.02  1220.85  1253.85
                             1326.26  1341.32  1357.39  1405.29  1437.14
                             1495.07  1520.00  1570.06  1602.70  1613.53
                             1627.32  1634.51  1657.06  1701.76  1729.08
                             1749.22  1810.30  1844.26  1883.17  1895.88
                             1965.09  1999.07  2025.49  2075.52  2139.25
                             2151.61  4317.44  4318.90  4370.88  4459.79
                             4472.80  4481.40  4487.89  4511.27  4547.13
                             5497.05

 Zero-point correction=                           0.160061 (Hartree/Particle)
 Thermal correction to Energy=                    0.167629
 Thermal correction to Enthalpy=                  0.168573
 Thermal correction to Gibbs Free Energy=         0.128375
 Sum of electronic and zero-point Energies=           -422.981197
 Sum of electronic and thermal Energies=              -422.973628
 Sum of electronic and thermal Enthalpies=            -422.972684
 Sum of electronic and thermal Free Energies=         -423.012882

                     E (Thermal)             CV                S
                      KCal/Mol        Cal/Mol-Kelvin    Cal/Mol-Kelvin
 Total                  105.189             30.521             84.604
 Electronic               0.000              0.000              0.000
 Translational            0.889              2.981             40.409
 Rotational               0.889              2.981             28.414
 Vibrational            103.411             24.560             15.782
 Vibration     1          0.621              1.893              2.562
 Vibration     2          0.635              1.850              2.199
 Vibration     3          0.643              1.823              2.031
 Vibration     4          0.668              1.747              1.668
 Vibration     5          0.688              1.686              1.454
 Vibration     6          0.730              1.567              1.149
 Vibration     7          0.831              1.308              0.727
 Vibration     8          0.848              1.266              0.677
 Vibration     9          0.894              1.164              0.567

 Normal termination of Gaussian 09 at Mon Jan 27 23:00:42 2020.
