 Gaussian 09, Revision D.01,
 Gaussian 09:  ES64L-G09RevD.01 24-Apr-2013

 -----------------------------
 # b3lyp 6-31G(2df,p) opt Freq
 -----------------------------

 -----
 titel
 -----
 Symbolic Z-matrix:
 Charge =  0 Multiplicity = 1

 SCF Done:  E(RB3LYP) =  -423.174809883     A.U. after   14 cycles
 Optimization completed.
    -- Stationary point found.
 Normal termination of Gaussian 09 at Mon Jan 27 11:54:58 2020.

 ----------------------------------------------------------------------
 #N Geom=AllCheck Guess=TCheck SCRF=Check GenChk RB3LYP/6-31G(2df,p) Fr
 eq
 ----------------------------------------------------------------------

 Structure from the checkpoint file:  "/scratch/puck/g09_b3c8aa6c-0622-4668-a253-e4b8abc39bed/Gau-96434.chk"
 -----
 titel
 -----
 Charge =  0 Multiplicity = 1

                         Standard orientation:
 ---------------------------------------------------------------------
 Center     Atomic      Atomic             Coordinates (Angstroms)
 Number     Number       Type             X           Y           Z
 ---------------------------------------------------------------------
      1          6           0        2.342430    0.154120    0.378636
      2          8           0        1.890052   -0.597283   -0.753586
      3          6           0        0.922989    0.100895    0.017296
      4          6           0        0.126915    1.260368   -0.615559
      5          6           0       -1.309497    0.954841   -0.123023
      6          6           0       -1.768246   -0.346460   -0.801826
      7          8           0       -0.958565   -1.368264   -0.187941
      8          6           0       -0.132339   -0.702485    0.776330
      9          6           0       -1.039678    0.417734    1.304654
     10          1           0        2.720752   -0.437972    1.211907
     11          1           0        2.921446    1.048286    0.147672
     12          1           0        0.473742    2.234008   -0.255261
     13          1           0        0.219051    1.248192   -1.705062
     14          1           0       -2.015301    1.780434   -0.217362
     15          1           0       -2.828723   -0.563108   -0.617137
     16          1           0       -1.597332   -0.343088   -1.885072
     17          1           0        0.252275   -1.446263    1.473736
     18          1           0       -1.928796    0.034620    1.810808
     19          1           0       -0.524455    1.135194    1.948947
 ---------------------------------------------------------------------

 SCF Done:  E(RB3LYP) =  -423.174809883     A.U. after    1 cycles

 The electronic state is 1-A.
 Alpha  occ. eigenvalues --  -19.14719 -19.13280 -10.23723 -10.23179 -10.23135
 Alpha  occ. eigenvalues --  -10.22475 -10.19821 -10.18842 -10.18830  -1.07095
 Alpha  occ. eigenvalues --   -1.03096  -0.83065  -0.74379  -0.70688  -0.66086
 Alpha  occ. eigenvalues --   -0.61930  -0.58470  -0.54189  -0.52207  -0.50119
 Alpha  occ. eigenvalues --   -0.46287  -0.46173  -0.44267  -0.41195  -0.38945
 Alpha  occ. eigenvalues --   -0.37687  -0.37024  -0.35694  -0.35190  -0.33841
 Alpha  occ. eigenvalues --   -0.32152  -0.28845  -0.26711  -0.23754
 Alpha virt. eigenvalues --    0.07682   0.08690   0.11171   0.11793   0.13227
 Alpha virt. eigenvalues --    0.14039   0.14580   0.15204   0.15894   0.16508
 Alpha virt. eigenvalues --    0.16783   0.18107   0.19234   0.20198   0.20938

 Mulliken charges:
               1
     1  C   -0.273846
     2  O   -0.282115
     3  C    0.497877
     4  C   -0.318231
     5  C   -0.051296
     6  C   -0.070290
     7  O   -0.272958
     8  C    0.014317
     9  C   -0.241639
    10  H    0.111829
    11  H    0.110458
    12  H    0.102624
    13  H    0.118597
    14  H    0.071036
    15  H    0.096159
    16  H    0.103391
    17  H    0.075622
    18  H    0.107061
    19  H    0.101405
 Sum of Mulliken charges =   0.00000

 Dipole moment (field-independent basis, Debye):
    X=             -0.6554    Y=              2.5581    Z=              1.5722  Tot=              3.0733
 Quadrupole moment (field-independent basis, Debye-Ang):
   XX=            -51.3913   YY=            -55.5948   ZZ=            -52.0378
   XY=              0.4704   XZ=              3.6122   YZ=             -2.2820

  Exact polarizability:  86.092   0.891  66.738   4.429  -2.116  69.221
 Approx polarizability: 114.430   0.531 102.761   5.280   0.998 105.435

                      1                      2                      3
                      A                      A                      A
 Frequencies --    101.4555               235.2817               288.7259
 Red. masses --      3.3783                 4.8302                 2.5340
 Frc consts  --      0.0205                 0.1575                 0.1245
 IR Inten    --      0.8307                 1.2576                 1.2203

                      4                      5                      6
                      A                      A                      A
 Frequencies --    345.1379               403.5120               441.3115
 Red. masses --      3.0174                 1.9766                 2.4739
 Frc consts  --      0.2118                 0.1896                 0.2839
 IR Inten    --      2.2328                 2.4810                 1.3932

                      7                      8                      9
                      A                      A                      A
 Frequencies --    483.9322               537.3426               666.8577
 Red. masses --      2.7036                 4.7582                 4.2315
 Frc consts  --      0.3730                 0.8095                 1.1087
 IR Inten    --      0.2314                16.3432                 2.1013

                     10                     11                     12
                      A                      A                      A
 Frequencies --    785.8798               827.2959               837.3613
 Red. masses --      4.0857                 3.8192                 2.4632
 Frc consts  --      1.4867                 1.5401                 1.0176
 IR Inten    --      0.3703                 5.7732                10.0718

                     13                     14                     15
                      A                      A                      A
 Frequencies --    868.0901               892.8550               918.6038
 Red. masses --      2.5597                 1.7861                 2.6306
 Frc consts  --      1.1365                 0.8389                 1.3079
 IR Inten    --      9.2501                16.3083                14.7695

                     16                     17                     18
                      A                      A                      A
 Frequencies --    925.5195               944.6231               958.8452
 Red. masses --      3.0225                 2.5011                 2.0358
 Frc consts  --      1.5254                 1.3149                 1.1028
 IR Inten    --     15.6333                 5.2592                 1.0518

                     19                     20                     21
                      A                      A                      A
 Frequencies --    968.7615               978.1242               998.5380
 Red. masses --      2.2106                 1.8522                 1.8882
 Frc consts  --      1.2223                 1.0440                 1.1093
 IR Inten    --      0.5676                26.8666                21.5814

                     22                     23                     24
                      A                      A                      A
 Frequencies --   1078.8616              1086.8708              1123.1760
 Red. masses --      2.5501                 1.8576                 1.2447
 Frc consts  --      1.7488                 1.2929                 0.9252
 IR Inten    --     48.4747                15.9168                 0.7395

                     25                     26                     27
                      A                      A                      A
 Frequencies --   1126.3657              1152.6698              1174.3030
 Red. masses --      1.2995                 1.2621                 1.4937
 Frc consts  --      0.9714                 0.9880                 1.2136
 IR Inten    --      6.3462                 1.5560                 0.5749

                     28                     29                     30
                      A                      A                      A
 Frequencies --   1185.4593              1221.2065              1229.3473
 Red. masses --      1.2642                 2.9861                 1.4864
 Frc consts  --      1.0467                 2.6238                 1.3235
 IR Inten    --      5.8578                 7.3040                 5.5043

                     31                     32                     33
                      A                      A                      A
 Frequencies --   1258.5425              1288.5392              1296.7237
 Red. masses --      1.4928                 1.3969                 1.6128
 Frc consts  --      1.3932                 1.3666                 1.5978
 IR Inten    --      0.3731                 0.6464                 6.7230

                     34                     35                     36
                      A                      A                      A
 Frequencies --   1312.4304              1333.2184              1381.4948
 Red. masses --      1.5525                 1.6502                 1.3903
 Frc consts  --      1.5756                 1.7282                 1.5633
 IR Inten    --      2.1404                 0.6791                 0.8893

                     37                     38                     39
                      A                      A                      A
 Frequencies --   1432.8787              1480.9337              1493.4032
 Red. masses --      2.3700                 1.0985                 1.1090
 Frc consts  --      2.8669                 1.4195                 1.4572
 IR Inten    --     12.4440                 3.9910                 3.8806

                     40                     41                     42
                      A                      A                      A
 Frequencies --   1529.6806              1533.5757              3010.0498
 Red. masses --      1.1061                 1.4484                 1.0591
 Frc consts  --      1.5249                 2.0070                 5.6536
 IR Inten    --      0.5486                 3.8931                77.0530

                     43                     44                     45
                      A                      A                      A
 Frequencies --   3049.2073              3052.1002              3065.0749
 Red. masses --      1.0634                 1.1044                 1.0584
 Frc consts  --      5.8254                 6.0616                 5.8585
 IR Inten    --     13.9647                42.2140                18.7773

                     46                     47                     48
                      A                      A                      A
 Frequencies --   3072.2202              3100.5278              3113.9324
 Red. masses --      1.0503                 1.1039                 1.0882
 Frc consts  --      5.8405                 6.2523                 6.2170
 IR Inten    --     28.0760                16.7654                41.2113

                     49                     50                     51
                      A                      A                      A
 Frequencies --   3121.5751              3126.9991              3157.0537
 Red. masses --      1.1077                 1.0912                 1.1191
 Frc consts  --      6.3593                 6.2865                 6.5718
 IR Inten    --     23.7225                16.7005                26.2540

 - Thermochemistry -
 -------------------
 Temperature   298.150 Kelvin.  Pressure   1.00000 Atm.
 Atom     1 has atomic number  6 and mass  12.00000

 Molecular mass:   126.06808 amu.
 Principal axes and moments of inertia in atomic units:
                           1         2         3
     Eigenvalues --   569.467441155.380271232.38717
           X            0.99973   0.00653   0.02222
           Y           -0.00420   0.99464  -0.10336
           Z           -0.02277   0.10323   0.99440
 This molecule is an asymmetric top.
 Rotational symmetry number  1.
 Warning -- assumption of classical behavior for rotation
           may cause significant error
 Rotational temperatures (Kelvin)      0.15210     0.07497     0.07028
 Rotational constants (GHZ):           3.16917     1.56203     1.46443
 Zero-point vibrational energy     424653.2 (Joules/Mol)
                                  101.49456 (Kcal/Mol)
 Warning -- explicit consideration of   8 degrees of freedom as
           vibrations may cause significant error
 Vibrational temperatures:    145.97   338.52   415.41   496.58   580.56
          (Kelvin)            634.95   696.27   773.12   959.46  1130.70
                             1190.29  1204.77  1248.99  1284.62  1321.66
                             1331.61  1359.10  1379.56  1393.83  1407.30
                             1436.67  1552.24  1563.76  1616.00  1620.59
                             1658.43  1689.56  1705.61  1757.04  1768.75
                             1810.76  1853.92  1865.69  1888.29  1918.20
                             1987.66  2061.59  2130.73  2148.67  2200.87
                             2206.47  4330.78  4387.12  4391.29  4409.95
                             4420.23  4460.96  4480.25  4491.24  4499.05
                             4542.29

 Zero-point correction=                           0.161742 (Hartree/Particle)
 Thermal correction to Energy=                    0.168674
 Thermal correction to Enthalpy=                  0.169618
 Thermal correction to Gibbs Free Energy=         0.130528
 Sum of electronic and zero-point Energies=           -423.013068
 Sum of electronic and thermal Energies=              -423.006136
 Sum of electronic and thermal Enthalpies=            -423.005192
 Sum of electronic and thermal Free Energies=         -423.044282

                     E (Thermal)             CV                S
                      KCal/Mol        Cal/Mol-Kelvin    Cal/Mol-Kelvin
 Total                  105.844             28.503             82.271
 Electronic               0.000              0.000              0.000
 Translational            0.889              2.981             40.409
 Rotational               0.889              2.981             28.185
 Vibrational            104.067             22.541             13.677
 Vibration     1          0.604              1.948              3.426
 Vibration     2          0.655              1.787              1.838
 Vibration     3          0.685              1.695              1.481
 Vibration     4          0.724              1.585              1.188
 Vibration     5          0.769              1.463              0.950
 Vibration     6          0.801              1.380              0.822
 Vibration     7          0.840              1.286              0.700
 Vibration     8          0.892              1.167              0.571

 Optimization completed.
    -- Stationary point found.
 Normal termination of Gaussian 09 at Mon Jan 27 12:40:14 2020.
