 Gaussian 09, Revision D.01,
 Gaussian 09:  ES64L-G09RevD.01 24-Apr-2013

 -----------------------------
 # b3lyp 6-31G(2df,p) opt Freq
 -----------------------------

 -----
 titel
 -----
 Symbolic Z-matrix:
 Charge =  0 Multiplicity = 1

 SCF Done:  E(RB3LYP) =  -423.186242476     A.U. after   14 cycles
 Optimization completed.
    -- Stationary point found.
 Normal termination of Gaussian 09 at Mon Jan 27 11:29:02 2020.

 ----------------------------------------------------------------------
 #N Geom=AllCheck Guess=TCheck SCRF=Check GenChk RB3LYP/6-31G(2df,p) Fr
 eq
 ----------------------------------------------------------------------

 Structure from the checkpoint file:  "/scratch/puck/g09_dd0f6d0e-240b-4e62-b543-6ec469216919/Gau-60948.chk"
 -----
 titel
 -----
 Charge =  0 Multiplicity = 1

                         Standard orientation:
 ---------------------------------------------------------------------
 Center     Atomic      Atomic             Coordinates (Angstroms)
 Number     Number       Type             X           Y           Z
 ---------------------------------------------------------------------
      1          6           0        2.293104   -0.092607    0.151929
      2          6           0        1.299703   -1.279536    0.211069
      3          6           0        0.101258   -0.767114   -0.606790
      4          8           0       -1.171369   -1.346972   -0.349308
      5          6           0       -1.938321   -0.512681    0.522721
      6          6           0       -1.230100    0.821487    0.574295
      7          8           0       -1.029872    1.442590   -0.709299
      8          6           0        0.032987    0.678953   -0.151416
      9          6           0        1.418450    1.199770    0.173604
     10          1           0        3.021913   -0.118077    0.965163
     11          1           0        2.860756   -0.135868   -0.783434
     12          1           0        1.722125   -2.210978   -0.172612
     13          1           0        0.975273   -1.461686    1.242433
     14          1           0        0.292393   -0.867277   -1.682821
     15          1           0       -2.958059   -0.450107    0.125838
     16          1           0       -1.988357   -0.937700    1.537389
     17          1           0       -1.370648    1.497973    1.413171
     18          1           0        1.746154    1.927819   -0.573771
     19          1           0        1.445889    1.701327    1.145025
 ---------------------------------------------------------------------

 SCF Done:  E(RB3LYP) =  -423.186242476     A.U. after    1 cycles

 The electronic state is 1-A.
 Alpha  occ. eigenvalues --  -19.15178 -19.13628 -10.23656 -10.23616 -10.23139
 Alpha  occ. eigenvalues --  -10.22778 -10.19225 -10.19167 -10.18386  -1.08202
 Alpha  occ. eigenvalues --   -1.02066  -0.83228  -0.73937  -0.70630  -0.69431
 Alpha  occ. eigenvalues --   -0.60271  -0.58618  -0.56534  -0.50272  -0.48717
 Alpha  occ. eigenvalues --   -0.47246  -0.45676  -0.43633  -0.42110  -0.39943
 Alpha  occ. eigenvalues --   -0.38266  -0.35879  -0.35122  -0.34937  -0.33915
 Alpha  occ. eigenvalues --   -0.33594  -0.29629  -0.25528  -0.24482
 Alpha virt. eigenvalues --    0.07154   0.08051   0.10978   0.11982   0.12104
 Alpha virt. eigenvalues --    0.13857   0.14331   0.15246   0.16281   0.17059
 Alpha virt. eigenvalues --    0.18206   0.18670   0.19543   0.20395   0.22263

 Mulliken charges:
               1
     1  C   -0.212244
     2  C   -0.245267
     3  C    0.063009
     4  O   -0.283481
     5  C   -0.106264
     6  C   -0.081527
     7  O   -0.322033
     8  C    0.465844
     9  C   -0.339024
    10  H    0.105505
    11  H    0.110484
    12  H    0.104622
    13  H    0.102534
    14  H    0.089523
    15  H    0.117648
    16  H    0.097046
    17  H    0.102118
    18  H    0.120466
    19  H    0.111041
 Sum of Mulliken charges =   0.00000

 Dipole moment (field-independent basis, Debye):
    X=              1.4756    Y=              0.2059    Z=              1.8387  Tot=              2.3666
 Quadrupole moment (field-independent basis, Debye-Ang):
   XX=            -50.8780   YY=            -57.1509   ZZ=            -51.8802
   XY=             -0.3103   XZ=             -3.7658   YZ=              1.7037

  Exact polarizability:  85.869  -0.192  69.890  -5.135   0.897  65.408
 Approx polarizability: 113.669  -1.339 101.283  -7.027  -0.828 104.894

                      1                      2                      3
                      A                      A                      A
 Frequencies --     89.3348               174.5207               202.3147
 Red. masses --      2.4794                 2.0521                 2.2747
 Frc consts  --      0.0117                 0.0368                 0.0549
 IR Inten    --      1.6575                 1.3340                 1.8059

                      4                      5                      6
                      A                      A                      A
 Frequencies --    320.9575               379.3469               434.2947
 Red. masses --      3.1994                 3.5623                 4.1021
 Frc consts  --      0.1942                 0.3020                 0.4559
 IR Inten    --      1.8184                 1.6264                 4.1084

                      7                      8                      9
                      A                      A                      A
 Frequencies --    518.8425               543.9170               636.4946
 Red. masses --      4.7466                 2.9179                 3.1775
 Frc consts  --      0.7528                 0.5086                 0.7584
 IR Inten    --      5.4077                 0.9920                 2.1773

                     10                     11                     12
                      A                      A                      A
 Frequencies --    737.7557               755.0136               803.4063
 Red. masses --      3.7273                 2.8281                 1.9625
 Frc consts  --      1.1953                 0.9498                 0.7463
 IR Inten    --     11.7701                12.3173                 2.5186

                     13                     14                     15
                      A                      A                      A
 Frequencies --    855.9934               865.3425               904.7672
 Red. masses --      2.2995                 2.6576                 2.3263
 Frc consts  --      0.9927                 1.1725                 1.1220
 IR Inten    --     11.5401                13.6357                 2.4815

                     16                     17                     18
                      A                      A                      A
 Frequencies --    933.0326               945.1978               969.0025
 Red. masses --      2.0415                 2.0270                 3.1556
 Frc consts  --      1.0471                 1.0670                 1.7458
 IR Inten    --      6.6810                 7.0838                17.8243

                     19                     20                     21
                      A                      A                      A
 Frequencies --   1009.1512              1017.0918              1026.8791
 Red. masses --      2.0228                 1.8058                 2.5375
 Frc consts  --      1.2137                 1.1006                 1.5765
 IR Inten    --      7.1700                 0.3060                 6.6141

                     22                     23                     24
                      A                      A                      A
 Frequencies --   1078.7747              1106.3236              1114.7983
 Red. masses --      2.2911                 1.9268                 4.2196
 Frc consts  --      1.5709                 1.3895                 3.0897
 IR Inten    --     15.0707                 0.8013                90.3631

                     25                     26                     27
                      A                      A                      A
 Frequencies --   1166.0194              1185.5969              1222.0054
 Red. masses --      1.9341                 1.4818                 1.6997
 Frc consts  --      1.5493                 1.2272                 1.4954
 IR Inten    --     16.6494                 6.2392                 2.0033

                     28                     29                     30
                      A                      A                      A
 Frequencies --   1227.2336              1236.9309              1279.0328
 Red. masses --      1.1736                 1.4405                 1.4429
 Frc consts  --      1.0414                 1.2985                 1.3908
 IR Inten    --      8.3750                 1.6377                 1.4141

                     31                     32                     33
                      A                      A                      A
 Frequencies --   1303.3671              1307.8647              1334.6011
 Red. masses --      1.3859                 1.2448                 1.5448
 Frc consts  --      1.3872                 1.2545                 1.6212
 IR Inten    --      2.1396                 0.4052                 1.0238

                     34                     35                     36
                      A                      A                      A
 Frequencies --   1338.2713              1363.5016              1388.6013
 Red. masses --      1.4244                 1.3115                 1.5565
 Frc consts  --      1.5031                 1.4365                 1.7682
 IR Inten    --      0.8077                 3.0444                 7.7431

                     37                     38                     39
                      A                      A                      A
 Frequencies --   1477.1681              1487.0830              1491.8074
 Red. masses --      3.7472                 1.1092                 1.1069
 Frc consts  --      4.8175                 1.4453                 1.4514
 IR Inten    --     14.0233                 1.6610                 2.1222

                     40                     41                     42
                      A                      A                      A
 Frequencies --   1508.4779              1510.0914              2986.1714
 Red. masses --      1.0963                 1.1324                 1.0681
 Frc consts  --      1.4698                 1.5214                 5.6116
 IR Inten    --      1.1060                 4.1492                63.3234

                     43                     44                     45
                      A                      A                      A
 Frequencies --   3028.8366              3043.8125              3051.1848
 Red. masses --      1.0835                 1.0678                 1.0629
 Frc consts  --      5.8567                 5.8287                 5.8300
 IR Inten    --     17.2321                22.7739                28.5772

                     46                     47                     48
                      A                      A                      A
 Frequencies --   3057.4038              3059.5028              3091.5892
 Red. masses --      1.0944                 1.0625                 1.1001
 Frc consts  --      6.0274                 5.8598                 6.1948
 IR Inten    --     36.8827                27.6647                10.3550

                     49                     50                     51
                      A                      A                      A
 Frequencies --   3104.5308              3112.0909              3153.3588
 Red. masses --      1.0991                 1.1043                 1.0916
 Frc consts  --      6.2415                 6.3017                 6.3954
 IR Inten    --     21.9349                45.1745                19.0997

 - Thermochemistry -
 -------------------
 Temperature   298.150 Kelvin.  Pressure   1.00000 Atm.
 Atom     1 has atomic number  6 and mass  12.00000

 Molecular mass:   126.06808 amu.
 Principal axes and moments of inertia in atomic units:
                           1         2         3
     Eigenvalues --   628.774371021.244211399.98197
           X            0.99985   0.00665  -0.01587
           Y           -0.00643   0.99989   0.01345
           Z            0.01596  -0.01334   0.99978
 This molecule is an asymmetric top.
 Rotational symmetry number  1.
 Warning -- assumption of classical behavior for rotation
           may cause significant error
 Rotational temperatures (Kelvin)      0.13775     0.08481     0.06187
 Rotational constants (GHZ):           2.87025     1.76720     1.28912
 Zero-point vibrational energy     424307.6 (Joules/Mol)
                                  101.41195 (Kcal/Mol)
 Warning -- explicit consideration of   8 degrees of freedom as
           vibrations may cause significant error
 Vibrational temperatures:    128.53   251.10   291.09   461.79   545.79
          (Kelvin)            624.85   746.50   782.57   915.77  1061.46
                             1086.29  1155.92  1231.58  1245.03  1301.76
                             1342.42  1359.93  1394.18  1451.94  1463.37
                             1477.45  1552.11  1591.75  1603.94  1677.64
                             1705.81  1758.19  1765.71  1779.67  1840.24
                             1875.25  1881.72  1920.19  1925.47  1961.77
                             1997.89  2125.31  2139.58  2146.38  2170.36
                             2172.68  4296.43  4357.81  4379.36  4389.97
                             4398.92  4401.94  4448.10  4466.72  4477.60
                             4536.97

 Zero-point correction=                           0.161610 (Hartree/Particle)
 Thermal correction to Energy=                    0.168840
 Thermal correction to Enthalpy=                  0.169784
 Thermal correction to Gibbs Free Energy=         0.129860
 Sum of electronic and zero-point Energies=           -423.024632
 Sum of electronic and thermal Energies=              -423.017402
 Sum of electronic and thermal Enthalpies=            -423.016458
 Sum of electronic and thermal Free Energies=         -423.056382

                     E (Thermal)             CV                S
                      KCal/Mol        Cal/Mol-Kelvin    Cal/Mol-Kelvin
 Total                  105.949             28.779             84.027
 Electronic               0.000              0.000              0.000
 Translational            0.889              2.981             40.409
 Rotational               0.889              2.981             28.288
 Vibrational            104.171             22.818             15.330
 Vibration     1          0.602              1.957              3.675
 Vibration     2          0.627              1.874              2.386
 Vibration     3          0.639              1.837              2.112
 Vibration     4          0.706              1.633              1.305
 Vibration     5          0.749              1.514              1.042
 Vibration     6          0.795              1.395              0.845
 Vibration     7          0.874              1.208              0.613
 Vibration     8          0.899              1.153              0.557

 Optimization completed.
    -- Stationary point found.
 Normal termination of Gaussian 09 at Mon Jan 27 13:50:06 2020.
