 Gaussian 09, Revision D.01,
 Gaussian 09:  ES64L-G09RevD.01 24-Apr-2013

 -----------------------------
 # b3lyp 6-31G(2df,p) opt Freq
 -----------------------------

 -----
 titel
 -----
 Symbolic Z-matrix:
 Charge =  0 Multiplicity = 1

 SCF Done:  E(RB3LYP) =  -423.154249199     A.U. after   13 cycles
 Optimization completed.
    -- Stationary point found.
 Normal termination of Gaussian 09 at Tue Jan 28 14:06:04 2020.

 ----------------------------------------------------------------------
 #N Geom=AllCheck Guess=TCheck SCRF=Check GenChk RB3LYP/6-31G(2df,p) Fr
 eq
 ----------------------------------------------------------------------

 Structure from the checkpoint file:  "/scratch/puck/g09_c005425d-0078-41eb-9cc5-da248f740818/Gau-98273.chk"
 -----
 titel
 -----
 Charge =  0 Multiplicity = 1

                         Standard orientation:
 ---------------------------------------------------------------------
 Center     Atomic      Atomic             Coordinates (Angstroms)
 Number     Number       Type             X           Y           Z
 ---------------------------------------------------------------------
      1          6           0       -2.914740    0.360270   -0.393226
      2          8           0       -1.905463   -0.562756   -0.047070
      3          6           0       -0.620205   -0.133278   -0.391566
      4          6           0        0.430439   -1.105467    0.180943
      5          6           0        1.786619   -0.961544   -0.525725
      6          6           0        2.138594    0.512422   -0.595435
      7          6           0        1.309147    1.400466   -0.044778
      8          6           0        0.074279    0.832055    0.620756
      9          8           0        0.466657   -0.329100    1.411650
     10          1           0       -2.919833    0.567667   -1.474816
     11          1           0       -3.871208   -0.086829   -0.113491
     12          1           0       -2.802841    1.315952    0.139908
     13          1           0       -0.559202    0.144167   -1.453339
     14          1           0        0.113289   -2.138394    0.343977
     15          1           0        2.556689   -1.517943    0.024506
     16          1           0        1.743087   -1.401873   -1.531032
     17          1           0        3.065419    0.806353   -1.079111
     18          1           0        1.482488    2.470899   -0.071593
     19          1           0       -0.522248    1.545302    1.192549
 ---------------------------------------------------------------------

 SCF Done:  E(RB3LYP) =  -423.154249199     A.U. after    1 cycles

 The electronic state is 1-A.
 Alpha  occ. eigenvalues --  -19.14557 -19.12528 -10.23397 -10.23256 -10.23229
 Alpha  occ. eigenvalues --  -10.22746 -10.19019 -10.18803 -10.18183  -1.05498
 Alpha  occ. eigenvalues --   -1.02068  -0.80719  -0.74322  -0.73487  -0.66862
 Alpha  occ. eigenvalues --   -0.61814  -0.58423  -0.52804  -0.52102  -0.47320
 Alpha  occ. eigenvalues --   -0.46580  -0.46103  -0.43693  -0.42368  -0.40779
 Alpha  occ. eigenvalues --   -0.40046  -0.38872  -0.36137  -0.33853  -0.32729
 Alpha  occ. eigenvalues --   -0.29716  -0.27037  -0.24134  -0.23431
 Alpha virt. eigenvalues --    0.00410   0.09451   0.09654   0.11405   0.12400
 Alpha virt. eigenvalues --    0.13887   0.14674   0.15172   0.15939   0.16745
 Alpha virt. eigenvalues --    0.17294   0.18031   0.19131   0.19983   0.21333

 Mulliken charges:
               1
     1  C   -0.244072
     2  O   -0.253262
     3  C    0.166730
     4  C    0.046725
     5  C   -0.271979
     6  C   -0.069449
     7  C   -0.054492
     8  C   -0.016486
     9  O   -0.294552
    10  H    0.105740
    11  H    0.131497
    12  H    0.108135
    13  H    0.066835
    14  H    0.084970
    15  H    0.118513
    16  H    0.108775
    17  H    0.096017
    18  H    0.091940
    19  H    0.078416
 Sum of Mulliken charges =   0.00000

 Dipole moment (field-independent basis, Debye):
    X=             -0.1243    Y=              1.0603    Z=             -2.0981  Tot=              2.3541
 Quadrupole moment (field-independent basis, Debye-Ang):
   XX=            -49.2833   YY=            -50.3059   ZZ=            -56.4961
   XY=             -3.0181   XZ=             -1.1782   YZ=              1.5066

  Exact polarizability:  89.972  -4.445  76.855  -5.939   3.344  61.713
 Approx polarizability: 116.605 -10.052 118.010 -10.640   7.034 100.195

                      1                      2                      3
                      A                      A                      A
 Frequencies --    100.0398               163.7053               178.0609
 Red. masses --      2.7342                 2.7578                 1.2657
 Frc consts  --      0.0161                 0.0435                 0.0236
 IR Inten    --      2.4445                 0.1720                 0.4855

                      4                      5                      6
                      A                      A                      A
 Frequencies --    272.6831               279.6763               355.2138
 Red. masses --      2.5888                 2.2853                 5.7789
 Frc consts  --      0.1134                 0.1053                 0.4296
 IR Inten    --      2.6680                 0.7352                 2.4679

                      7                      8                      9
                      A                      A                      A
 Frequencies --    429.1985               487.0123               496.0539
 Red. masses --      3.3534                 2.7860                 3.6922
 Frc consts  --      0.3640                 0.3893                 0.5353
 IR Inten    --      1.4312                 6.3060                 6.0969

                     10                     11                     12
                      A                      A                      A
 Frequencies --    577.4513               693.5954               774.6685
 Red. masses --      5.1115                 1.5821                 3.9174
 Frc consts  --      1.0042                 0.4484                 1.3851
 IR Inten    --      0.4646                17.4497                15.3298

                     13                     14                     15
                      A                      A                      A
 Frequencies --    870.0623               885.4393               901.2500
 Red. masses --      2.7537                 3.0060                 2.3505
 Frc consts  --      1.2282                 1.3885                 1.1249
 IR Inten    --     14.6624                27.3620                11.9517

                     16                     17                     18
                      A                      A                      A
 Frequencies --    934.3030               940.8204               961.9484
 Red. masses --      4.0884                 2.8744                 3.5968
 Frc consts  --      2.1027                 1.4990                 1.9610
 IR Inten    --     12.2466                16.9341                22.2103

                     19                     20                     21
                      A                      A                      A
 Frequencies --    971.9929               998.1712              1013.9708
 Red. masses --      1.2597                 2.6632                 2.0037
 Frc consts  --      0.7012                 1.5634                 1.2138
 IR Inten    --      0.8766                 9.6822                 3.4401

                     22                     23                     24
                      A                      A                      A
 Frequencies --   1040.4120              1099.5418              1146.2155
 Red. masses --      2.6701                 3.6501                 1.3066
 Frc consts  --      1.7029                 2.6000                 1.0114
 IR Inten    --     11.1128                23.8073                25.4481

                     25                     26                     27
                      A                      A                      A
 Frequencies --   1157.0892              1172.1748              1182.7155
 Red. masses --      2.1050                 1.1864                 1.2961
 Frc consts  --      1.6605                 0.9604                 1.0682
 IR Inten    --     91.3575                16.1545                 4.6166

                     28                     29                     30
                      A                      A                      A
 Frequencies --   1205.9154              1231.5837              1251.2447
 Red. masses --      1.4448                 1.5480                 1.7387
 Frc consts  --      1.2380                 1.3834                 1.6039
 IR Inten    --      5.1894                44.1224                35.0072

                     31                     32                     33
                      A                      A                      A
 Frequencies --   1280.8849              1296.5428              1332.9253
 Red. masses --      1.3417                 1.5517                 1.4755
 Frc consts  --      1.2970                 1.5368                 1.5446
 IR Inten    --      0.5362                 0.5096                 7.3380

                     34                     35                     36
                      A                      A                      A
 Frequencies --   1352.2344              1384.6257              1405.6529
 Red. masses --      1.4647                 1.5446                 1.5100
 Frc consts  --      1.5779                 1.7447                 1.7578
 IR Inten    --      1.9557                 5.8816                21.3209

                     37                     38                     39
                      A                      A                      A
 Frequencies --   1466.9928              1482.1465              1487.8591
 Red. masses --      1.0952                 1.1481                 1.0640
 Frc consts  --      1.3887                 1.4859                 1.3878
 IR Inten    --      3.9655                 1.6063                 4.1279

                     40                     41                     42
                      A                      A                      A
 Frequencies --   1507.9701              1691.0971              2976.4588
 Red. masses --      1.0613                 6.2269                 1.0384
 Frc consts  --      1.4219                10.4920                 5.4200
 IR Inten    --      7.7887                 2.9637                48.9069

                     43                     44                     45
                      A                      A                      A
 Frequencies --   3004.4293              3016.1886              3025.9106
 Red. masses --      1.0838                 1.0596                 1.1020
 Frc consts  --      5.7638                 5.6797                 5.9451
 IR Inten    --     53.5667                32.6557                44.3923

                     46                     47                     48
                      A                      A                      A
 Frequencies --   3046.2569              3087.9945              3097.8916
 Red. masses --      1.1017                 1.0884                 1.0892
 Frc consts  --      6.0236                 6.1150                 6.1586
 IR Inten    --     20.4403                43.7509                39.4190

                     49                     50                     51
                      A                      A                      A
 Frequencies --   3120.3658              3166.2099              3192.8454
 Red. masses --      1.0964                 1.0853                 1.1000
 Frc consts  --      6.2896                 6.4103                 6.6067
 IR Inten    --     27.8152                 8.4536                24.6235

 - Thermochemistry -
 -------------------
 Temperature   298.150 Kelvin.  Pressure   1.00000 Atm.
 Atom     1 has atomic number  6 and mass  12.00000

 Molecular mass:   126.06808 amu.
 Principal axes and moments of inertia in atomic units:
                           1         2         3
     Eigenvalues --   524.580761411.783491525.82944
           X            0.99967  -0.02512  -0.00578
           Y            0.02533   0.99887   0.04014
           Z            0.00477  -0.04027   0.99918
 This molecule is an asymmetric top.
 Rotational symmetry number  1.
 Warning -- assumption of classical behavior for rotation
           may cause significant error
 Rotational temperatures (Kelvin)      0.16511     0.06135     0.05677
 Rotational constants (GHZ):           3.44035     1.27834     1.18279
 Zero-point vibrational energy     419863.5 (Joules/Mol)
                                  100.34978 (Kcal/Mol)
 Warning -- explicit consideration of  10 degrees of freedom as
           vibrations may cause significant error
 Vibrational temperatures:    143.93   235.54   256.19   392.33   402.39
          (Kelvin)            511.07   617.52   700.70   713.71   830.82
                              997.93  1114.57  1251.82  1273.95  1296.70
                             1344.25  1353.63  1384.03  1398.48  1436.14
                             1458.88  1496.92  1581.99  1649.15  1664.79
                             1686.50  1701.66  1735.04  1771.97  1800.26
                             1842.91  1865.43  1917.78  1945.56  1992.17
                             2022.42  2110.67  2132.48  2140.69  2169.63
                             2433.11  4282.45  4322.70  4339.62  4353.61
                             4382.88  4442.93  4457.17  4489.50  4555.46
                             4593.79

 Zero-point correction=                           0.159918 (Hartree/Particle)
 Thermal correction to Energy=                    0.167754
 Thermal correction to Enthalpy=                  0.168699
 Thermal correction to Gibbs Free Energy=         0.127617
 Sum of electronic and zero-point Energies=           -422.994332
 Sum of electronic and thermal Energies=              -422.986495
 Sum of electronic and thermal Enthalpies=            -422.985551
 Sum of electronic and thermal Free Energies=         -423.026632

                     E (Thermal)             CV                S
                      KCal/Mol        Cal/Mol-Kelvin    Cal/Mol-Kelvin
 Total                  105.267             30.486             86.463
 Electronic               0.000              0.000              0.000
 Translational            0.889              2.981             40.409
 Rotational               0.889              2.981             28.515
 Vibrational            103.490             24.524             17.540
 Vibration     1          0.604              1.949              3.454
 Vibration     2          0.623              1.887              2.507
 Vibration     3          0.628              1.869              2.349
 Vibration     4          0.676              1.724              1.579
 Vibration     5          0.680              1.711              1.536
 Vibration     6          0.731              1.565              1.143
 Vibration     7          0.791              1.407              0.861
 Vibration     8          0.843              1.279              0.691
 Vibration     9          0.852              1.259              0.668
 Vibration    10          0.934              1.080              0.490

 Optimization completed.
    -- Stationary point found.
 Normal termination of Gaussian 09 at Tue Jan 28 14:54:05 2020.
