 Gaussian 09, Revision D.01,
 Gaussian 09:  ES64L-G09RevD.01 24-Apr-2013

 -----------------------------
 # b3lyp 6-31G(2df,p) opt Freq
 -----------------------------

 -----
 titel
 -----
 Symbolic Z-matrix:
 Charge =  0 Multiplicity = 1

 SCF Done:  E(RB3LYP) =  -423.168181262     A.U. after   14 cycles
 Optimization completed.
    -- Stationary point found.
 Normal termination of Gaussian 09 at Mon Jan 27 22:13:46 2020.

 ----------------------------------------------------------------------
 #N Geom=AllCheck Guess=TCheck SCRF=Check GenChk RB3LYP/6-31G(2df,p) Fr
 eq
 ----------------------------------------------------------------------

 Structure from the checkpoint file:  "/scratch/puck/g09_b3eaafea-9558-4316-9be6-0cf4146f2fee/Gau-28612.chk"
 -----
 titel
 -----
 Charge =  0 Multiplicity = 1

                         Standard orientation:
 ---------------------------------------------------------------------
 Center     Atomic      Atomic             Coordinates (Angstroms)
 Number     Number       Type             X           Y           Z
 ---------------------------------------------------------------------
      1          6           0       -2.541782   -1.099549   -0.383777
      2          6           0       -1.598055    0.040037   -0.024143
      3          6           0       -0.694522   -0.232095    1.223946
      4          6           0        0.556910   -0.181435    0.342180
      5          6           0        1.723108   -1.069300    0.390002
      6          8           0        2.616613   -1.079371   -0.429434
      7          6           0        0.612908    1.129447   -0.436154
      8          8           0        0.134184    2.315339    0.116069
      9          6           0       -0.345868    0.122022   -0.913828
     10          1           0       -3.025550   -0.922164   -1.350525
     11          1           0       -2.005282   -2.053167   -0.449521
     12          1           0       -3.328272   -1.207038    0.370558
     13          1           0       -2.144945    0.985349    0.027481
     14          1           0       -0.739754    0.510922    2.024418
     15          1           0       -0.868667   -1.225190    1.647703
     16          1           0        1.736378   -1.768866    1.257986
     17          1           0        1.524531    1.212052   -1.026434
     18          1           0        0.810359    2.667426    0.704662
     19          1           0       -0.241370   -0.341823   -1.888764
 ---------------------------------------------------------------------

 SCF Done:  E(RB3LYP) =  -423.168181262     A.U. after    1 cycles

 The electronic state is 1-A.
 Alpha  occ. eigenvalues --  -19.15740 -19.12668 -10.26355 -10.25015 -10.20794
 Alpha  occ. eigenvalues --  -10.20309 -10.19952 -10.19252 -10.18156  -1.04457
 Alpha  occ. eigenvalues --   -1.03289  -0.89977  -0.76750  -0.70887  -0.66987
 Alpha  occ. eigenvalues --   -0.61247  -0.57344  -0.54033  -0.52917  -0.48702
 Alpha  occ. eigenvalues --   -0.47479  -0.44689  -0.43254  -0.40574  -0.39935
 Alpha  occ. eigenvalues --   -0.39739  -0.38222  -0.36395  -0.34068  -0.33308
 Alpha  occ. eigenvalues --   -0.31544  -0.29146  -0.25503  -0.24365
 Alpha virt. eigenvalues --   -0.02557   0.06471   0.10182   0.10869   0.11543
 Alpha virt. eigenvalues --    0.12600   0.14227   0.15034   0.15938   0.16147
 Alpha virt. eigenvalues --    0.17162   0.17806   0.18435   0.19961   0.24845

 Mulliken charges:
               1
     1  C   -0.413032
     2  C    0.038024
     3  C   -0.325882
     4  C    0.184427
     5  C    0.042077
     6  O   -0.281270
     7  C    0.059271
     8  O   -0.415485
     9  C   -0.127346
    10  H    0.118852
    11  H    0.116319
    12  H    0.118356
    13  H    0.093235
    14  H    0.099789
    15  H    0.105638
    16  H    0.065565
    17  H    0.120176
    18  H    0.292821
    19  H    0.108466
 Sum of Mulliken charges =   0.00000

 Dipole moment (field-independent basis, Debye):
    X=             -1.6253    Y=              0.5577    Z=              1.4438  Tot=              2.2443
 Quadrupole moment (field-independent basis, Debye-Ang):
   XX=            -59.4846   YY=            -53.1623   ZZ=            -51.2039
   XY=              6.7765   XZ=              3.6053   YZ=              0.7535

  Exact polarizability:  88.150  -2.609  75.569  -0.149  -2.481  70.263
 Approx polarizability: 125.587  -9.772 111.437  -2.439  -4.270 110.885

                      1                      2                      3
                      A                      A                      A
 Frequencies --     87.2976               136.6814               189.0059
 Red. masses --      4.3822                 2.7927                 4.8296
 Frc consts  --      0.0197                 0.0307                 0.1017
 IR Inten    --      4.7875                 8.3048                 6.5913

                      4                      5                      6
                      A                      A                      A
 Frequencies --    207.5732               221.7598               257.1208
 Red. masses --      2.5120                 2.2083                 1.2734
 Frc consts  --      0.0638                 0.0640                 0.0496
 IR Inten    --      0.5299                 0.4641                 1.4434

                      7                      8                      9
                      A                      A                      A
 Frequencies --    305.0935               332.7790               377.9941
 Red. masses --      2.4035                 1.1692                 2.5562
 Frc consts  --      0.1318                 0.0763                 0.2152
 IR Inten    --     19.5784                90.5002                 2.3480

                     10                     11                     12
                      A                      A                      A
 Frequencies --    445.1036               531.1977               600.0302
 Red. masses --      4.0766                 2.8252                 5.3440
 Frc consts  --      0.4759                 0.4697                 1.1336
 IR Inten    --     10.4052                 4.4544                 6.9788

                     13                     14                     15
                      A                      A                      A
 Frequencies --    693.5122               720.1455               779.3059
 Red. masses --      3.8753                 3.1813                 4.2463
 Frc consts  --      1.0982                 0.9721                 1.5194
 IR Inten    --     34.0443                 7.5503                 7.4801

                     16                     17                     18
                      A                      A                      A
 Frequencies --    864.6495               885.0502               906.4844
 Red. masses --      2.6996                 2.3942                 1.4911
 Frc consts  --      1.1891                 1.1050                 0.7219
 IR Inten    --      3.0146                15.7383                14.8011

                     19                     20                     21
                      A                      A                      A
 Frequencies --    959.6255               986.0527              1022.8590
 Red. masses --      1.3234                 1.9209                 1.5481
 Frc consts  --      0.7180                 1.1004                 0.9543
 IR Inten    --      7.0127                35.2717                 6.0636

                     22                     23                     24
                      A                      A                      A
 Frequencies --   1057.5765              1072.7537              1090.8034
 Red. masses --      1.9302                 1.4302                 1.9292
 Frc consts  --      1.2720                 0.9697                 1.3524
 IR Inten    --      2.7839                 8.0369                 4.4566

                     25                     26                     27
                      A                      A                      A
 Frequencies --   1129.4628              1159.2512              1191.5773
 Red. masses --      1.7357                 3.4348                 1.6441
 Frc consts  --      1.3046                 2.7196                 1.3754
 IR Inten    --     11.4781                31.1956                10.0325

                     28                     29                     30
                      A                      A                      A
 Frequencies --   1226.6476              1242.0590              1250.9222
 Red. masses --      1.8279                 1.4225                 1.5216
 Frc consts  --      1.6205                 1.2930                 1.4028
 IR Inten    --     33.7642                11.4556                60.6842

                     31                     32                     33
                      A                      A                      A
 Frequencies --   1273.9289              1314.0354              1317.1743
 Red. masses --      1.5669                 1.8705                 1.3638
 Frc consts  --      1.4983                 1.9029                 1.3940
 IR Inten    --     69.7645                69.2770                 6.2570

                     34                     35                     36
                      A                      A                      A
 Frequencies --   1369.3395              1413.2980              1431.4470
 Red. masses --      1.6838                 1.2486                 1.3515
 Frc consts  --      1.8602                 1.4694                 1.6316
 IR Inten    --      2.1684                 1.8162                 7.6945

                     37                     38                     39
                      A                      A                      A
 Frequencies --   1470.8001              1489.1741              1494.5935
 Red. masses --      1.4657                 1.5009                 1.0666
 Frc consts  --      1.8681                 1.9611                 1.4038
 IR Inten    --      7.2584                29.8986                 0.8052

                     40                     41                     42
                      A                      A                      A
 Frequencies --   1500.0974              1783.9953              2858.4812
 Red. masses --      1.0506                10.0750                 1.0815
 Frc consts  --      1.3929                18.8922                 5.2065
 IR Inten    --      2.3264               212.0412               133.3461

                     43                     44                     45
                      A                      A                      A
 Frequencies --   3025.4083              3053.2124              3066.6944
 Red. masses --      1.0352                 1.0576                 1.0860
 Frc consts  --      5.5829                 5.8086                 6.0177
 IR Inten    --     25.1285                33.5069                 6.1156

                     46                     47                     48
                      A                      A                      A
 Frequencies --   3094.0005              3099.2669              3107.1311
 Red. masses --      1.1012                 1.1013                 1.1066
 Frc consts  --      6.2110                 6.2329                 6.2945
 IR Inten    --     29.6838                24.7744                33.2157

                     49                     50                     51
                      A                      A                      A
 Frequencies --   3128.4480              3176.7753              3809.9343
 Red. masses --      1.0871                 1.0924                 1.0661
 Frc consts  --      6.2686                 6.4954                 9.1179
 IR Inten    --      6.8297                 9.0357                32.5497

 - Thermochemistry -
 -------------------
 Temperature   298.150 Kelvin.  Pressure   1.00000 Atm.
 Atom     1 has atomic number  6 and mass  12.00000

 Molecular mass:   126.06808 amu.
 Principal axes and moments of inertia in atomic units:
                           1         2         3
     Eigenvalues --   799.074271285.848941697.71003
           X            0.99693   0.07772   0.00915
           Y           -0.07772   0.99697  -0.00087
           Z           -0.00919   0.00015   0.99996
 This molecule is an asymmetric top.
 Rotational symmetry number  1.
 Warning -- assumption of classical behavior for rotation
           may cause significant error
 Rotational temperatures (Kelvin)      0.10839     0.06736     0.05102
 Rotational constants (GHZ):           2.25854     1.40354     1.06304
 Zero-point vibrational energy     413953.4 (Joules/Mol)
                                   98.93725 (Kcal/Mol)
 Warning -- explicit consideration of  12 degrees of freedom as
           vibrations may cause significant error
 Vibrational temperatures:    125.60   196.65   271.94   298.65   319.06
          (Kelvin)            369.94   438.96   478.79   543.85   640.40
                              764.27   863.31   997.81  1036.13  1121.25
                             1244.04  1273.39  1304.23  1380.69  1418.71
                             1471.66  1521.61  1543.45  1569.42  1625.04
                             1667.90  1714.41  1764.87  1787.04  1799.80
                             1832.90  1890.60  1895.12  1970.17  2033.42
                             2059.53  2116.15  2142.59  2150.38  2158.30
                             2566.77  4112.71  4352.88  4392.89  4412.28
                             4451.57  4459.15  4470.46  4501.13  4570.67
                             5481.64

 Zero-point correction=                           0.157667 (Hartree/Particle)
 Thermal correction to Energy=                    0.166667
 Thermal correction to Enthalpy=                  0.167611
 Thermal correction to Gibbs Free Energy=         0.124094
 Sum of electronic and zero-point Energies=           -423.010515
 Sum of electronic and thermal Energies=              -423.001515
 Sum of electronic and thermal Enthalpies=            -423.000570
 Sum of electronic and thermal Free Energies=         -423.044088

                     E (Thermal)             CV                S
                      KCal/Mol        Cal/Mol-Kelvin    Cal/Mol-Kelvin
 Total                  104.585             33.751             91.590
 Electronic               0.000              0.000              0.000
 Translational            0.889              2.981             40.409
 Rotational               0.889              2.981             28.946
 Vibrational            102.808             27.790             22.235
 Vibration     1          0.601              1.958              3.720
 Vibration     2          0.614              1.917              2.850
 Vibration     3          0.633              1.855              2.238
 Vibration     4          0.641              1.829              2.065
 Vibration     5          0.648              1.808              1.945
 Vibration     6          0.667              1.751              1.681
 Vibration     7          0.696              1.664              1.389
 Vibration     8          0.715              1.610              1.247
 Vibration     9          0.748              1.517              1.047
 Vibration    10          0.804              1.372              0.811
 Vibration    11          0.886              1.181              0.585
 Vibration    12          0.958              1.032              0.450

 Normal termination of Gaussian 09 at Tue Jan 28 00:24:37 2020.
