 Gaussian 09, Revision D.01,
 Gaussian 09:  ES64L-G09RevD.01 24-Apr-2013

 -----------------------------
 # b3lyp 6-31G(2df,p) opt Freq
 -----------------------------

 -----
 titel
 -----
 Symbolic Z-matrix:
 Charge =  0 Multiplicity = 1

 SCF Done:  E(RB3LYP) =  -423.094053034     A.U. after   14 cycles
 Optimization completed.
    -- Stationary point found.
 Normal termination of Gaussian 09 at Mon Jan 27 22:55:36 2020.

 ----------------------------------------------------------------------
 #N Geom=AllCheck Guess=TCheck SCRF=Check GenChk RB3LYP/6-31G(2df,p) Fr
 eq
 ----------------------------------------------------------------------

 Structure from the checkpoint file:  "/scratch/puck/g09_11801046-9d39-43e1-8ae5-f3d8464de3d5/Gau-101370.chk"
 -----
 titel
 -----
 Charge =  0 Multiplicity = 1

                         Standard orientation:
 ---------------------------------------------------------------------
 Center     Atomic      Atomic             Coordinates (Angstroms)
 Number     Number       Type             X           Y           Z
 ---------------------------------------------------------------------
      1          8           0        1.311685   -1.630310   -0.726823
      2          6           0        1.307717   -0.597071    0.215151
      3          6           0        0.161536   -0.437113    1.267258
      4          8           0        0.532837    0.994358    1.320468
      5          6           0        0.490203    0.674448   -0.138206
      6          6           0        0.777614    1.758045   -1.125797
      7          6           0       -0.807712   -0.114507    0.130848
      8          6           0       -1.750091   -0.897915   -0.708977
      9          6           0       -2.237651    0.291415    0.112925
     10          1           0        1.828181   -2.361082   -0.374083
     11          1           0        2.297561   -0.369778    0.627376
     12          1           0       -0.009070   -0.949553    2.214493
     13          1           0        1.760003    2.200007   -0.934416
     14          1           0        0.774946    1.347010   -2.140177
     15          1           0        0.022749    2.547873   -1.065361
     16          1           0       -1.695282   -0.787235   -1.787083
     17          1           0       -2.028721   -1.894476   -0.382117
     18          1           0       -2.512070    1.197917   -0.417855
     19          1           0       -2.844173    0.093119    0.990847
 ---------------------------------------------------------------------

 SCF Done:  E(RB3LYP) =  -423.094053034     A.U. after    1 cycles

 The electronic state is 1-A.
 Alpha  occ. eigenvalues --  -19.14521 -19.12698 -10.24386 -10.23654 -10.23626
 Alpha  occ. eigenvalues --  -10.19476 -10.18215 -10.18114 -10.18021  -1.05596
 Alpha  occ. eigenvalues --   -1.02157  -0.84965  -0.75916  -0.73493  -0.63031
 Alpha  occ. eigenvalues --   -0.61223  -0.59706  -0.52934  -0.50696  -0.48007
 Alpha  occ. eigenvalues --   -0.47345  -0.45128  -0.43091  -0.41177  -0.39715
 Alpha  occ. eigenvalues --   -0.36725  -0.36148  -0.35873  -0.32649  -0.30445
 Alpha  occ. eigenvalues --   -0.29365  -0.27876  -0.26655  -0.23178
 Alpha virt. eigenvalues --    0.06616   0.09699   0.09879   0.11204   0.12637
 Alpha virt. eigenvalues --    0.13403   0.14066   0.15036   0.15416   0.16509
 Alpha virt. eigenvalues --    0.16624   0.19456   0.20703   0.21611   0.23349

 Mulliken charges:
               1
     1  O   -0.430569
     2  C    0.091298
     3  C   -0.115028
     4  O   -0.342674
     5  C    0.278526
     6  C   -0.527413
     7  C    0.443016
     8  C   -0.339677
     9  C   -0.373681
    10  H    0.290034
    11  H    0.079171
    12  H    0.086595
    13  H    0.134718
    14  H    0.136757
    15  H    0.133543
    16  H    0.115543
    17  H    0.111901
    18  H    0.113223
    19  H    0.114718
 Sum of Mulliken charges =   0.00000

 Dipole moment (field-independent basis, Debye):
    X=              0.4548    Y=             -1.4601    Z=             -0.3972  Tot=              1.5800
 Quadrupole moment (field-independent basis, Debye-Ang):
   XX=            -50.4920   YY=            -49.9204   ZZ=            -54.4264
   XY=             -2.9034   XZ=             -0.2868   YZ=             -6.0004

  Exact polarizability:  81.516  -0.264  75.976   0.456  -2.379  71.537
 Approx polarizability: 109.697  -0.539 112.299   1.302   2.186 110.624

                      1                      2                      3
                      A                      A                      A
 Frequencies --    152.9509               168.7256               186.7177
 Red. masses --      3.5721                 1.6622                 1.5194
 Frc consts  --      0.0492                 0.0279                 0.0312
 IR Inten    --      0.5592                 0.3803                 2.3015

                      4                      5                      6
                      A                      A                      A
 Frequencies --    208.8571               215.6981               217.8548
 Red. masses --      2.6210                 1.2592                 1.7730
 Frc consts  --      0.0674                 0.0345                 0.0496
 IR Inten    --      5.6497                76.7874                17.0448

                      7                      8                      9
                      A                      A                      A
 Frequencies --    323.5844               370.1361               441.1098
 Red. masses --      6.0918                 2.4511                 3.0371
 Frc consts  --      0.3758                 0.1978                 0.3482
 IR Inten    --     13.3295                 1.5092                 5.0215

                     10                     11                     12
                      A                      A                      A
 Frequencies --    520.5701               624.0412               650.3307
 Red. masses --      5.6036                 4.9307                 2.9949
 Frc consts  --      0.8947                 1.1313                 0.7463
 IR Inten    --      2.5496                 0.2816                 0.8180

                     13                     14                     15
                      A                      A                      A
 Frequencies --    687.5799               714.4410               768.3425
 Red. masses --      3.9321                 3.8141                 1.1095
 Frc consts  --      1.0953                 1.1470                 0.3859
 IR Inten    --     14.2826                18.6155                 0.9162

                     16                     17                     18
                      A                      A                      A
 Frequencies --    825.1010               864.6662               897.1836
 Red. masses --      2.4116                 2.8945                 2.0470
 Frc consts  --      0.9673                 1.2750                 0.9708
 IR Inten    --      3.1870                 9.7202                13.3018

                     19                     20                     21
                      A                      A                      A
 Frequencies --    916.2533               942.1597               981.9864
 Red. masses --      1.2218                 3.0345                 2.5909
 Frc consts  --      0.6044                 1.5871                 1.4720
 IR Inten    --      1.0589                 8.9442                 4.4375

                     22                     23                     24
                      A                      A                      A
 Frequencies --   1030.6551              1053.4799              1073.3348
 Red. masses --      5.2835                 1.5026                 1.4644
 Frc consts  --      3.3067                 0.9825                 0.9940
 IR Inten    --      2.2171                 5.9719                 3.6146

                     25                     26                     27
                      A                      A                      A
 Frequencies --   1074.5140              1102.8560              1138.7260
 Red. masses --      1.4990                 1.7949                 3.2300
 Frc consts  --      1.0197                 1.2863                 2.4677
 IR Inten    --     12.6585                 1.3058                93.0248

                     28                     29                     30
                      A                      A                      A
 Frequencies --   1164.3685              1177.7702              1188.4578
 Red. masses --      1.6035                 1.2862                 1.8834
 Frc consts  --      1.2808                 1.0512                 1.5674
 IR Inten    --      1.7267                 0.2666                87.0018

                     31                     32                     33
                      A                      A                      A
 Frequencies --   1209.8615              1233.1062              1277.4341
 Red. masses --      1.5300                 2.1538                 1.4220
 Frc consts  --      1.3195                 1.9296                 1.3671
 IR Inten    --      5.9427                23.8832                43.6498

                     34                     35                     36
                      A                      A                      A
 Frequencies --   1324.1841              1403.3515              1407.3561
 Red. masses --      1.9782                 1.3578                 1.7489
 Frc consts  --      2.0437                 1.5755                 2.0409
 IR Inten    --     15.6233                11.2120                 2.5841

                     37                     38                     39
                      A                      A                      A
 Frequencies --   1456.2605              1461.7345              1478.1451
 Red. masses --      1.8483                 1.1058                 1.0529
 Frc consts  --      2.3094                 1.3921                 1.3555
 IR Inten    --     14.8672                 0.7056                 4.0279

                     40                     41                     42
                      A                      A                      A
 Frequencies --   1488.1091              1525.6121              3039.9599
 Red. masses --      1.0491                 2.4755                 1.0348
 Frc consts  --      1.3688                 3.3947                 5.6345
 IR Inten    --      5.6815                 2.3265                13.3994

                     43                     44                     45
                      A                      A                      A
 Frequencies --   3048.8174              3114.8894              3115.9539
 Red. masses --      1.0853                 1.1016                 1.1009
 Frc consts  --      5.9440                 6.2974                 6.2976
 IR Inten    --     54.4729                11.3952                10.1353

                     46                     47                     48
                      A                      A                      A
 Frequencies --   3117.3694              3123.2550              3128.3764
 Red. masses --      1.0934                 1.0520                 1.0571
 Frc consts  --      6.2605                 6.0462                 6.0953
 IR Inten    --     51.8038                16.5693                12.1237

                     49                     50                     51
                      A                      A                      A
 Frequencies --   3199.6870              3214.3361              3827.0765
 Red. masses --      1.1173                 1.1149                 1.0663
 Frc consts  --      6.7396                 6.7868                 9.2019
 IR Inten    --      0.3904                15.3721                32.8650

 - Thermochemistry -
 -------------------
 Temperature   298.150 Kelvin.  Pressure   1.00000 Atm.
 Atom     1 has atomic number  8 and mass  15.99491

 Molecular mass:   126.06808 amu.
 Principal axes and moments of inertia in atomic units:
                           1         2         3
     Eigenvalues --   851.386971054.070601237.74451
           X            0.99958   0.02805  -0.00672
           Y           -0.02872   0.98912  -0.14425
           Z            0.00260   0.14439   0.98952
 This molecule is an asymmetric top.
 Rotational symmetry number  1.
 Warning -- assumption of classical behavior for rotation
           may cause significant error
 Rotational temperatures (Kelvin)      0.10173     0.08217     0.06998
 Rotational constants (GHZ):           2.11977     1.71216     1.45809
 Zero-point vibrational energy     411977.9 (Joules/Mol)
                                   98.46508 (Kcal/Mol)
 Warning -- explicit consideration of  10 degrees of freedom as
           vibrations may cause significant error
 Vibrational temperatures:    220.06   242.76   268.64   300.50   310.34
          (Kelvin)            313.44   465.57   532.54   634.66   748.98
                              897.86   935.68   989.27  1027.92  1105.47
                             1187.13  1244.06  1290.85  1318.28  1355.56
                             1412.86  1482.88  1515.72  1544.29  1545.98
                             1586.76  1638.37  1675.26  1694.55  1709.92
                             1740.72  1774.16  1837.94  1905.20  2019.11
                             2024.87  2095.23  2103.11  2126.72  2141.05
                             2195.01  4373.82  4386.56  4481.63  4483.16
                             4485.19  4493.66  4501.03  4603.63  4624.71
                             5506.30

 Zero-point correction=                           0.156914 (Hartree/Particle)
 Thermal correction to Energy=                    0.165639
 Thermal correction to Enthalpy=                  0.166583
 Thermal correction to Gibbs Free Energy=         0.124143
 Sum of electronic and zero-point Energies=           -422.937139
 Sum of electronic and thermal Energies=              -422.928415
 Sum of electronic and thermal Enthalpies=            -422.927470
 Sum of electronic and thermal Free Energies=         -422.969910

                     E (Thermal)             CV                S
                      KCal/Mol        Cal/Mol-Kelvin    Cal/Mol-Kelvin
 Total                  103.940             33.806             89.323
 Electronic               0.000              0.000              0.000
 Translational            0.889              2.981             40.409
 Rotational               0.889              2.981             28.498
 Vibrational            102.162             27.845             20.416
 Vibration     1          0.619              1.899              2.635
 Vibration     2          0.625              1.881              2.450
 Vibration     3          0.632              1.858              2.260
 Vibration     4          0.642              1.827              2.054
 Vibration     5          0.645              1.817              1.995
 Vibration     6          0.646              1.814              1.977
 Vibration     7          0.708              1.628              1.292
 Vibration     8          0.742              1.534              1.079
 Vibration     9          0.801              1.380              0.823
 Vibration    10          0.876              1.204              0.609

 Normal termination of Gaussian 09 at Mon Jan 27 23:40:15 2020.
