 Gaussian 09, Revision D.01,
 Gaussian 09:  ES64L-G09RevD.01 24-Apr-2013

 -----------------------------
 # b3lyp 6-31G(2df,p) opt Freq
 -----------------------------

 -----
 titel
 -----
 Symbolic Z-matrix:
 Charge =  0 Multiplicity = 1

 SCF Done:  E(RB3LYP) =  -423.200373412     A.U. after   14 cycles
 Optimization completed.
    -- Stationary point found.
 Normal termination of Gaussian 09 at Tue Jan 28 00:02:27 2020.

 ----------------------------------------------------------------------
 #N Geom=AllCheck Guess=TCheck SCRF=Check GenChk RB3LYP/6-31G(2df,p) Fr
 eq
 ----------------------------------------------------------------------

 Structure from the checkpoint file:  "/scratch/puck/g09_8df317c9-547b-4a10-8dee-18d108bd0efb/Gau-56471.chk"
 -----
 titel
 -----
 Charge =  0 Multiplicity = 1

                         Standard orientation:
 ---------------------------------------------------------------------
 Center     Atomic      Atomic             Coordinates (Angstroms)
 Number     Number       Type             X           Y           Z
 ---------------------------------------------------------------------
      1          8           0       -2.991280   -0.246381   -0.369995
      2          6           0       -1.602625   -0.103957   -0.453655
      3          6           0       -0.964841    0.683993    0.648221
      4          6           0        0.182047    1.643244    0.390399
      5          6           0        1.240119    1.069853   -0.572276
      6          6           0        1.725083   -0.304578   -0.141200
      7          8           0        2.900237   -0.578182   -0.063702
      8          6           0        0.653744   -1.350273    0.176661
      9          6           0       -0.723137   -0.815582    0.549040
     10          1           0       -3.223230   -1.115354   -0.714786
     11          1           0       -1.217462    0.015184   -1.468075
     12          1           0       -1.661029    0.993969    1.421622
     13          1           0       -0.196648    2.592631   -0.006392
     14          1           0        0.666897    1.878484    1.346244
     15          1           0        0.809312    0.973112   -1.578395
     16          1           0        2.108019    1.727953   -0.653092
     17          1           0        0.591990   -2.009853   -0.702119
     18          1           0        1.059872   -1.970060    0.981306
     19          1           0       -1.271719   -1.425762    1.260119
 ---------------------------------------------------------------------

 SCF Done:  E(RB3LYP) =  -423.200373412     A.U. after    1 cycles

 The electronic state is 1-A.
 Alpha  occ. eigenvalues --  -19.14714 -19.12457 -10.26705 -10.23753 -10.19758
 Alpha  occ. eigenvalues --  -10.19653 -10.19545 -10.19520 -10.19271  -1.03604
 Alpha  occ. eigenvalues --   -1.03189  -0.87094  -0.77742  -0.74750  -0.66230
 Alpha  occ. eigenvalues --   -0.59896  -0.57778  -0.53752  -0.51038  -0.47566
 Alpha  occ. eigenvalues --   -0.46434  -0.45209  -0.44648  -0.42430  -0.39856
 Alpha  occ. eigenvalues --   -0.39319  -0.37843  -0.37450  -0.35201  -0.33748
 Alpha  occ. eigenvalues --   -0.31954  -0.27791  -0.26285  -0.23280
 Alpha virt. eigenvalues --   -0.01330   0.07492   0.08698   0.09745   0.11074
 Alpha virt. eigenvalues --    0.12867   0.13843   0.15257   0.16659   0.17297
 Alpha virt. eigenvalues --    0.18360   0.18660   0.19814   0.21711   0.22405

 Mulliken charges:
               1
     1  O   -0.431735
     2  C    0.090213
     3  C   -0.046325
     4  C   -0.237620
     5  C   -0.315578
     6  C    0.394988
     7  O   -0.309176
     8  C   -0.335171
     9  C   -0.096035
    10  H    0.285077
    11  H    0.077960
    12  H    0.100178
    13  H    0.110409
    14  H    0.113048
    15  H    0.122503
    16  H    0.121750
    17  H    0.127183
    18  H    0.134155
    19  H    0.094177
 Sum of Mulliken charges =   0.00000

 Dipole moment (field-independent basis, Debye):
    X=             -2.0339    Y=             -0.3890    Z=             -0.5023  Tot=              2.1308
 Quadrupole moment (field-independent basis, Debye-Ang):
   XX=            -66.9286   YY=            -49.1691   ZZ=            -50.4946
   XY=              6.9061   XZ=              0.9079   YZ=              1.0622

  Exact polarizability:  86.507   1.044  76.049   0.342  -0.317  62.173
 Approx polarizability: 121.784  -2.090 108.683   3.138   0.046  97.513

                      1                      2                      3
                      A                      A                      A
 Frequencies --     34.0804               167.2341               234.8661
 Red. masses --      4.2362                 2.8472                 2.8693
 Frc consts  --      0.0029                 0.0469                 0.0933
 IR Inten    --      5.4550                 2.2934                 3.5194

                      4                      5                      6
                      A                      A                      A
 Frequencies --    255.1165               291.4925               337.5477
 Red. masses --      2.1859                 2.2720                 1.2926
 Frc consts  --      0.0838                 0.1137                 0.0868
 IR Inten    --      9.9687                10.2542                76.7172

                      7                      8                      9
                      A                      A                      A
 Frequencies --    367.3431               402.7393               473.8742
 Red. masses --      4.7687                 2.8304                 3.8776
 Frc consts  --      0.3791                 0.2705                 0.5130
 IR Inten    --     11.4805                 6.5607                 9.0170

                     10                     11                     12
                      A                      A                      A
 Frequencies --    539.3929               556.5535               672.3072
 Red. masses --      2.9209                 4.0623                 2.4372
 Frc consts  --      0.5007                 0.7414                 0.6490
 IR Inten    --      3.4583                 1.2626                 2.6226

                     13                     14                     15
                      A                      A                      A
 Frequencies --    726.1414               799.2689               821.6511
 Red. masses --      3.0946                 3.0210                 1.9040
 Frc consts  --      0.9614                 1.1371                 0.7573
 IR Inten    --      3.6038                 0.3455                 4.0348

                     16                     17                     18
                      A                      A                      A
 Frequencies --    851.5941               918.3009               947.8651
 Red. masses --      2.4988                 2.5203                 1.8972
 Frc consts  --      1.0677                 1.2522                 1.0043
 IR Inten    --     21.5852                 0.4196                10.9020

                     19                     20                     21
                      A                      A                      A
 Frequencies --    968.0455              1014.0970              1050.8728
 Red. masses --      1.9830                 1.6599                 1.6284
 Frc consts  --      1.0949                 1.0058                 1.0596
 IR Inten    --      2.9440                 1.0755                 6.3342

                     22                     23                     24
                      A                      A                      A
 Frequencies --   1073.4479              1104.6589              1111.6469
 Red. masses --      1.3713                 1.3636                 1.6718
 Frc consts  --      0.9310                 0.9804                 1.2172
 IR Inten    --      3.1458                 0.3733                15.0904

                     25                     26                     27
                      A                      A                      A
 Frequencies --   1130.8553              1178.2703              1200.8541
 Red. masses --      3.1569                 1.8939                 1.6932
 Frc consts  --      2.3787                 1.5492                 1.4386
 IR Inten    --     73.1330                21.5776                 8.9586

                     28                     29                     30
                      A                      A                      A
 Frequencies --   1226.1044              1239.9802              1257.7483
 Red. masses --      1.5021                 1.3524                 1.5546
 Frc consts  --      1.3305                 1.2252                 1.4490
 IR Inten    --      9.0263                 9.8312                16.8981

                     31                     32                     33
                      A                      A                      A
 Frequencies --   1296.4935              1306.0996              1338.3790
 Red. masses --      1.1986                 1.7654                 1.4324
 Frc consts  --      1.1871                 1.7744                 1.5118
 IR Inten    --     41.9184                29.3031                 5.8265

                     34                     35                     36
                      A                      A                      A
 Frequencies --   1347.3350              1361.3165              1377.3157
 Red. masses --      1.4633                 1.5302                 1.4685
 Frc consts  --      1.5651                 1.6707                 1.6413
 IR Inten    --      7.4293                 6.5894                13.8560

                     37                     38                     39
                      A                      A                      A
 Frequencies --   1446.5106              1468.7932              1483.4600
 Red. masses --      1.0885                 1.0947                 1.9464
 Frc consts  --      1.3419                 1.3915                 2.5236
 IR Inten    --      6.3021                 9.4196                 3.8172

                     40                     41                     42
                      A                      A                      A
 Frequencies --   1500.9002              1812.5124              3004.0039
 Red. masses --      1.2197                11.6303                 1.0701
 Frc consts  --      1.6189                22.5114                 5.6894
 IR Inten    --      4.4485               185.5431                18.0412

                     43                     44                     45
                      A                      A                      A
 Frequencies --   3019.8852              3024.6463              3058.9745
 Red. masses --      1.0683                 1.0597                 1.1022
 Frc consts  --      5.7403                 5.7121                 6.0766
 IR Inten    --      2.4826                41.8136                24.8910

                     46                     47                     48
                      A                      A                      A
 Frequencies --   3079.9062              3085.9003              3109.9912
 Red. masses --      1.0864                 1.0901                 1.0946
 Frc consts  --      6.0716                 6.1164                 6.2377
 IR Inten    --     37.3401                 8.0403                16.0139

                     49                     50                     51
                      A                      A                      A
 Frequencies --   3151.3215              3161.9479              3800.6656
 Red. masses --      1.0876                 1.0888                 1.0662
 Frc consts  --      6.3634                 6.4137                 9.0741
 IR Inten    --      6.6821                15.5086                19.3398

 - Thermochemistry -
 -------------------
 Temperature   298.150 Kelvin.  Pressure   1.00000 Atm.
 Atom     1 has atomic number  8 and mass  15.99491

 Molecular mass:   126.06808 amu.
 Principal axes and moments of inertia in atomic units:
                           1         2         3
     Eigenvalues --   528.286231576.551911874.06489
           X            0.99982   0.01891  -0.00268
           Y           -0.01892   0.99981  -0.00355
           Z            0.00261   0.00360   0.99999
 This molecule is an asymmetric top.
 Rotational symmetry number  1.
 Warning -- assumption of classical behavior for rotation
           may cause significant error
 Rotational temperatures (Kelvin)      0.16395     0.05494     0.04622
 Rotational constants (GHZ):           3.41622     1.14474     0.96301
 Zero-point vibrational energy     419831.3 (Joules/Mol)
                                  100.34208 (Kcal/Mol)
 Warning -- explicit consideration of  11 degrees of freedom as
           vibrations may cause significant error
 Vibrational temperatures:     49.03   240.61   337.92   367.06   419.39
          (Kelvin)            485.66   528.52   579.45   681.80   776.07
                              800.76   967.30  1044.75  1149.97  1182.17
                             1225.25  1321.23  1363.76  1392.80  1459.06
                             1511.97  1544.45  1589.36  1599.41  1627.05
                             1695.27  1727.76  1764.09  1784.05  1809.62
                             1865.36  1879.18  1925.63  1938.51  1958.63
                             1981.65  2081.20  2113.26  2134.37  2159.46
                             2607.80  4322.09  4344.94  4351.79  4401.18
                             4431.29  4439.92  4474.58  4534.04  4549.33
                             5468.30

 Zero-point correction=                           0.159905 (Hartree/Particle)
 Thermal correction to Energy=                    0.168191
 Thermal correction to Enthalpy=                  0.169135
 Thermal correction to Gibbs Free Energy=         0.126509
 Sum of electronic and zero-point Energies=           -423.040468
 Sum of electronic and thermal Energies=              -423.032182
 Sum of electronic and thermal Enthalpies=            -423.031238
 Sum of electronic and thermal Free Energies=         -423.073864

                     E (Thermal)             CV                S
                      KCal/Mol        Cal/Mol-Kelvin    Cal/Mol-Kelvin
 Total                  105.542             31.979             89.714
 Electronic               0.000              0.000              0.000
 Translational            0.889              2.981             40.409
 Rotational               0.889              2.981             28.836
 Vibrational            103.764             26.018             20.469
 Vibration     1          0.594              1.983              5.577
 Vibration     2          0.624              1.883              2.466
 Vibration     3          0.655              1.787              1.841
 Vibration     4          0.665              1.754              1.695
 Vibration     5          0.687              1.690              1.465
 Vibration     6          0.718              1.600              1.224
 Vibration     7          0.740              1.539              1.091
 Vibration     8          0.768              1.464              0.953
 Vibration     9          0.831              1.308              0.727
 Vibration    10          0.894              1.163              0.567
 Vibration    11          0.912              1.125              0.531

 Optimization completed on the basis of negligible forces.
    -- Stationary point found.
 Normal termination of Gaussian 09 at Tue Jan 28 01:22:58 2020.
