 Gaussian 09, Revision D.01,
 Gaussian 09:  ES64L-G09RevD.01 24-Apr-2013

 -----------------------------
 # b3lyp 6-31G(2df,p) opt Freq
 -----------------------------

 -----
 titel
 -----
 Symbolic Z-matrix:
 Charge =  0 Multiplicity = 1

 SCF Done:  E(RB3LYP) =  -423.178595389     A.U. after   13 cycles
 Optimization completed.
    -- Stationary point found.
 Normal termination of Gaussian 09 at Mon Jan 27 12:19:21 2020.

 ----------------------------------------------------------------------
 #N Geom=AllCheck Guess=TCheck SCRF=Check GenChk RB3LYP/6-31G(2df,p) Fr
 eq
 ----------------------------------------------------------------------

 Structure from the checkpoint file:  "/scratch/puck/g09_b52e809a-5a6c-447d-9c1f-88dcb0fff589/Gau-35495.chk"
 -----
 titel
 -----
 Charge =  0 Multiplicity = 1

                         Standard orientation:
 ---------------------------------------------------------------------
 Center     Atomic      Atomic             Coordinates (Angstroms)
 Number     Number       Type             X           Y           Z
 ---------------------------------------------------------------------
      1          6           0       -2.048586   -0.612303   -0.021565
      2          8           0       -1.894167    0.821824    0.104205
      3          6           0       -0.616932    0.793993   -0.570132
      4          6           0       -0.643366   -0.762581   -0.629554
      5          6           0        0.529059   -1.121252    0.301497
      6          6           0        0.509992   -0.020363    1.373274
      7          6           0        0.595110    1.106286    0.322222
      8          6           0        1.818042    0.620134   -0.480484
      9          8           0        1.724032   -0.820015   -0.440458
     10          1           0       -2.227024   -1.095188    0.947625
     11          1           0       -2.870056   -0.869332   -0.701915
     12          1           0       -0.635888    1.368372   -1.502667
     13          1           0       -0.566626   -1.260730   -1.595021
     14          1           0        0.584061   -2.158347    0.634262
     15          1           0       -0.400391    0.023574    1.971472
     16          1           0        1.382418   -0.074230    2.028128
     17          1           0        0.662376    2.132152    0.684943
     18          1           0        1.807492    0.961160   -1.523770
     19          1           0        2.764809    0.934615   -0.024586
 ---------------------------------------------------------------------

 SCF Done:  E(RB3LYP) =  -423.178595389     A.U. after    1 cycles

 The electronic state is 1-A.
 Alpha  occ. eigenvalues --  -19.13451 -19.13322 -10.23351 -10.23319 -10.23181
 Alpha  occ. eigenvalues --  -10.22845 -10.19239 -10.18910 -10.18227  -1.04410
 Alpha  occ. eigenvalues --   -1.02722  -0.81729  -0.76016  -0.71077  -0.68372
 Alpha  occ. eigenvalues --   -0.59500  -0.58137  -0.53568  -0.52178  -0.50375
 Alpha  occ. eigenvalues --   -0.48589  -0.45187  -0.42481  -0.41621  -0.40499
 Alpha  occ. eigenvalues --   -0.38379  -0.36378  -0.35544  -0.34274  -0.33328
 Alpha  occ. eigenvalues --   -0.30718  -0.29338  -0.25466  -0.24091
 Alpha virt. eigenvalues --    0.08224   0.09121   0.10971   0.11678   0.13083
 Alpha virt. eigenvalues --    0.14054   0.14576   0.15300   0.16073   0.16307
 Alpha virt. eigenvalues --    0.18075   0.18592   0.19319   0.20379   0.22488

 Mulliken charges:
               1
     1  C   -0.113417
     2  O   -0.304371
     3  C    0.138360
     4  C   -0.062321
     5  C    0.087261
     6  C   -0.248944
     7  C   -0.078201
     8  C   -0.079710
     9  O   -0.281578
    10  H    0.101134
    11  H    0.103559
    12  H    0.074572
    13  H    0.086383
    14  H    0.076262
    15  H    0.120615
    16  H    0.103578
    17  H    0.075265
    18  H    0.099410
    19  H    0.102144
 Sum of Mulliken charges =   0.00000

 Dipole moment (field-independent basis, Debye):
    X=              0.0827    Y=             -0.1879    Z=              0.1033  Tot=              0.2299
 Quadrupole moment (field-independent basis, Debye-Ang):
   XX=            -57.0810   YY=            -52.6522   ZZ=            -51.6286
   XY=              6.7014   XZ=              2.0966   YZ=             -1.7876

  Exact polarizability:  79.973   6.690  70.084   0.469  -2.538  68.183
 Approx polarizability: 110.213   4.758 107.643  -2.582  -2.418 102.538

                      1                      2                      3
                      A                      A                      A
 Frequencies --    180.8798               266.3201               277.5205
 Red. masses --      3.2229                 2.8907                 2.8793
 Frc consts  --      0.0621                 0.1208                 0.1307
 IR Inten    --      6.9389                 1.2271                 1.7006

                      4                      5                      6
                      A                      A                      A
 Frequencies --    374.7492               428.3390               503.1318
 Red. masses --      3.4764                 3.9146                 2.0933
 Frc consts  --      0.2876                 0.4232                 0.3122
 IR Inten    --      9.1558                 0.8746                 0.4664

                      7                      8                      9
                      A                      A                      A
 Frequencies --    584.7469               752.4535               794.0582
 Red. masses --      4.1840                 3.6070                 4.4501
 Frc consts  --      0.8429                 1.2033                 1.6532
 IR Inten    --      0.6608                 5.8066                 4.8961

                     10                     11                     12
                      A                      A                      A
 Frequencies --    829.8374               862.0307               875.9348
 Red. masses --      2.5955                 2.2269                 3.0253
 Frc consts  --      1.0531                 0.9750                 1.3676
 IR Inten    --      5.1387                 4.3458                 1.1405

                     13                     14                     15
                      A                      A                      A
 Frequencies --    891.2811               905.0043               936.7868
 Red. masses --      2.0389                 2.7751                 2.7036
 Frc consts  --      0.9543                 1.3391                 1.3979
 IR Inten    --      4.3857                29.4233                 1.8536

                     16                     17                     18
                      A                      A                      A
 Frequencies --    945.2945               961.5464               971.5395
 Red. masses --      3.4952                 1.8003                 1.7932
 Frc consts  --      1.8402                 0.9807                 0.9972
 IR Inten    --      6.3220                 2.8225                17.4337

                     19                     20                     21
                      A                      A                      A
 Frequencies --    999.6789              1023.1953              1053.7331
 Red. masses --      2.9654                 4.5074                 1.8500
 Frc consts  --      1.7460                 2.7803                 1.2103
 IR Inten    --     17.9692                67.1643                21.2786

                     22                     23                     24
                      A                      A                      A
 Frequencies --   1063.4141              1071.4073              1089.6303
 Red. masses --      1.9641                 1.9112                 1.9844
 Frc consts  --      1.3086                 1.2926                 1.3882
 IR Inten    --     16.1702                49.1470                13.4606

                     25                     26                     27
                      A                      A                      A
 Frequencies --   1135.8733              1163.1870              1181.2199
 Red. masses --      1.2701                 1.1694                 1.4159
 Frc consts  --      0.9655                 0.9322                 1.1640
 IR Inten    --      2.0757                 2.4020                 6.9158

                     28                     29                     30
                      A                      A                      A
 Frequencies --   1201.0699              1225.7003              1254.1603
 Red. masses --      1.9980                 1.6999                 1.4104
 Frc consts  --      1.6981                 1.5047                 1.3070
 IR Inten    --      4.1647                 4.6609                 0.0535

                     31                     32                     33
                      A                      A                      A
 Frequencies --   1273.4624              1283.6411              1293.7006
 Red. masses --      1.5838                 1.3298                 1.3275
 Frc consts  --      1.5133                 1.2910                 1.3090
 IR Inten    --      3.3235                 0.3537                 1.1820

                     34                     35                     36
                      A                      A                      A
 Frequencies --   1311.0064              1337.2578              1348.4003
 Red. masses --      1.5668                 1.4388                 1.5881
 Frc consts  --      1.5867                 1.5160                 1.7012
 IR Inten    --      1.0667                 1.3838                20.3240

                     37                     38                     39
                      A                      A                      A
 Frequencies --   1365.5773              1383.9090              1490.1000
 Red. masses --      1.5218                 1.4176                 1.1133
 Frc consts  --      1.6720                 1.5997                 1.4564
 IR Inten    --      3.0640                 1.3748                 7.3986

                     40                     41                     42
                      A                      A                      A
 Frequencies --   1524.3270              1528.6148              3009.9900
 Red. masses --      1.0981                 1.0913                 1.0551
 Frc consts  --      1.5033                 1.5025                 5.6320
 IR Inten    --      1.0445                 0.3121                93.8264

                     43                     44                     45
                      A                      A                      A
 Frequencies --   3013.0772              3046.6745              3050.9379
 Red. masses --      1.0565                 1.0962                 1.1074
 Frc consts  --      5.6514                 5.9950                 6.0732
 IR Inten    --     53.7483                19.0680                 1.3781

                     46                     47                     48
                      A                      A                      A
 Frequencies --   3051.4712              3082.2321              3113.2598
 Red. masses --      1.1036                 1.0607                 1.0879
 Frc consts  --      6.0544                 5.9369                 6.2123
 IR Inten    --    103.6476                16.9228                41.3168

                     49                     50                     51
                      A                      A                      A
 Frequencies --   3119.0000              3126.2158              3142.7297
 Red. masses --      1.0883                 1.0908                 1.1059
 Frc consts  --      6.2379                 6.2810                 6.4354
 IR Inten    --     31.1956                12.8499                13.8123

 - Thermochemistry -
 -------------------
 Temperature   298.150 Kelvin.  Pressure   1.00000 Atm.
 Atom     1 has atomic number  6 and mass  12.00000

 Molecular mass:   126.06808 amu.
 Principal axes and moments of inertia in atomic units:
                           1         2         3
     Eigenvalues --   529.167811073.988551195.53092
           X            0.99818   0.05999   0.00680
           Y           -0.05953   0.99672  -0.05486
           Z           -0.01007   0.05435   0.99847
 This molecule is an asymmetric top.
 Rotational symmetry number  1.
 Warning -- assumption of classical behavior for rotation
           may cause significant error
 Rotational temperatures (Kelvin)      0.16368     0.08065     0.07245
 Rotational constants (GHZ):           3.41053     1.68041     1.50957
 Zero-point vibrational energy     428857.1 (Joules/Mol)
                                  102.49931 (Kcal/Mol)
 Warning -- explicit consideration of   7 degrees of freedom as
           vibrations may cause significant error
 Vibrational temperatures:    260.25   383.17   399.29   539.18   616.28
          (Kelvin)            723.89   841.32  1082.61  1142.47  1193.95
                             1240.27  1260.27  1282.35  1302.10  1347.83
                             1360.07  1383.45  1397.83  1438.31  1472.15
                             1516.08  1530.01  1541.51  1567.73  1634.27
                             1673.56  1699.51  1728.07  1763.51  1804.45
                             1832.23  1846.87  1861.34  1886.24  1924.01
                             1940.04  1964.76  1991.13  2143.92  2193.16
                             2199.33  4330.70  4335.14  4383.48  4389.61
                             4390.38  4434.64  4479.28  4487.54  4497.92
                             4521.68

 Zero-point correction=                           0.163343 (Hartree/Particle)
 Thermal correction to Energy=                    0.169721
 Thermal correction to Enthalpy=                  0.170665
 Thermal correction to Gibbs Free Energy=         0.132843
 Sum of electronic and zero-point Energies=           -423.015252
 Sum of electronic and thermal Energies=              -423.008874
 Sum of electronic and thermal Enthalpies=            -423.007930
 Sum of electronic and thermal Free Energies=         -423.045753

                     E (Thermal)             CV                S
                      KCal/Mol        Cal/Mol-Kelvin    Cal/Mol-Kelvin
 Total                  106.502             26.866             79.605
 Electronic               0.000              0.000              0.000
 Translational            0.889              2.981             40.409
 Rotational               0.889              2.981             28.010
 Vibrational            104.724             20.905             11.187
 Vibration     1          0.630              1.866              2.319
 Vibration     2          0.672              1.735              1.620
 Vibration     3          0.678              1.715              1.549
 Vibration     4          0.746              1.524              1.060
 Vibration     5          0.790              1.409              0.864
 Vibration     6          0.858              1.243              0.650
 Vibration     7          0.942              1.064              0.477

 Optimization completed.
    -- Stationary point found.
 Normal termination of Gaussian 09 at Mon Jan 27 13:07:51 2020.
