 Gaussian 09, Revision D.01,
 Gaussian 09:  ES64L-G09RevD.01 24-Apr-2013

 -----------------------------
 # b3lyp 6-31G(2df,p) opt Freq
 -----------------------------

 -----
 titel
 -----
 Symbolic Z-matrix:
 Charge =  0 Multiplicity = 1

 SCF Done:  E(RB3LYP) =  -423.209844346     A.U. after   14 cycles
 Optimization completed.
    -- Stationary point found.
 Normal termination of Gaussian 09 at Tue Jan 28 02:19:38 2020.

 ----------------------------------------------------------------------
 #N Geom=AllCheck Guess=TCheck SCRF=Check GenChk RB3LYP/6-31G(2df,p) Fr
 eq
 ----------------------------------------------------------------------

 Structure from the checkpoint file:  "/scratch/puck/g09_4e0b2bbd-4ef1-4013-8417-d32eb23351a7/Gau-112275.chk"
 -----
 titel
 -----
 Charge =  0 Multiplicity = 1

                         Standard orientation:
 ---------------------------------------------------------------------
 Center     Atomic      Atomic             Coordinates (Angstroms)
 Number     Number       Type             X           Y           Z
 ---------------------------------------------------------------------
      1          6           0       -2.849822   -0.099731   -0.096793
      2          6           0       -1.451751   -0.540487    0.320858
      3          6           0       -0.638341    0.518837    1.134956
      4          6           0        0.406034    0.630515   -0.027725
      5          6           0        0.839366    1.989086   -0.525675
      6          6           0       -0.386078   -0.465767   -0.796259
      7          8           0        0.705834   -1.415756   -0.575236
      8          6           0        1.460787   -0.470767    0.084545
      9          8           0        2.553661   -0.601320    0.535162
     10          1           0       -3.504238   -0.002380    0.775307
     11          1           0       -2.828479    0.872290   -0.603390
     12          1           0       -3.304137   -0.823372   -0.781850
     13          1           0       -1.484288   -1.531705    0.780142
     14          1           0       -1.188597    1.453385    1.274647
     15          1           0       -0.238354    0.204680    2.100954
     16          1           0        1.408575    1.913627   -1.457561
     17          1           0       -0.024064    2.638443   -0.701433
     18          1           0        1.480900    2.474133    0.217620
     19          1           0       -0.674445   -0.432614   -1.847282
 ---------------------------------------------------------------------

 SCF Done:  E(RB3LYP) =  -423.209844346     A.U. after    1 cycles

 The electronic state is 1-A.
 Alpha  occ. eigenvalues --  -19.17634 -19.13083 -10.30121 -10.24883 -10.21500
 Alpha  occ. eigenvalues --  -10.20431 -10.20055 -10.19421 -10.19150  -1.10162
 Alpha  occ. eigenvalues --   -1.02894  -0.85669  -0.77047  -0.70980  -0.67341
 Alpha  occ. eigenvalues --   -0.64913  -0.58317  -0.52466  -0.50429  -0.48054
 Alpha  occ. eigenvalues --   -0.47119  -0.44727  -0.42939  -0.42337  -0.41197
 Alpha  occ. eigenvalues --   -0.40874  -0.39476  -0.38206  -0.35016  -0.34560
 Alpha  occ. eigenvalues --   -0.32833  -0.30353  -0.28887  -0.26536
 Alpha virt. eigenvalues --    0.01320   0.06926   0.08798   0.09269   0.11040
 Alpha virt. eigenvalues --    0.13038   0.13264   0.13746   0.15306   0.15558
 Alpha virt. eigenvalues --    0.16989   0.17000   0.17971   0.19341   0.21451

 Mulliken charges:
               1
     1  C   -0.411742
     2  C    0.013919
     3  C   -0.308426
     4  C    0.127551
     5  C   -0.495809
     6  C    0.062545
     7  O   -0.264881
     8  C    0.428136
     9  O   -0.333999
    10  H    0.125614
    11  H    0.116564
    12  H    0.123958
    13  H    0.095261
    14  H    0.111147
    15  H    0.121377
    16  H    0.131769
    17  H    0.121242
    18  H    0.143424
    19  H    0.092349
 Sum of Mulliken charges =   0.00000

 Dipole moment (field-independent basis, Debye):
    X=             -3.6113    Y=              2.0999    Z=             -0.5958  Tot=              4.2197
 Quadrupole moment (field-independent basis, Debye-Ang):
   XX=            -60.0757   YY=            -54.4021   ZZ=            -51.6368
   XY=              3.8948   XZ=             -1.9484   YZ=             -0.5555

  Exact polarizability:  88.434   1.467  70.463   2.803   0.832  66.310
 Approx polarizability: 123.491  -0.143 103.729   8.856   3.838 102.053

                      1                      2                      3
                      A                      A                      A
 Frequencies --     78.9171               150.4465               191.9207
 Red. masses --      3.3477                 4.4109                 1.0873
 Frc consts  --      0.0123                 0.0588                 0.0236
 IR Inten    --      0.6144                 1.6127                 0.5058

                      4                      5                      6
                      A                      A                      A
 Frequencies --    232.9855               237.2565               255.0742
 Red. masses --      1.9373                 1.3400                 3.0307
 Frc consts  --      0.0620                 0.0444                 0.1162
 IR Inten    --      0.7099                 0.5010                 2.2164

                      7                      8                      9
                      A                      A                      A
 Frequencies --    304.3231               340.9037               429.1574
 Red. masses --      2.5893                 2.2972                 3.1180
 Frc consts  --      0.1413                 0.1573                 0.3383
 IR Inten    --      0.5399                 1.1862                 0.7304

                     10                     11                     12
                      A                      A                      A
 Frequencies --    500.7324               644.9200               679.3665
 Red. masses --      4.2155                 3.3088                 4.6203
 Frc consts  --      0.6228                 0.8108                 1.2564
 IR Inten    --      2.2889                 1.5366                 1.0172

                     13                     14                     15
                      A                      A                      A
 Frequencies --    754.9097               777.1719               832.8558
 Red. masses --      4.9826                 4.3887                 2.3387
 Frc consts  --      1.6730                 1.5618                 0.9558
 IR Inten    --      1.4329                 9.1720                 2.2625

                     16                     17                     18
                      A                      A                      A
 Frequencies --    882.7386               903.3962               917.5201
 Red. masses --      1.9017                 1.9135                 1.9244
 Frc consts  --      0.8731                 0.9201                 0.9545
 IR Inten    --      1.5868                12.4136                 9.8322

                     19                     20                     21
                      A                      A                      A
 Frequencies --    937.9203               955.7936              1022.4508
 Red. masses --      2.0179                 4.4381                 1.3262
 Frc consts  --      1.0459                 2.3888                 0.8168
 IR Inten    --     16.5368                69.8729                 3.4899

                     22                     23                     24
                      A                      A                      A
 Frequencies --   1052.1477              1091.2299              1109.2948
 Red. masses --      2.0614                 2.9014                 1.6983
 Frc consts  --      1.3445                 2.0356                 1.2313
 IR Inten    --      3.5784                73.2832                 2.2203

                     25                     26                     27
                      A                      A                      A
 Frequencies --   1156.2904              1182.9313              1200.3544
 Red. masses --      2.3926                 2.0752                 2.3791
 Frc consts  --      1.8847                 1.7109                 2.0197
 IR Inten    --      1.5785                 4.9562                27.7721

                     28                     29                     30
                      A                      A                      A
 Frequencies --   1211.7502              1238.8485              1263.1964
 Red. masses --      1.7910                 1.6187                 1.4746
 Frc consts  --      1.5495                 1.4637                 1.3863
 IR Inten    --      0.4134                 0.4374                 3.0634

                     31                     32                     33
                      A                      A                      A
 Frequencies --   1298.9149              1343.1930              1360.8829
 Red. masses --      1.4162                 2.4555                 1.8266
 Frc consts  --      1.4078                 2.6102                 1.9932
 IR Inten    --     14.0299                 1.7977                 6.9784

                     34                     35                     36
                      A                      A                      A
 Frequencies --   1411.4217              1413.5710              1481.6015
 Red. masses --      1.2393                 1.2588                 1.0911
 Frc consts  --      1.4545                 1.4819                 1.4111
 IR Inten    --      0.8876                 2.5816                 3.6863

                     37                     38                     39
                      A                      A                      A
 Frequencies --   1490.0924              1491.7192              1496.8484
 Red. masses --      1.0542                 1.0561                 1.0439
 Frc consts  --      1.3791                 1.3846                 1.3780
 IR Inten    --      4.4600                 5.8228                 5.5709

                     40                     41                     42
                      A                      A                      A
 Frequencies --   1498.6828              1928.6139              3027.1823
 Red. masses --      1.0515                12.8397                 1.0358
 Frc consts  --      1.3915                28.1381                 5.5926
 IR Inten    --      2.7009               436.1975                20.3094

                     43                     44                     45
                      A                      A                      A
 Frequencies --   3033.7992              3061.9073              3073.0045
 Red. masses --      1.0349                 1.0599                 1.0879
 Frc consts  --      5.6119                 5.8548                 6.0530
 IR Inten    --     18.4438                21.9089                 2.0110

                     46                     47                     48
                      A                      A                      A
 Frequencies --   3096.2074              3104.0156              3104.3839
 Red. masses --      1.0987                 1.1016                 1.1012
 Frc consts  --      6.2058                 6.2534                 6.2526
 IR Inten    --     36.8193                15.0262                12.5850

                     49                     50                     51
                      A                      A                      A
 Frequencies --   3106.1139              3115.1069              3120.3430
 Red. masses --      1.1019                 1.0903                 1.1065
 Frc consts  --      6.2639                 6.2337                 6.3477
 IR Inten    --     16.4071                27.7664                19.3261

 - Thermochemistry -
 -------------------
 Temperature   298.150 Kelvin.  Pressure   1.00000 Atm.
 Atom     1 has atomic number  6 and mass  12.00000

 Molecular mass:   126.06808 amu.
 Principal axes and moments of inertia in atomic units:
                           1         2         3
     Eigenvalues --   631.229611317.720691577.33821
           X            0.99936   0.03471  -0.00841
           Y           -0.03494   0.99895  -0.02949
           Z            0.00738   0.02976   0.99953
 This molecule is an asymmetric top.
 Rotational symmetry number  1.
 Warning -- assumption of classical behavior for rotation
           may cause significant error
 Rotational temperatures (Kelvin)      0.13721     0.06573     0.05491
 Rotational constants (GHZ):           2.85909     1.36959     1.14417
 Zero-point vibrational energy     416267.0 (Joules/Mol)
                                   99.49020 (Kcal/Mol)
 Warning -- explicit consideration of  10 degrees of freedom as
           vibrations may cause significant error
 Vibrational temperatures:    113.54   216.46   276.13   335.21   341.36
          (Kelvin)            366.99   437.85   490.48   617.46   720.44
                              927.89   977.46  1086.15  1118.18  1198.29
                             1270.06  1299.78  1320.11  1349.46  1375.17
                             1471.08  1513.80  1570.03  1596.03  1663.64
                             1701.97  1727.04  1743.44  1782.42  1817.46
                             1868.85  1932.55  1958.00  2030.72  2033.81
                             2131.69  2143.91  2146.25  2153.63  2156.27
                             2774.84  4355.43  4364.95  4405.40  4421.36
                             4454.75  4465.98  4466.51  4469.00  4481.94
                             4489.47

 Zero-point correction=                           0.158548 (Hartree/Particle)
 Thermal correction to Energy=                    0.167197
 Thermal correction to Enthalpy=                  0.168142
 Thermal correction to Gibbs Free Energy=         0.125346
 Sum of electronic and zero-point Energies=           -423.051297
 Sum of electronic and thermal Energies=              -423.042647
 Sum of electronic and thermal Enthalpies=            -423.041703
 Sum of electronic and thermal Free Energies=         -423.084498

                     E (Thermal)             CV                S
                      KCal/Mol        Cal/Mol-Kelvin    Cal/Mol-Kelvin
 Total                  104.918             32.559             90.070
 Electronic               0.000              0.000              0.000
 Translational            0.889              2.981             40.409
 Rotational               0.889              2.981             28.663
 Vibrational            103.140             26.597             20.998
 Vibration     1          0.600              1.963              3.918
 Vibration     2          0.618              1.902              2.667
 Vibration     3          0.634              1.851              2.209
 Vibration     4          0.654              1.790              1.856
 Vibration     5          0.656              1.784              1.823
 Vibration     6          0.665              1.754              1.695
 Vibration     7          0.695              1.666              1.393
 Vibration     8          0.720              1.594              1.208
 Vibration     9          0.791              1.407              0.861
 Vibration    10          0.856              1.248              0.656

 Normal termination of Gaussian 09 at Tue Jan 28 03:02:02 2020.
