 Gaussian 09, Revision D.01,
 Gaussian 09:  ES64L-G09RevD.01 24-Apr-2013

 -----------------------------
 # b3lyp 6-31G(2df,p) opt Freq
 -----------------------------

 -----
 titel
 -----
 Symbolic Z-matrix:
 Charge =  0 Multiplicity = 1

 SCF Done:  E(RB3LYP) =  -423.127823371     A.U. after   14 cycles
 Optimization completed.
    -- Stationary point found.
 Normal termination of Gaussian 09 at Tue Jan 28 13:31:01 2020.

 ----------------------------------------------------------------------
 #N Geom=AllCheck Guess=TCheck SCRF=Check GenChk RB3LYP/6-31G(2df,p) Fr
 eq
 ----------------------------------------------------------------------

 Structure from the checkpoint file:  "/scratch/puck/g09_3f6c884e-348a-4d37-907a-495c8d0faa6b/Gau-93926.chk"
 -----
 titel
 -----
 Charge =  0 Multiplicity = 1

                         Standard orientation:
 ---------------------------------------------------------------------
 Center     Atomic      Atomic             Coordinates (Angstroms)
 Number     Number       Type             X           Y           Z
 ---------------------------------------------------------------------
      1          8           0       -2.755451    0.117115   -0.239482
      2          6           0       -1.899549   -1.010340   -0.175467
      3          6           0       -0.607223   -0.585702    0.488333
      4          6           0        0.554004   -1.612291    0.544430
      5          6           0        1.539613   -0.449905    0.261191
      6          8           0        2.674370   -0.655450   -0.529779
      7          6           0        0.337485    0.391047   -0.292193
      8          6           0        0.295368    1.811789   -0.031536
      9          6           0        0.291107    2.988142    0.219039
     10          1           0       -3.572441   -0.144602   -0.673964
     11          1           0       -2.354150   -1.831656    0.403966
     12          1           0       -1.680146   -1.406636   -1.181945
     13          1           0       -0.824341   -0.175576    1.478213
     14          1           0        0.694512   -2.192065    1.458389
     15          1           0        0.514299   -2.303050   -0.307448
     16          1           0        1.899538   -0.005462    1.192538
     17          1           0        2.395696   -1.052958   -1.361670
     18          1           0        0.236116    0.194202   -1.368407
     19          1           0        0.274737    4.028037    0.431625
 ---------------------------------------------------------------------

 SCF Done:  E(RB3LYP) =  -423.127823371     A.U. after    1 cycles

 The electronic state is 1-A.
 Alpha  occ. eigenvalues --  -19.14198 -19.13709 -10.23788 -10.23248 -10.20514
 Alpha  occ. eigenvalues --  -10.19596 -10.18739 -10.17104 -10.16203  -1.02673
 Alpha  occ. eigenvalues --   -1.01883  -0.85423  -0.74575  -0.71421  -0.67226
 Alpha  occ. eigenvalues --   -0.62065  -0.57416  -0.53831  -0.51242  -0.50017
 Alpha  occ. eigenvalues --   -0.48773  -0.45456  -0.41551  -0.40963  -0.40270
 Alpha  occ. eigenvalues --   -0.39691  -0.35754  -0.34219  -0.33183  -0.30628
 Alpha  occ. eigenvalues --   -0.28203  -0.27177  -0.25243  -0.24109
 Alpha virt. eigenvalues --    0.05228   0.05554   0.07157   0.08282   0.09536
 Alpha virt. eigenvalues --    0.10778   0.13684   0.14334   0.14966   0.15795
 Alpha virt. eigenvalues --    0.18263   0.18971   0.19420   0.19918   0.21657

 Mulliken charges:
               1
     1  O   -0.413422
     2  C   -0.097421
     3  C    0.033021
     4  C   -0.316674
     5  C    0.154587
     6  O   -0.426673
     7  C   -0.215561
     8  C    0.311590
     9  C   -0.443330
    10  H    0.288436
    11  H    0.088209
    12  H    0.076563
    13  H    0.096057
    14  H    0.109474
    15  H    0.090466
    16  H    0.107680
    17  H    0.277932
    18  H    0.088116
    19  H    0.190951
 Sum of Mulliken charges =   0.00000

 Dipole moment (field-independent basis, Debye):
    X=             -1.8078    Y=             -2.2228    Z=             -0.9323  Tot=              3.0130
 Quadrupole moment (field-independent basis, Debye-Ang):
   XX=            -55.1300   YY=            -49.7129   ZZ=            -49.5293
   XY=              2.6966   XZ=              1.6606   YZ=              2.7698

  Exact polarizability:  75.442  -0.265  98.435   0.435   3.683  62.188
 Approx polarizability:  98.818  -1.927 146.303  -0.273  10.680  96.858

                      1                      2                      3
                      A                      A                      A
 Frequencies --     63.5828                88.8370               128.1476
 Red. masses --      4.3991                 4.7037                 3.7047
 Frc consts  --      0.0105                 0.0219                 0.0358
 IR Inten    --      2.6205                 1.2920                 0.3088

                      4                      5                      6
                      A                      A                      A
 Frequencies --    167.8164               212.0726               262.8966
 Red. masses --      2.9576                 2.7137                 1.1631
 Frc consts  --      0.0491                 0.0719                 0.0474
 IR Inten    --      7.0562                 8.2858                88.0109

                      7                      8                      9
                      A                      A                      A
 Frequencies --    296.2499               354.8139               383.9029
 Red. masses --      1.5214                 2.4738                 2.6790
 Frc consts  --      0.0787                 0.1835                 0.2326
 IR Inten    --     40.1000                62.1066                 5.8166

                     10                     11                     12
                      A                      A                      A
 Frequencies --    414.0902               433.1555               511.6405
 Red. masses --      4.2025                 3.0182                 4.3655
 Frc consts  --      0.4246                 0.3336                 0.6733
 IR Inten    --      5.4347                 6.0115                 2.8749

                     13                     14                     15
                      A                      A                      A
 Frequencies --    533.6488               598.6516               614.8241
 Red. masses --      3.6935                 3.2826                 1.2225
 Frc consts  --      0.6197                 0.6931                 0.2723
 IR Inten    --      7.1692                15.3032                39.5417

                     16                     17                     18
                      A                      A                      A
 Frequencies --    625.2419               815.7806               856.2730
 Red. masses --      1.2307                 2.0693                 2.2075
 Frc consts  --      0.2835                 0.8114                 0.9536
 IR Inten    --     44.6015                 0.1680                 2.4007

                     19                     20                     21
                      A                      A                      A
 Frequencies --    906.0777               968.1498              1035.0301
 Red. masses --      1.8896                 2.8687                 3.9787
 Frc consts  --      0.9140                 1.5842                 2.5113
 IR Inten    --      1.2682                 8.1231                84.5645

                     22                     23                     24
                      A                      A                      A
 Frequencies --   1050.4884              1069.5875              1079.1026
 Red. masses --      2.3993                 1.9572                 1.8646
 Frc consts  --      1.5600                 1.3192                 1.2793
 IR Inten    --     12.0966                15.3829                 8.9622

                     25                     26                     27
                      A                      A                      A
 Frequencies --   1092.1981              1115.5244              1156.4231
 Red. masses --      2.8739                 2.0221                 2.7305
 Frc consts  --      2.0199                 1.4826                 2.1514
 IR Inten    --     12.7993                 7.6794               145.1539

                     28                     29                     30
                      A                      A                      A
 Frequencies --   1173.8422              1229.3223              1234.8983
 Red. masses --      1.3978                 1.1577                 1.2771
 Frc consts  --      1.1348                 1.0308                 1.1474
 IR Inten    --     21.3646                 1.8362                 6.2386

                     31                     32                     33
                      A                      A                      A
 Frequencies --   1249.1186              1265.1934              1289.8824
 Red. masses --      1.2583                 1.2825                 1.3318
 Frc consts  --      1.1568                 1.2096                 1.3056
 IR Inten    --      0.7636                44.2803                 2.3684

                     34                     35                     36
                      A                      A                      A
 Frequencies --   1320.3831              1346.5386              1379.7454
 Red. masses --      1.4339                 1.3959                 1.5235
 Frc consts  --      1.4729                 1.4913                 1.7088
 IR Inten    --      6.5491                 9.7809                 3.8548

                     37                     38                     39
                      A                      A                      A
 Frequencies --   1436.2747              1463.3826              1488.9701
 Red. masses --      1.2327                 1.5336                 1.1348
 Frc consts  --      1.4982                 1.9349                 1.4823
 IR Inten    --     62.2425                16.9806                 3.0695

                     40                     41                     42
                      A                      A                      A
 Frequencies --   1518.5257              2234.1768              2947.5353
 Red. masses --      1.0843                 5.9901                 1.0557
 Frc consts  --      1.4731                17.6164                 5.4039
 IR Inten    --      3.4792                 5.1557                56.0520

                     43                     44                     45
                      A                      A                      A
 Frequencies --   2974.6673              3011.3586              3032.8354
 Red. masses --      1.1041                 1.0815                 1.0667
 Frc consts  --      5.7563                 5.7784                 5.7811
 IR Inten    --     60.1134                14.5151                30.4799

                     46                     47                     48
                      A                      A                      A
 Frequencies --   3081.0088              3087.6222              3117.3200
 Red. masses --      1.0852                 1.0862                 1.0997
 Frc consts  --      6.0694                 6.1012                 6.2962
 IR Inten    --      8.9089                20.1241                37.9197

                     49                     50                     51
                      A                      A                      A
 Frequencies --   3505.9999              3806.1371              3830.1144
 Red. masses --      1.1607                 1.0658                 1.0664
 Frc consts  --      8.4059                 9.0965                 9.2169
 IR Inten    --     71.2121                15.0802                21.6338

 - Thermochemistry -
 -------------------
 Temperature   298.150 Kelvin.  Pressure   1.00000 Atm.
 Atom     1 has atomic number  8 and mass  15.99491

 Molecular mass:   126.06808 amu.
 Principal axes and moments of inertia in atomic units:
                           1         2         3
     Eigenvalues --   945.462661349.592572106.10186
           X            0.99956   0.02913   0.00577
           Y           -0.02916   0.99956   0.00557
           Z           -0.00561  -0.00574   0.99997
 This molecule is an asymmetric top.
 Rotational symmetry number  1.
 Warning -- assumption of classical behavior for rotation
           may cause significant error
 Rotational temperatures (Kelvin)      0.09161     0.06418     0.04113
 Rotational constants (GHZ):           1.90884     1.33725     0.85691
 Zero-point vibrational energy     411868.6 (Joules/Mol)
                                   98.43897 (Kcal/Mol)
 Warning -- explicit consideration of  15 degrees of freedom as
           vibrations may cause significant error
 Vibrational temperatures:     91.48   127.82   184.38   241.45   305.12
          (Kelvin)            378.25   426.24   510.50   552.35   595.78
                              623.21   736.14   767.80   861.32   884.59
                              899.58  1173.72  1231.98  1303.64  1392.95
                             1489.18  1511.42  1538.90  1552.59  1571.43
                             1604.99  1663.83  1688.89  1768.72  1776.74
                             1797.20  1820.33  1855.85  1899.73  1937.37
                             1985.14  2066.48  2105.48  2142.29  2184.82
                             3214.48  4240.84  4279.88  4332.67  4363.57
                             4432.88  4442.39  4485.12  5044.35  5476.18
                             5510.67

 Zero-point correction=                           0.156872 (Hartree/Particle)
 Thermal correction to Energy=                    0.166684
 Thermal correction to Enthalpy=                  0.167629
 Thermal correction to Gibbs Free Energy=         0.121931
 Sum of electronic and zero-point Energies=           -422.970951
 Sum of electronic and thermal Energies=              -422.961139
 Sum of electronic and thermal Enthalpies=            -422.960195
 Sum of electronic and thermal Free Energies=         -423.005893

                     E (Thermal)             CV                S
                      KCal/Mol        Cal/Mol-Kelvin    Cal/Mol-Kelvin
 Total                  104.596             36.213             96.180
 Electronic               0.000              0.000              0.000
 Translational            0.889              2.981             40.409
 Rotational               0.889              2.981             29.376
 Vibrational            102.819             30.251             26.395
 Vibration     1          0.597              1.972              4.343
 Vibration     2          0.602              1.957              3.686
 Vibration     3          0.611              1.925              2.974
 Vibration     4          0.625              1.882              2.460
 Vibration     5          0.643              1.822              2.026
 Vibration     6          0.670              1.741              1.642
 Vibration     7          0.690              1.681              1.438
 Vibration     8          0.731              1.565              1.145
 Vibration     9          0.753              1.505              1.024
 Vibration    10          0.778              1.440              0.912
 Vibration    11          0.794              1.398              0.848
 Vibration    12          0.867              1.224              0.630
 Vibration    13          0.889              1.176              0.579
 Vibration    14          0.957              1.035              0.452
 Vibration    15          0.974              1.001              0.425

 Optimization completed.
    -- Stationary point found.
 Normal termination of Gaussian 09 at Tue Jan 28 14:54:20 2020.
