 Gaussian 09, Revision D.01,
 Gaussian 09:  ES64L-G09RevD.01 24-Apr-2013

 -----------------------------
 # b3lyp 6-31G(2df,p) opt Freq
 -----------------------------

 -----
 titel
 -----
 Symbolic Z-matrix:
 Charge =  0 Multiplicity = 1

 SCF Done:  E(RB3LYP) =  -423.145453666     A.U. after   14 cycles
 Optimization completed.
    -- Stationary point found.
 Normal termination of Gaussian 09 at Mon Jan 27 17:57:47 2020.

 ----------------------------------------------------------------------
 #N Geom=AllCheck Guess=TCheck SCRF=Check GenChk RB3LYP/6-31G(2df,p) Fr
 eq
 ----------------------------------------------------------------------

 Structure from the checkpoint file:  "/scratch/puck/g09_ec7b8673-2509-44d8-8fab-20db99cf125c/Gau-88005.chk"
 -----
 titel
 -----
 Charge =  0 Multiplicity = 1

                         Standard orientation:
 ---------------------------------------------------------------------
 Center     Atomic      Atomic             Coordinates (Angstroms)
 Number     Number       Type             X           Y           Z
 ---------------------------------------------------------------------
      1          6           0        2.491826   -0.456410   -0.403837
      2          6           0        1.062855   -0.224035    0.019854
      3          6           0        0.140019   -1.378618    0.509292
      4          6           0       -0.998055   -0.446696    0.059211
      5          8           0       -2.295209   -0.847465   -0.209717
      6          6           0       -0.715719    1.025070    0.612668
      7          6           0        0.742896    0.871911    1.067770
      8          8           0       -0.539644    1.510079   -0.752076
      9          6           0       -0.103262    0.176241   -1.023066
     10          1           0        3.111868   -0.773246    0.442950
     11          1           0        2.560825   -1.233721   -1.172519
     12          1           0        2.931983    0.460186   -0.812267
     13          1           0        0.181770   -2.256990   -0.142146
     14          1           0        0.219331   -1.685071    1.557185
     15          1           0       -2.741735   -1.028633    0.624525
     16          1           0       -1.437021    1.597588    1.195726
     17          1           0        1.292431    1.805915    0.926094
     18          1           0        0.872052    0.518869    2.095068
     19          1           0       -0.036032   -0.110592   -2.071623
 ---------------------------------------------------------------------

 SCF Done:  E(RB3LYP) =  -423.145453666     A.U. after    1 cycles

 The electronic state is 1-A.
 Alpha  occ. eigenvalues --  -19.14854 -19.13035 -10.23879 -10.23434 -10.22825
 Alpha  occ. eigenvalues --  -10.19924 -10.18171 -10.18161 -10.17763  -1.05883
 Alpha  occ. eigenvalues --   -1.02413  -0.85578  -0.73191  -0.72622  -0.64705
 Alpha  occ. eigenvalues --   -0.64331  -0.56887  -0.53410  -0.51213  -0.48346
 Alpha  occ. eigenvalues --   -0.45355  -0.45070  -0.42808  -0.41179  -0.39974
 Alpha  occ. eigenvalues --   -0.38867  -0.36492  -0.35511  -0.33892  -0.32843
 Alpha  occ. eigenvalues --   -0.30781  -0.28347  -0.25869  -0.23637
 Alpha virt. eigenvalues --    0.07190   0.09162   0.10344   0.11983   0.12821
 Alpha virt. eigenvalues --    0.14099   0.14628   0.15210   0.15768   0.16011
 Alpha virt. eigenvalues --    0.17582   0.18700   0.18901   0.20428   0.21816

 Mulliken charges:
               1
     1  C   -0.502377
     2  C    0.285164
     3  C   -0.359853
     4  C    0.396745
     5  O   -0.478614
     6  C   -0.008772
     7  C   -0.249423
     8  O   -0.293156
     9  C    0.019652
    10  H    0.117239
    11  H    0.114876
    12  H    0.122629
    13  H    0.103475
    14  H    0.088163
    15  H    0.282499
    16  H    0.077895
    17  H    0.105415
    18  H    0.092192
    19  H    0.086254
 Sum of Mulliken charges =   0.00000

 Dipole moment (field-independent basis, Debye):
    X=              0.6309    Y=             -1.3577    Z=              2.1217  Tot=              2.5967
 Quadrupole moment (field-independent basis, Debye-Ang):
   XX=            -52.4267   YY=            -55.6390   ZZ=            -51.0261
   XY=              1.0201   XZ=             -5.3331   YZ=              1.4045

  Exact polarizability:  80.767  -0.517  71.913  -1.989   1.852  70.272
 Approx polarizability: 109.844  -0.880 108.741  -0.967  -0.031 110.470

                      1                      2                      3
                      A                      A                      A
 Frequencies --    202.8824               209.5852               229.4544
 Red. masses --      1.2562                 1.1492                 2.3281
 Frc consts  --      0.0305                 0.0297                 0.0722
 IR Inten    --     26.7503                26.4165                16.3151

                      4                      5                      6
                      A                      A                      A
 Frequencies --    244.3087               301.0885               365.2283
 Red. masses --      2.0953                 3.9607                 3.2227
 Frc consts  --      0.0737                 0.2115                 0.2533
 IR Inten    --     13.2006                13.2744                12.0270

                      7                      8                      9
                      A                      A                      A
 Frequencies --    436.6925               472.8685               539.9682
 Red. masses --      2.2066                 1.8922                 3.7783
 Frc consts  --      0.2479                 0.2493                 0.6491
 IR Inten    --      3.8101                 1.0340                 3.4943

                     10                     11                     12
                      A                      A                      A
 Frequencies --    584.0843               616.6972               690.9363
 Red. masses --      4.3403                 3.9440                 3.8632
 Frc consts  --      0.8724                 0.8837                 1.0866
 IR Inten    --      1.9332                 7.0069                 1.1843

                     13                     14                     15
                      A                      A                      A
 Frequencies --    733.2681               797.3860               858.8079
 Red. masses --      3.2496                 3.3587                 3.7678
 Frc consts  --      1.0295                 1.2582                 1.6373
 IR Inten    --      4.9818                 1.5847                26.5167

                     16                     17                     18
                      A                      A                      A
 Frequencies --    898.4060               912.4902               939.1976
 Red. masses --      2.4337                 2.0149                 2.0604
 Frc consts  --      1.1574                 0.9884                 1.0708
 IR Inten    --      6.2339                 1.7014                13.1390

                     19                     20                     21
                      A                      A                      A
 Frequencies --    946.8840               985.5870              1004.7854
 Red. masses --      2.3596                 1.7244                 2.5804
 Frc consts  --      1.2465                 0.9869                 1.5349
 IR Inten    --     29.8360                 6.8961                10.3368

                     22                     23                     24
                      A                      A                      A
 Frequencies --   1016.0927              1063.4330              1072.2131
 Red. masses --      1.4912                 1.3821                 2.0007
 Frc consts  --      0.9071                 0.9209                 1.3552
 IR Inten    --      0.1218                 3.3317                34.9607

                     25                     26                     27
                      A                      A                      A
 Frequencies --   1123.1711              1126.7416              1154.7221
 Red. masses --      1.5263                 1.9359                 1.8336
 Frc consts  --      1.1344                 1.4480                 1.4405
 IR Inten    --      5.2331                11.1529                 9.0140

                     28                     29                     30
                      A                      A                      A
 Frequencies --   1176.8825              1203.3654              1219.2313
 Red. masses --      1.9169                 2.3136                 1.4144
 Frc consts  --      1.5643                 1.9739                 1.2388
 IR Inten    --     26.7894                22.2709                 0.3584

                     31                     32                     33
                      A                      A                      A
 Frequencies --   1236.4839              1252.5779              1300.4122
 Red. masses --      1.9543                 1.7782                 1.9918
 Frc consts  --      1.7605                 1.6438                 1.9845
 IR Inten    --     11.0072                 4.5203               153.5114

                     34                     35                     36
                      A                      A                      A
 Frequencies --   1310.9298              1348.7152              1403.4799
 Red. masses --      1.6734                 2.3858                 2.1795
 Frc consts  --      1.6943                 2.5570                 2.5294
 IR Inten    --      9.1314                 4.6915                13.8602

                     37                     38                     39
                      A                      A                      A
 Frequencies --   1414.9195              1478.2948              1492.4395
 Red. masses --      1.3858                 1.1121                 1.0488
 Frc consts  --      1.6346                 1.4320                 1.3764
 IR Inten    --      0.7310                 1.0769                 4.7596

                     40                     41                     42
                      A                      A                      A
 Frequencies --   1493.8545              1506.0304              3022.5409
 Red. masses --      1.0480                 1.1792                 1.0355
 Frc consts  --      1.3780                 1.5758                 5.5738
 IR Inten    --      3.9891                 6.1050                32.0661

                     43                     44                     45
                      A                      A                      A
 Frequencies --   3042.1264              3056.2767              3085.5455
 Red. masses --      1.0573                 1.0583                 1.1005
 Frc consts  --      5.7651                 5.8243                 6.1732
 IR Inten    --     32.6923                28.2382                17.9685

                     46                     47                     48
                      A                      A                      A
 Frequencies --   3092.8137              3100.9152              3112.0613
 Red. masses --      1.1014                 1.1072                 1.1071
 Frc consts  --      6.2076                 6.2726                 6.3172
 IR Inten    --     15.9204                27.6458                24.3927

                     49                     50                     51
                      A                      A                      A
 Frequencies --   3123.4429              3135.2898              3800.7331
 Red. masses --      1.0907                 1.0925                 1.0659
 Frc consts  --      6.2696                 6.3275                 9.0720
 IR Inten    --     51.3199                20.8943                24.4019

 - Thermochemistry -
 -------------------
 Temperature   298.150 Kelvin.  Pressure   1.00000 Atm.
 Atom     1 has atomic number  6 and mass  12.00000

 Molecular mass:   126.06808 amu.
 Principal axes and moments of inertia in atomic units:
                           1         2         3
     Eigenvalues --   633.781901073.221391267.71630
           X            0.99967  -0.01317  -0.02213
           Y            0.01423   0.99872   0.04853
           Z            0.02146  -0.04883   0.99858
 This molecule is an asymmetric top.
 Rotational symmetry number  1.
 Warning -- assumption of classical behavior for rotation
           may cause significant error
 Rotational temperatures (Kelvin)      0.13666     0.08070     0.06832
 Rotational constants (GHZ):           2.84757     1.68161     1.42362
 Zero-point vibrational energy     418312.2 (Joules/Mol)
                                   99.97902 (Kcal/Mol)
 Warning -- explicit consideration of  11 degrees of freedom as
           vibrations may cause significant error
 Vibrational temperatures:    291.90   301.55   330.13   351.51   433.20
          (Kelvin)            525.48   628.30   680.35   776.89   840.37
                              887.29   994.10  1055.01  1147.26  1235.63
                             1292.60  1312.87  1351.29  1362.35  1418.04
                             1445.66  1461.93  1530.04  1542.67  1615.99
                             1621.13  1661.39  1693.27  1731.37  1754.20
                             1779.02  1802.18  1871.00  1886.13  1940.50
                             2019.29  2035.75  2126.93  2147.28  2149.32
                             2166.84  4348.76  4376.94  4397.29  4439.41
                             4449.86  4461.52  4477.56  4493.93  4510.98
                             5468.40

 Zero-point correction=                           0.159327 (Hartree/Particle)
 Thermal correction to Energy=                    0.167004
 Thermal correction to Enthalpy=                  0.167948
 Thermal correction to Gibbs Free Energy=         0.127842
 Sum of electronic and zero-point Energies=           -422.986127
 Sum of electronic and thermal Energies=              -422.978450
 Sum of electronic and thermal Enthalpies=            -422.977506
 Sum of electronic and thermal Free Energies=         -423.017612

                     E (Thermal)             CV                S
                      KCal/Mol        Cal/Mol-Kelvin    Cal/Mol-Kelvin
 Total                  104.796             31.431             84.410
 Electronic               0.000              0.000              0.000
 Translational            0.889              2.981             40.409
 Rotational               0.889              2.981             28.246
 Vibrational            103.019             25.470             15.755
 Vibration     1          0.639              1.836              2.107
 Vibration     2          0.642              1.826              2.047
 Vibration     3          0.652              1.796              1.883
 Vibration     4          0.660              1.772              1.771
 Vibration     5          0.693              1.672              1.411
 Vibration     6          0.738              1.544              1.100
 Vibration     7          0.797              1.390              0.837
 Vibration     8          0.830              1.310              0.730
 Vibration     9          0.895              1.162              0.565
 Vibration    10          0.941              1.066              0.478
 Vibration    11          0.976              0.997              0.422

 Normal termination of Gaussian 09 at Mon Jan 27 18:44:47 2020.
