 Gaussian 09, Revision D.01,
 Gaussian 09:  ES64L-G09RevD.01 24-Apr-2013

 -----------------------------
 # b3lyp 6-31G(2df,p) opt Freq
 -----------------------------

 -----
 titel
 -----
 Symbolic Z-matrix:
 Charge =  0 Multiplicity = 1

 SCF Done:  E(RB3LYP) =  -423.149968748     A.U. after   15 cycles
 SCF Done:  E(RB3LYP) =  -423.149968856     A.U. after    6 cycles
 Optimization completed.
    -- Stationary point found.
 Normal termination of Gaussian 09 at Tue Jan 28 08:22:45 2020.

 ----------------------------------------------------------------------
 #N Geom=AllCheck Guess=TCheck SCRF=Check GenChk RB3LYP/6-31G(2df,p) Fr
 eq
 ----------------------------------------------------------------------

 Structure from the checkpoint file:  "/scratch/puck/g09_29c9f66b-e44d-4605-9369-210f8ffe85c5/Gau-8463.chk"
 -----
 titel
 -----
 Charge =  0 Multiplicity = 1

                         Standard orientation:
 ---------------------------------------------------------------------
 Center     Atomic      Atomic             Coordinates (Angstroms)
 Number     Number       Type             X           Y           Z
 ---------------------------------------------------------------------
      1          6           0        1.883750    2.120212    0.038478
      2          6           0        0.620859    1.433185   -0.485366
      3          6           0        0.370376    0.073695    0.187895
      4          8           0        1.443011   -0.768307   -0.126264
      5          6           0        1.525015   -1.949060    0.650348
      6          6           0       -0.976256   -0.508307   -0.277439
      7          8           0       -1.066764   -1.489621   -0.979044
      8          6           0       -2.152990    0.209241    0.193112
      9          6           0       -3.118244    0.803485    0.599372
     10          1           0        1.796643    2.344841    1.107429
     11          1           0        2.756218    1.478434   -0.102893
     12          1           0        2.059062    3.062884   -0.488242
     13          1           0       -0.255482    2.069864   -0.326898
     14          1           0        0.703976    1.258351   -1.564288
     15          1           0        0.293787    0.224580    1.281357
     16          1           0        1.573034   -1.715991    1.725342
     17          1           0        0.678851   -2.619877    0.464862
     18          1           0        2.448942   -2.453191    0.358541
     19          1           0       -3.980072    1.318816    0.948851
 ---------------------------------------------------------------------

 SCF Done:  E(RB3LYP) =  -423.149968856     A.U. after    1 cycles

 The electronic state is 1-A.
 Alpha  occ. eigenvalues --  -19.14692 -19.14511 -10.29113 -10.24583 -10.22306
 Alpha  occ. eigenvalues --  -10.21180 -10.20443 -10.19209 -10.17648  -1.06145
 Alpha  occ. eigenvalues --   -1.03422  -0.80542  -0.77468  -0.71849  -0.68054
 Alpha  occ. eigenvalues --   -0.62824  -0.59204  -0.54053  -0.51201  -0.49868
 Alpha  occ. eigenvalues --   -0.46657  -0.44989  -0.43401  -0.42620  -0.40693
 Alpha  occ. eigenvalues --   -0.38979  -0.36658  -0.35201  -0.34599  -0.32352
 Alpha  occ. eigenvalues --   -0.30214  -0.30008  -0.28055  -0.24982
 Alpha virt. eigenvalues --   -0.06118   0.02735   0.08491   0.09609   0.10593
 Alpha virt. eigenvalues --    0.11515   0.13742   0.14488   0.14961   0.15823
 Alpha virt. eigenvalues --    0.17273   0.17636   0.18345   0.19643   0.22752

 Mulliken charges:
               1
     1  C   -0.385981
     2  C   -0.194688
     3  C    0.014390
     4  O   -0.226430
     5  C   -0.246991
     6  C    0.211098
     7  O   -0.284323
     8  C    0.278471
     9  C   -0.424268
    10  H    0.112193
    11  H    0.138787
    12  H    0.114851
    13  H    0.112938
    14  H    0.120243
    15  H    0.078235
    16  H    0.101939
    17  H    0.132351
    18  H    0.130225
    19  H    0.216960
 Sum of Mulliken charges =   0.00000

 Dipole moment (field-independent basis, Debye):
    X=             -0.4663    Y=              1.9336    Z=              2.2075  Tot=              2.9715
 Quadrupole moment (field-independent basis, Debye-Ang):
   XX=            -48.7233   YY=            -52.6023   ZZ=            -53.9950
   XY=             -5.9629   XZ=             -2.5601   YZ=             -2.9939

  Exact polarizability:  94.780 -10.150  82.288  -5.651   5.217  62.491
 Approx polarizability: 130.714 -23.327 122.251 -15.703  19.587 101.692

                      1                      2                      3
                      A                      A                      A
 Frequencies --     48.2156                88.5952               116.0709
 Red. masses --      5.0093                 2.3251                 1.9605
 Frc consts  --      0.0069                 0.0108                 0.0156
 IR Inten    --      1.4183                 0.5528                 3.3316

                      4                      5                      6
                      A                      A                      A
 Frequencies --    137.0904               161.9221               190.6916
 Red. masses --      3.0868                 1.8151                 2.1596
 Frc consts  --      0.0342                 0.0280                 0.0463
 IR Inten    --      1.1063                 0.4121                 3.2862

                      7                      8                      9
                      A                      A                      A
 Frequencies --    216.9128               261.1476               269.9692
 Red. masses --      1.4169                 3.9579                 2.3102
 Frc consts  --      0.0393                 0.1590                 0.0992
 IR Inten    --      0.5768                 1.7553                 3.1431

                     10                     11                     12
                      A                      A                      A
 Frequencies --    313.8017               347.1220               482.9385
 Red. masses --      4.2825                 4.0212                 2.8988
 Frc consts  --      0.2485                 0.2855                 0.3983
 IR Inten    --      1.7948                 1.8438                 1.2763

                     13                     14                     15
                      A                      A                      A
 Frequencies --    505.5599               605.4912               654.1628
 Red. masses --      5.4925                 6.4407                 1.2609
 Frc consts  --      0.8271                 1.3912                 0.3179
 IR Inten    --      2.5480                10.5230                42.3360

                     16                     17                     18
                      A                      A                      A
 Frequencies --    698.7631               712.5362               767.4686
 Red. masses --      4.3146                 1.4249                 1.3234
 Frc consts  --      1.2412                 0.4262                 0.4593
 IR Inten    --      0.8275                32.7754                 1.3668

                     19                     20                     21
                      A                      A                      A
 Frequencies --    866.0521               925.3618               964.3262
 Red. masses --      3.2847                 2.2089                 2.1943
 Frc consts  --      1.4515                 1.1144                 1.2023
 IR Inten    --      6.7732                28.1733                10.8582

                     22                     23                     24
                      A                      A                      A
 Frequencies --   1047.6789              1072.4049              1106.7273
 Red. masses --      2.7747                 3.5979                 2.5089
 Frc consts  --      1.7944                 2.4379                 1.8106
 IR Inten    --     16.8872               144.0506                63.1226

                     25                     26                     27
                      A                      A                      A
 Frequencies --   1143.0797              1174.9265              1182.7832
 Red. masses --      2.1387                 1.8998                 1.6678
 Frc consts  --      1.6465                 1.5452                 1.3747
 IR Inten    --     51.6207                37.7302                27.0368

                     28                     29                     30
                      A                      A                      A
 Frequencies --   1238.1071              1274.9291              1313.6453
 Red. masses --      1.7543                 1.4315                 1.1849
 Frc consts  --      1.5844                 1.3709                 1.2047
 IR Inten    --     22.9586                 1.0541                 4.7836

                     31                     32                     33
                      A                      A                      A
 Frequencies --   1371.7060              1377.1287              1406.4701
 Red. masses --      1.4659                 1.3130                 1.2390
 Frc consts  --      1.6251                 1.4672                 1.4441
 IR Inten    --      4.5909                13.6225                 1.6626

                     34                     35                     36
                      A                      A                      A
 Frequencies --   1476.4632              1480.9238              1485.9024
 Red. masses --      1.0908                 1.1270                 1.0755
 Frc consts  --      1.4010                 1.4563                 1.3991
 IR Inten    --      1.4358                 0.7286                 3.8995

                     37                     38                     39
                      A                      A                      A
 Frequencies --   1495.0527              1509.4992              1512.0709
 Red. masses --      1.0459                 1.0530                 1.0467
 Frc consts  --      1.3774                 1.4137                 1.4100
 IR Inten    --      4.3825                 4.1914                 6.4361

                     40                     41                     42
                      A                      A                      A
 Frequencies --   1774.1554              2206.7635              2930.0270
 Red. masses --     12.3862                 5.9112                 1.0795
 Frc consts  --     22.9705                16.9605                 5.4602
 IR Inten    --    154.0625                56.1221                26.8433

                     43                     44                     45
                      A                      A                      A
 Frequencies --   2987.0251              3038.0066              3043.9123
 Red. masses --      1.0458                 1.0396                 1.0586
 Frc consts  --      5.4974                 5.6532                 5.7790
 IR Inten    --     59.4928                20.6171                18.7610

                     46                     47                     48
                      A                      A                      A
 Frequencies --   3070.3225              3086.2714              3105.1653
 Red. masses --      1.0894                 1.0996                 1.1013
 Frc consts  --      6.0509                 6.1708                 6.2563
 IR Inten    --     34.2785                 7.6879                35.6580

                     49                     50                     51
                      A                      A                      A
 Frequencies --   3124.1707              3132.0151              3493.0177
 Red. masses --      1.1009                 1.1008                 1.1617
 Frc consts  --      6.3311                 6.3623                 8.3508
 IR Inten    --     24.0281                20.4261                55.4703

 - Thermochemistry -
 -------------------
 Temperature   298.150 Kelvin.  Pressure   1.00000 Atm.
 Atom     1 has atomic number  6 and mass  12.00000

 Molecular mass:   126.06808 amu.
 Principal axes and moments of inertia in atomic units:
                           1         2         3
     Eigenvalues --   931.032411398.640922048.61152
           X            0.99999  -0.00294   0.00134
           Y            0.00298   0.99961  -0.02767
           Z           -0.00126   0.02768   0.99962
 This molecule is an asymmetric top.
 Rotational symmetry number  1.
 Warning -- assumption of classical behavior for rotation
           may cause significant error
 Rotational temperatures (Kelvin)      0.09303     0.06193     0.04228
 Rotational constants (GHZ):           1.93843     1.29035     0.88096
 Zero-point vibrational energy     406697.7 (Joules/Mol)
                                   97.20309 (Kcal/Mol)
 Warning -- explicit consideration of  14 degrees of freedom as
           vibrations may cause significant error
 Vibrational temperatures:     69.37   127.47   167.00   197.24   232.97
          (Kelvin)            274.36   312.09   375.73   388.43   451.49
                              499.43   694.84   727.39   871.17   941.19
                             1005.36  1025.18  1104.21  1246.05  1331.39
                             1387.45  1507.37  1542.95  1592.33  1644.63
                             1690.46  1701.76  1781.36  1834.34  1890.04
                             1973.58  1981.38  2023.59  2124.30  2130.72
                             2137.88  2151.04  2171.83  2175.53  2552.61
                             3175.04  4215.65  4297.66  4371.01  4379.51
                             4417.50  4440.45  4467.63  4494.98  4506.27
                             5025.67

 Zero-point correction=                           0.154903 (Hartree/Particle)
 Thermal correction to Energy=                    0.165574
 Thermal correction to Enthalpy=                  0.166518
 Thermal correction to Gibbs Free Energy=         0.118611
 Sum of electronic and zero-point Energies=           -422.995066
 Sum of electronic and thermal Energies=              -422.984395
 Sum of electronic and thermal Enthalpies=            -422.983451
 Sum of electronic and thermal Free Energies=         -423.031357

                     E (Thermal)             CV                S
                      KCal/Mol        Cal/Mol-Kelvin    Cal/Mol-Kelvin
 Total                  103.899             37.151            100.828
 Electronic               0.000              0.000              0.000
 Translational            0.889              2.981             40.409
 Rotational               0.889              2.981             29.369
 Vibrational            102.122             31.189             31.051
 Vibration     1          0.595              1.978              4.889
 Vibration     2          0.601              1.957              3.691
 Vibration     3          0.608              1.936              3.165
 Vibration     4          0.614              1.916              2.844
 Vibration     5          0.622              1.889              2.527
 Vibration     6          0.634              1.853              2.221
 Vibration     7          0.646              1.815              1.985
 Vibration     8          0.669              1.744              1.654
 Vibration     9          0.674              1.728              1.596
 Vibration    10          0.702              1.647              1.342
 Vibration    11          0.725              1.581              1.179
 Vibration    12          0.839              1.288              0.702
 Vibration    13          0.861              1.238              0.644
 Vibration    14          0.964              1.020              0.440

 Optimization completed.
    -- Stationary point found.
 Normal termination of Gaussian 09 at Tue Jan 28 09:03:51 2020.
