 Gaussian 09, Revision D.01,
 Gaussian 09:  ES64L-G09RevD.01 24-Apr-2013

 -----------------------------
 # b3lyp 6-31G(2df,p) opt Freq
 -----------------------------

 -----
 titel
 -----
 Symbolic Z-matrix:
 Charge =  0 Multiplicity = 1

 SCF Done:  E(RB3LYP) =  -423.123504279     A.U. after   14 cycles
 Optimization completed.
    -- Stationary point found.
 Normal termination of Gaussian 09 at Tue Jan 28 02:41:47 2020.

 ----------------------------------------------------------------------
 #N Geom=AllCheck Guess=TCheck SCRF=Check GenChk RB3LYP/6-31G(2df,p) Fr
 eq
 ----------------------------------------------------------------------

 Structure from the checkpoint file:  "/scratch/puck/g09_fdbe14cd-05c1-4642-bcd4-5b4c37be3983/Gau-77579.chk"
 -----
 titel
 -----
 Charge =  0 Multiplicity = 1

                         Standard orientation:
 ---------------------------------------------------------------------
 Center     Atomic      Atomic             Coordinates (Angstroms)
 Number     Number       Type             X           Y           Z
 ---------------------------------------------------------------------
      1          6           0       -2.925567   -0.549213   -0.644922
      2          6           0       -1.948743    0.284692    0.173883
      3          6           0       -1.010757   -0.547289    1.126289
      4          6           0        0.192720   -0.053441    0.303644
      5          8           0        0.177345    1.376367    0.360526
      6          6           0       -0.685030    0.730424   -0.585590
      7          6           0        1.487798   -0.733902    0.051392
      8          6           0        2.773957   -0.064101    0.298336
      9          8           0        2.269522   -0.227554   -1.028356
     10          1           0       -2.411876   -1.364509   -1.167348
     11          1           0       -3.693594   -0.994427   -0.004207
     12          1           0       -3.431317    0.062761   -1.399597
     13          1           0       -2.462216    1.117202    0.663994
     14          1           0       -0.995294   -0.268989    2.182603
     15          1           0       -1.184738   -1.623149    1.032035
     16          1           0       -0.564565    1.000703   -1.628890
     17          1           0        1.445456   -1.822287    0.112915
     18          1           0        2.763081    0.957134    0.671353
     19          1           0        3.653868   -0.657959    0.541587
 ---------------------------------------------------------------------

 SCF Done:  E(RB3LYP) =  -423.123504279     A.U. after    1 cycles

 The electronic state is 1-A.
 Alpha  occ. eigenvalues --  -19.15297 -19.15025 -10.24440 -10.24149 -10.23377
 Alpha  occ. eigenvalues --  -10.23314 -10.19724 -10.19097 -10.18285  -1.08470
 Alpha  occ. eigenvalues --   -1.06638  -0.81590  -0.73112  -0.69115  -0.65342
 Alpha  occ. eigenvalues --   -0.64648  -0.58256  -0.54844  -0.52554  -0.49167
 Alpha  occ. eigenvalues --   -0.46322  -0.45639  -0.43125  -0.41215  -0.40336
 Alpha  occ. eigenvalues --   -0.38868  -0.38136  -0.35139  -0.34325  -0.32889
 Alpha  occ. eigenvalues --   -0.32343  -0.28341  -0.27026  -0.24816
 Alpha virt. eigenvalues --    0.06266   0.09240   0.10232   0.10992   0.12086
 Alpha virt. eigenvalues --    0.13367   0.13550   0.14771   0.15309   0.16240
 Alpha virt. eigenvalues --    0.16743   0.17555   0.18596   0.19250   0.19983

 Mulliken charges:
               1
     1  C   -0.409076
     2  C    0.005166
     3  C   -0.333271
     4  C    0.442252
     5  O   -0.292112
     6  C   -0.046026
     7  C   -0.072844
     8  C   -0.172464
     9  O   -0.229162
    10  H    0.116302
    11  H    0.121744
    12  H    0.119996
    13  H    0.084245
    14  H    0.108431
    15  H    0.105605
    16  H    0.111556
    17  H    0.092706
    18  H    0.133097
    19  H    0.113855
 Sum of Mulliken charges =   0.00000

 Dipole moment (field-independent basis, Debye):
    X=             -1.1022    Y=             -1.5914    Z=              0.9216  Tot=              2.1440
 Quadrupole moment (field-independent basis, Debye-Ang):
   XX=            -50.2400   YY=            -53.8857   ZZ=            -54.1224
   XY=             -1.1490   XZ=              4.4534   YZ=             -1.7584

  Exact polarizability:  94.916   0.467  67.130   4.248  -2.472  65.889
 Approx polarizability: 117.995   1.775 106.403   5.481  -3.636 103.906

                      1                      2                      3
                      A                      A                      A
 Frequencies --     63.3499               104.9132               175.1945
 Red. masses --      4.0801                 2.7518                 3.7623
 Frc consts  --      0.0096                 0.0178                 0.0680
 IR Inten    --      2.1188                 1.2796                 1.3543

                      4                      5                      6
                      A                      A                      A
 Frequencies --    231.0574               250.5704               300.0060
 Red. masses --      2.7438                 1.1730                 2.6242
 Frc consts  --      0.0863                 0.0434                 0.1392
 IR Inten    --      3.3573                 0.8422                 0.4616

                      7                      8                      9
                      A                      A                      A
 Frequencies --    359.4523               440.3372               502.7635
 Red. masses --      3.0454                 2.6280                 3.9159
 Frc consts  --      0.2318                 0.3002                 0.5832
 IR Inten    --      0.8036                 0.7637                 0.3432

                     10                     11                     12
                      A                      A                      A
 Frequencies --    510.0719               667.6697               734.6905
 Red. masses --      3.9784                 2.7774                 3.2051
 Frc consts  --      0.6099                 0.7295                 1.0193
 IR Inten    --     18.9306                13.1070                 1.0532

                     13                     14                     15
                      A                      A                      A
 Frequencies --    821.1274               857.7497               861.0358
 Red. masses --      3.0292                 7.7847                 2.0445
 Frc consts  --      1.2034                 3.3745                 0.8930
 IR Inten    --      4.9013                13.2497                 4.3975

                     16                     17                     18
                      A                      A                      A
 Frequencies --    887.7831               914.0455               926.7273
 Red. masses --      2.7870                 2.4385                 1.7897
 Frc consts  --      1.2942                 1.2004                 0.9056
 IR Inten    --     33.7010                14.5486                14.0168

                     19                     20                     21
                      A                      A                      A
 Frequencies --    947.7533               992.8751              1036.0344
 Red. masses --      2.3310                 1.7275                 1.6095
 Frc consts  --      1.2336                 1.0034                 1.0178
 IR Inten    --      1.5502                 8.2667                 7.2055

                     22                     23                     24
                      A                      A                      A
 Frequencies --   1071.0919              1094.2686              1098.0690
 Red. masses --      1.8486                 1.9757                 1.2609
 Frc consts  --      1.2495                 1.3939                 0.8958
 IR Inten    --      0.9499                 7.9173                 2.7847

                     25                     26                     27
                      A                      A                      A
 Frequencies --   1118.4369              1143.2336              1164.8127
 Red. masses --      1.6974                 2.2949                 1.4001
 Frc consts  --      1.2510                 1.7672                 1.1192
 IR Inten    --      1.1395                 5.3770                 1.6346

                     28                     29                     30
                      A                      A                      A
 Frequencies --   1167.6951              1202.0119              1229.2974
 Red. masses --      1.3537                 1.5733                 1.4897
 Frc consts  --      1.0875                 1.3393                 1.3264
 IR Inten    --      0.6555                 3.5436                 5.6057

                     31                     32                     33
                      A                      A                      A
 Frequencies --   1239.1562              1272.5886              1283.1524
 Red. masses --      1.4338                 1.5640                 1.7732
 Frc consts  --      1.2971                 1.4923                 1.7201
 IR Inten    --     13.9419                 2.9929                 6.4163

                     34                     35                     36
                      A                      A                      A
 Frequencies --   1347.3785              1403.5236              1412.0942
 Red. masses --      1.5898                 1.7782                 1.3831
 Frc consts  --      1.7005                 2.0638                 1.6249
 IR Inten    --      4.2869                 2.6226                 6.8232

                     37                     38                     39
                      A                      A                      A
 Frequencies --   1463.4403              1483.8354              1496.1054
 Red. masses --      1.4007                 1.8261                 1.0568
 Frc consts  --      1.7674                 2.3690                 1.3937
 IR Inten    --      5.2917                 1.5235                 3.0869

                     40                     41                     42
                      A                      A                      A
 Frequencies --   1499.2170              1518.9321              3026.8300
 Red. masses --      1.0532                 1.5694                 1.0354
 Frc consts  --      1.3947                 2.1334                 5.5889
 IR Inten    --      3.5015                 2.3196                24.1814

                     43                     44                     45
                      A                      A                      A
 Frequencies --   3057.5957              3062.5580              3090.1268
 Red. masses --      1.0610                 1.0830                 1.0521
 Frc consts  --      5.8444                 5.9847                 5.9189
 IR Inten    --     21.8800                13.9922                27.9110

                     46                     47                     48
                      A                      A                      A
 Frequencies --   3094.5495              3100.9529              3102.6940
 Red. masses --      1.1004                 1.1013                 1.0864
 Frc consts  --      6.2087                 6.2397                 6.1618
 IR Inten    --     36.8604                22.1897                26.3502

                     49                     50                     51
                      A                      A                      A
 Frequencies --   3117.9197              3185.6474              3189.9472
 Red. masses --      1.1076                 1.0939                 1.1188
 Frc consts  --      6.3440                 6.5410                 6.7077
 IR Inten    --     26.7521                11.4125                15.8686

 - Thermochemistry -
 -------------------
 Temperature   298.150 Kelvin.  Pressure   1.00000 Atm.
 Atom     1 has atomic number  6 and mass  12.00000

 Molecular mass:   126.06808 amu.
 Principal axes and moments of inertia in atomic units:
                           1         2         3
     Eigenvalues --   441.206641750.779891774.34034
           X            0.99976   0.01374   0.01713
           Y           -0.00933   0.97203  -0.23468
           Z           -0.01987   0.23447   0.97192
 This molecule is an asymmetric top.
 Rotational symmetry number  1.
 Warning -- assumption of classical behavior for rotation
           may cause significant error
 Rotational temperatures (Kelvin)      0.19631     0.04947     0.04881
 Rotational constants (GHZ):           4.09047     1.03082     1.01713
 Zero-point vibrational energy     414639.8 (Joules/Mol)
                                   99.10130 (Kcal/Mol)
 Warning -- explicit consideration of  10 degrees of freedom as
           vibrations may cause significant error
 Vibrational temperatures:     91.15   150.95   252.07   332.44   360.51
          (Kelvin)            431.64   517.17   633.55   723.36   733.88
                              960.63  1057.05  1181.42  1234.11  1238.84
                             1277.32  1315.11  1333.35  1363.60  1428.52
                             1490.62  1541.06  1574.41  1579.87  1609.18
                             1644.86  1675.90  1680.05  1729.42  1768.68
                             1782.87  1830.97  1846.17  1938.57  2019.35
                             2031.69  2105.56  2134.91  2152.56  2157.04
                             2185.40  4354.93  4399.19  4406.33  4446.00
                             4452.36  4461.57  4464.08  4485.99  4583.43
                             4589.62

 Zero-point correction=                           0.157928 (Hartree/Particle)
 Thermal correction to Energy=                    0.166351
 Thermal correction to Enthalpy=                  0.167295
 Thermal correction to Gibbs Free Energy=         0.124544
 Sum of electronic and zero-point Energies=           -422.965576
 Sum of electronic and thermal Energies=              -422.957153
 Sum of electronic and thermal Enthalpies=            -422.956209
 Sum of electronic and thermal Free Energies=         -422.998960

                     E (Thermal)             CV                S
                      KCal/Mol        Cal/Mol-Kelvin    Cal/Mol-Kelvin
 Total                  104.387             31.851             89.977
 Electronic               0.000              0.000              0.000
 Translational            0.889              2.981             40.409
 Rotational               0.889              2.981             28.707
 Vibrational            102.610             25.889             20.862
 Vibration     1          0.597              1.972              4.350
 Vibration     2          0.605              1.945              3.361
 Vibration     3          0.627              1.873              2.379
 Vibration     4          0.653              1.794              1.871
 Vibration     5          0.663              1.762              1.727
 Vibration     6          0.693              1.674              1.417
 Vibration     7          0.734              1.556              1.124
 Vibration     8          0.800              1.382              0.826
 Vibration     9          0.858              1.244              0.651
 Vibration    10          0.865              1.228              0.633

 Optimization completed.
    -- Stationary point found.
 Normal termination of Gaussian 09 at Tue Jan 28 03:21:40 2020.
