 Gaussian 09, Revision D.01,
 Gaussian 09:  ES64L-G09RevD.01 24-Apr-2013

 -----------------------------
 # b3lyp 6-31G(2df,p) opt Freq
 -----------------------------

 -----
 titel
 -----
 Symbolic Z-matrix:
 Charge =  0 Multiplicity = 1

 SCF Done:  E(RB3LYP) =  -423.191059867     A.U. after   14 cycles
 Optimization completed.
    -- Stationary point found.
 Normal termination of Gaussian 09 at Mon Jan 27 13:49:16 2020.

 ----------------------------------------------------------------------
 #N Geom=AllCheck Guess=TCheck SCRF=Check GenChk RB3LYP/6-31G(2df,p) Fr
 eq
 ----------------------------------------------------------------------

 Structure from the checkpoint file:  "/scratch/puck/g09_34151116-1ffe-4fa7-84a7-15964da0da8e/Gau-3477.chk"
 -----
 titel
 -----
 Charge =  0 Multiplicity = 1

                         Standard orientation:
 ---------------------------------------------------------------------
 Center     Atomic      Atomic             Coordinates (Angstroms)
 Number     Number       Type             X           Y           Z
 ---------------------------------------------------------------------
      1          8           0        3.859450   -0.289358    0.073446
      2          6           0        2.701841   -0.598015   -0.048828
      3          6           0        1.638931    0.268602   -0.686646
      4          6           0        0.500661    0.585441    0.288228
      5          6           0       -0.731613    1.357625   -0.260601
      6          6           0       -1.645331    0.416601    0.604539
      7          6           0       -0.452164   -0.555209    0.749384
      8          6           0       -2.888196   -0.076138   -0.082157
      9          8           0       -3.010631   -1.169875   -0.574902
     10          1           0        2.331144   -1.579247    0.328843
     11          1           0        2.112998    1.184431   -1.053607
     12          1           0        1.227247   -0.278288   -1.547258
     13          1           0        0.905094    1.112237    1.159344
     14          1           0       -0.787017    2.430633   -0.068499
     15          1           0       -0.875306    1.181024   -1.331187
     16          1           0       -1.922116    0.911114    1.541739
     17          1           0       -0.280131   -0.995601    1.733156
     18          1           0       -0.535747   -1.358550    0.011762
     19          1           0       -3.711494    0.672655   -0.146154
 ---------------------------------------------------------------------

 SCF Done:  E(RB3LYP) =  -423.191059867     A.U. after    1 cycles

 The electronic state is 1-A.
 Alpha  occ. eigenvalues --  -19.14606 -19.14134 -10.27588 -10.27346 -10.21224
 Alpha  occ. eigenvalues --  -10.20917 -10.20733 -10.19893 -10.19505  -1.05205
 Alpha  occ. eigenvalues --   -1.04783  -0.87030  -0.77315  -0.69239  -0.68070
 Alpha  occ. eigenvalues --   -0.59834  -0.57127  -0.55305  -0.51027  -0.49162
 Alpha  occ. eigenvalues --   -0.47756  -0.45021  -0.44201  -0.41651  -0.41459
 Alpha  occ. eigenvalues --   -0.40535  -0.39806  -0.37003  -0.35298  -0.33997
 Alpha  occ. eigenvalues --   -0.33210  -0.32118  -0.25899  -0.24918
 Alpha virt. eigenvalues --   -0.03110  -0.02230   0.07022   0.09148   0.10844
 Alpha virt. eigenvalues --    0.11373   0.12826   0.13439   0.14414   0.15958
 Alpha virt. eigenvalues --    0.16650   0.16975   0.17922   0.18760   0.20366

 Mulliken charges:
               1
     1  O   -0.237297
     2  C    0.159357
     3  C   -0.299221
     4  C    0.032389
     5  C   -0.268043
     6  C   -0.071814
     7  C   -0.254315
     8  C    0.138728
     9  O   -0.242507
    10  H    0.078477
    11  H    0.121184
    12  H    0.117369
    13  H    0.089267
    14  H    0.114153
    15  H    0.116252
    16  H    0.092815
    17  H    0.110062
    18  H    0.125903
    19  H    0.077241
 Sum of Mulliken charges =   0.00000

 Dipole moment (field-independent basis, Debye):
    X=             -1.7621    Y=              2.0165    Z=              0.7152  Tot=              2.7718
 Quadrupole moment (field-independent basis, Debye-Ang):
   XX=            -72.1480   YY=            -53.7473   ZZ=            -51.5524
   XY=             -6.4175   XZ=             -4.2378   YZ=             -0.8094

  Exact polarizability:  97.342  -0.123  73.853   2.074  -0.581  62.409
 Approx polarizability: 125.678   5.778 116.461   4.918   4.650  97.010

                      1                      2                      3
                      A                      A                      A
 Frequencies --     42.6539                58.6982                72.2532
 Red. masses --      5.4549                 4.5226                 4.3270
 Frc consts  --      0.0058                 0.0092                 0.0133
 IR Inten    --      6.7630                 3.2728                 4.3710

                      4                      5                      6
                      A                      A                      A
 Frequencies --     98.9862               194.7677               241.7001
 Red. masses --      2.6301                 2.2471                 3.2511
 Frc consts  --      0.0152                 0.0502                 0.1119
 IR Inten    --      3.1856                 1.0252                 8.4592

                      7                      8                      9
                      A                      A                      A
 Frequencies --    305.5731               352.0302               405.5381
 Red. masses --      2.7852                 3.4461                 2.3337
 Frc consts  --      0.1532                 0.2516                 0.2261
 IR Inten    --      1.7247                 0.7525                 4.1465

                     10                     11                     12
                      A                      A                      A
 Frequencies --    493.4844               583.8771               674.2412
 Red. masses --      2.0761                 2.4721                 3.5425
 Frc consts  --      0.2979                 0.4965                 0.9488
 IR Inten    --     14.8712                 2.0549                12.3735

                     13                     14                     15
                      A                      A                      A
 Frequencies --    778.8399               814.3977               840.0946
 Red. masses --      2.3435                 1.2535                 1.8354
 Frc consts  --      0.8376                 0.4898                 0.7632
 IR Inten    --      9.6190                 3.4966                 0.9883

                     16                     17                     18
                      A                      A                      A
 Frequencies --    888.4607               934.9433               953.2912
 Red. masses --      2.6944                 2.8383                 1.9254
 Frc consts  --      1.2531                 1.4618                 1.0309
 IR Inten    --      2.3317                 6.2042                 3.0202

                     19                     20                     21
                      A                      A                      A
 Frequencies --    968.7309               991.5290              1012.3305
 Red. masses --      1.4026                 2.3864                 1.3528
 Frc consts  --      0.7755                 1.3823                 0.8168
 IR Inten    --      0.6102                 3.3339                11.4482

                     22                     23                     24
                      A                      A                      A
 Frequencies --   1088.6643              1104.5857              1128.6372
 Red. masses --      2.3587                 2.3606                 2.6849
 Frc consts  --      1.6470                 1.6969                 2.0151
 IR Inten    --      0.8561                29.6805                 7.4341

                     25                     26                     27
                      A                      A                      A
 Frequencies --   1137.9704              1181.0895              1235.5216
 Red. masses --      2.2266                 1.4496                 1.3308
 Frc consts  --      1.6989                 1.1914                 1.1969
 IR Inten    --      1.8403                25.6875                 0.5292

                     28                     29                     30
                      A                      A                      A
 Frequencies --   1240.0090              1258.7534              1268.5670
 Red. masses --      1.2082                 1.3186                 1.4109
 Frc consts  --      1.0946                 1.2309                 1.3378
 IR Inten    --      3.1469                 0.3158                 0.4246

                     31                     32                     33
                      A                      A                      A
 Frequencies --   1284.6126              1312.3459              1353.7710
 Red. masses --      1.2843                 1.4844                 1.5706
 Frc consts  --      1.2487                 1.5063                 1.6959
 IR Inten    --      1.0555                 0.1357                 2.9997

                     34                     35                     36
                      A                      A                      A
 Frequencies --   1381.3904              1422.4171              1431.4350
 Red. masses --      1.5291                 1.2089                 1.2000
 Frc consts  --      1.7191                 1.4411                 1.4487
 IR Inten    --     25.0690                12.6008                 5.5842

                     37                     38                     39
                      A                      A                      A
 Frequencies --   1463.5855              1479.6846              1501.4987
 Red. masses --      1.0954                 1.0867                 1.1229
 Frc consts  --      1.3824                 1.4018                 1.4915
 IR Inten    --      4.4618                 1.1728                 7.1746

                     40                     41                     42
                      A                      A                      A
 Frequencies --   1822.0323              1833.6700              2863.7660
 Red. masses --     10.2212                 9.9621                 1.0817
 Frc consts  --     19.9925                19.7353                 5.2267
 IR Inten    --    166.7291               175.0888                81.4989

                     43                     44                     45
                      A                      A                      A
 Frequencies --   2864.2028              3011.7533              3046.1866
 Red. masses --      1.0824                 1.0638                 1.0830
 Frc consts  --      5.2319                 5.6852                 5.9208
 IR Inten    --    154.0149                 5.8462                12.3075

                     46                     47                     48
                      A                      A                      A
 Frequencies --   3055.5757              3057.7189              3067.5975
 Red. masses --      1.0768                 1.0675                 1.0587
 Frc consts  --      5.9233                 5.8806                 5.8696
 IR Inten    --     17.4556                28.3226                10.6932

                     49                     50                     51
                      A                      A                      A
 Frequencies --   3091.4473              3120.0572              3124.7383
 Red. masses --      1.0983                 1.1068                 1.1071
 Frc consts  --      6.1843                 6.3482                 6.3687
 IR Inten    --     15.9047                20.4566                26.5609

 - Thermochemistry -
 -------------------
 Temperature   298.150 Kelvin.  Pressure   1.00000 Atm.
 Atom     1 has atomic number  8 and mass  15.99491

 Molecular mass:   126.06808 amu.
 Principal axes and moments of inertia in atomic units:
                           1         2         3
     Eigenvalues --   404.795792554.980192701.46611
           X            0.99992  -0.01142  -0.00562
           Y            0.01111   0.99857  -0.05231
           Z            0.00621   0.05224   0.99862
 This molecule is an asymmetric top.
 Rotational symmetry number  1.
 Rotational temperatures (Kelvin)      0.21397     0.03390     0.03206
 Rotational constants (GHZ):           4.45840     0.70636     0.66806
 Zero-point vibrational energy     412351.0 (Joules/Mol)
                                   98.55426 (Kcal/Mol)
 Warning -- explicit consideration of  11 degrees of freedom as
           vibrations may cause significant error
 Vibrational temperatures:     61.37    84.45   103.96   142.42   280.23
          (Kelvin)            347.75   439.65   506.49   583.48   710.01
                              840.07   970.08  1120.58  1171.74  1208.71
                             1278.30  1345.17  1371.57  1393.79  1426.59
                             1456.52  1566.34  1589.25  1623.86  1637.28
                             1699.32  1777.64  1784.09  1811.06  1825.18
                             1848.27  1888.17  1947.77  1987.51  2046.54
                             2059.51  2105.77  2128.93  2160.32  2621.49
                             2638.24  4120.32  4120.94  4333.24  4382.78
                             4396.29  4399.37  4413.58  4447.90  4489.06
                             4495.80

 Zero-point correction=                           0.157056 (Hartree/Particle)
 Thermal correction to Energy=                    0.166474
 Thermal correction to Enthalpy=                  0.167418
 Thermal correction to Gibbs Free Energy=         0.120938
 Sum of electronic and zero-point Energies=           -423.034004
 Sum of electronic and thermal Energies=              -423.024586
 Sum of electronic and thermal Enthalpies=            -423.023641
 Sum of electronic and thermal Free Energies=         -423.070122

                     E (Thermal)             CV                S
                      KCal/Mol        Cal/Mol-Kelvin    Cal/Mol-Kelvin
 Total                  104.464             32.824             97.827
 Electronic               0.000              0.000              0.000
 Translational            0.889              2.981             40.409
 Rotational               0.889              2.981             29.415
 Vibrational            102.687             26.863             28.004
 Vibration     1          0.595              1.980              5.132
 Vibration     2          0.596              1.974              4.500
 Vibration     3          0.598              1.967              4.091
 Vibration     4          0.604              1.950              3.474
 Vibration     5          0.635              1.847              2.182
 Vibration     6          0.658              1.776              1.790
 Vibration     7          0.696              1.663              1.386
 Vibration     8          0.729              1.571              1.157
 Vibration     9          0.771              1.458              0.943
 Vibration    10          0.849              1.264              0.675
 Vibration    11          0.941              1.066              0.478

 Normal termination of Gaussian 09 at Mon Jan 27 15:25:34 2020.
