 Gaussian 09, Revision D.01,
 Gaussian 09:  ES64L-G09RevD.01 24-Apr-2013

 -----------------------------
 # b3lyp 6-31G(2df,p) opt Freq
 -----------------------------

 -----
 titel
 -----
 Symbolic Z-matrix:
 Charge =  0 Multiplicity = 1

 SCF Done:  E(RB3LYP) =  -423.209858125     A.U. after   14 cycles
 Optimization completed.
    -- Stationary point found.
 Normal termination of Gaussian 09 at Tue Jan 28 00:46:45 2020.

 ----------------------------------------------------------------------
 #N Geom=AllCheck Guess=TCheck SCRF=Check GenChk RB3LYP/6-31G(2df,p) Fr
 eq
 ----------------------------------------------------------------------

 Structure from the checkpoint file:  "/scratch/puck/g09_1ec6b14f-9b6d-41f3-9643-dfedf6dca55c/Gau-37666.chk"
 -----
 titel
 -----
 Charge =  0 Multiplicity = 1

                         Standard orientation:
 ---------------------------------------------------------------------
 Center     Atomic      Atomic             Coordinates (Angstroms)
 Number     Number       Type             X           Y           Z
 ---------------------------------------------------------------------
      1          6           0        2.370311    0.052223   -0.956189
      2          6           0        1.522302   -0.268383    0.279692
      3          6           0        0.831041    1.004722    0.844227
      4          6           0       -0.568356    0.980143    0.239202
      5          8           0       -1.261365    1.922495   -0.076408
      6          6           0       -0.939564   -0.425370   -0.075478
      7          8           0       -1.987702   -0.597476   -0.956692
      8          6           0       -0.662177   -1.460247    0.996664
      9          6           0        0.366099   -1.213481   -0.072251
     10          1           0        3.192755    0.729289   -0.704924
     11          1           0        2.801680   -0.858995   -1.383124
     12          1           0        1.765753    0.531584   -1.734676
     13          1           0        2.164458   -0.726506    1.041487
     14          1           0        0.750792    0.983744    1.937378
     15          1           0        1.344140    1.931235    0.578410
     16          1           0       -2.337201    0.295912   -1.101211
     17          1           0       -0.473117   -1.161841    2.023577
     18          1           0       -1.264910   -2.355269    0.887438
     19          1           0        0.530250   -1.986953   -0.814742
 ---------------------------------------------------------------------

 SCF Done:  E(RB3LYP) =  -423.209858125     A.U. after    1 cycles

 The electronic state is 1-A.
 Alpha  occ. eigenvalues --  -19.14518 -19.13828 -10.27104 -10.24683 -10.20713
 Alpha  occ. eigenvalues --  -10.20358 -10.19851 -10.19737 -10.18450  -1.05769
 Alpha  occ. eigenvalues --   -1.02505  -0.88907  -0.78948  -0.72573  -0.64796
 Alpha  occ. eigenvalues --   -0.63193  -0.57610  -0.55695  -0.50545  -0.48008
 Alpha  occ. eigenvalues --   -0.46964  -0.45878  -0.42380  -0.41634  -0.41196
 Alpha  occ. eigenvalues --   -0.39995  -0.37679  -0.36137  -0.35529  -0.34714
 Alpha  occ. eigenvalues --   -0.33896  -0.30986  -0.25397  -0.24152
 Alpha virt. eigenvalues --   -0.02058   0.08155   0.09197   0.10920   0.11630
 Alpha virt. eigenvalues --    0.13279   0.14065   0.15142   0.15990   0.16527
 Alpha virt. eigenvalues --    0.17613   0.19395   0.20283   0.22000   0.22662

 Mulliken charges:
               1
     1  C   -0.398580
     2  C    0.008708
     3  C   -0.360630
     4  C    0.344556
     5  O   -0.355250
     6  C    0.359148
     7  O   -0.477669
     8  C   -0.368412
     9  C   -0.101490
    10  H    0.117861
    11  H    0.118898
    12  H    0.126336
    13  H    0.078840
    14  H    0.130223
    15  H    0.131046
    16  H    0.294534
    17  H    0.115077
    18  H    0.134685
    19  H    0.102119
 Sum of Mulliken charges =   0.00000

 Dipole moment (field-independent basis, Debye):
    X=              2.2820    Y=             -1.1001    Z=              1.0572  Tot=              2.7451
 Quadrupole moment (field-independent basis, Debye-Ang):
   XX=            -54.3915   YY=            -56.9964   ZZ=            -51.7462
   XY=              1.5258   XZ=             -0.6865   YZ=             -0.5708

  Exact polarizability:  81.126  -1.175  79.109   1.759  -1.961  66.609
 Approx polarizability: 113.447  -9.195 124.094   7.163  -5.098 101.614

                      1                      2                      3
                      A                      A                      A
 Frequencies --     90.8471               113.5113               243.0347
 Red. masses --      3.5935                 4.6824                 1.2031
 Frc consts  --      0.0175                 0.0355                 0.0419
 IR Inten    --      0.2945                 1.6599                 1.4142

                      4                      5                      6
                      A                      A                      A
 Frequencies --    267.5140               297.6349               347.6723
 Red. masses --      2.1612                 3.3138                 1.4515
 Frc consts  --      0.0911                 0.1730                 0.1034
 IR Inten    --      6.2825                14.3266                40.0718

                      7                      8                      9
                      A                      A                      A
 Frequencies --    358.3244               388.9853               442.5826
 Red. masses --      1.9873                 3.5404                 2.1414
 Frc consts  --      0.1503                 0.3156                 0.2471
 IR Inten    --     14.9386                 0.2096                 9.4141

                     10                     11                     12
                      A                      A                      A
 Frequencies --    477.1032               536.1495               625.5526
 Red. masses --      3.0062                 3.6680                 3.7298
 Frc consts  --      0.4032                 0.6212                 0.8599
 IR Inten    --      3.3781                 4.4612                 4.0432

                     13                     14                     15
                      A                      A                      A
 Frequencies --    669.2079               708.1041               779.0220
 Red. masses --      3.6617                 3.9886                 1.9709
 Frc consts  --      0.9662                 1.1783                 0.7047
 IR Inten    --      7.3467                11.1221                 1.2808

                     16                     17                     18
                      A                      A                      A
 Frequencies --    861.3258               869.9330               911.7022
 Red. masses --      2.2840                 2.3503                 2.7341
 Frc consts  --      0.9983                 1.0480                 1.3390
 IR Inten    --     10.8781                10.4146                 3.1831

                     19                     20                     21
                      A                      A                      A
 Frequencies --    920.8398               965.2013              1014.1567
 Red. masses --      1.7780                 1.3823                 2.2448
 Frc consts  --      0.8883                 0.7587                 1.3603
 IR Inten    --      0.7841                 0.7145                 1.1509

                     22                     23                     24
                      A                      A                      A
 Frequencies --   1029.7814              1061.3756              1072.1520
 Red. masses --      1.4541                 1.3070                 2.3274
 Frc consts  --      0.9085                 0.8675                 1.5763
 IR Inten    --      5.1073                 2.5929                50.4681

                     25                     26                     27
                      A                      A                      A
 Frequencies --   1078.1370              1118.4560              1146.5543
 Red. masses --      1.5174                 2.8444                 1.5135
 Frc consts  --      1.0392                 2.0965                 1.1722
 IR Inten    --      6.1428                24.2027                 3.3461

                     28                     29                     30
                      A                      A                      A
 Frequencies --   1202.1262              1219.4772              1250.2581
 Red. masses --      1.4533                 1.7377                 1.7358
 Frc consts  --      1.2374                 1.5226                 1.5986
 IR Inten    --      3.4396               123.3829                12.0834

                     31                     32                     33
                      A                      A                      A
 Frequencies --   1297.3462              1326.1201              1358.1986
 Red. masses --      1.6659                 1.6909                 1.6199
 Frc consts  --      1.6520                 1.7520                 1.7606
 IR Inten    --      4.6551                16.5765                 6.3399

                     34                     35                     36
                      A                      A                      A
 Frequencies --   1399.8575              1412.2443              1432.1899
 Red. masses --      2.5656                 1.2410                 1.4819
 Frc consts  --      2.9621                 1.4583                 1.7909
 IR Inten    --     57.7681                 6.6591                37.1004

                     37                     38                     39
                      A                      A                      A
 Frequencies --   1458.7146              1489.9848              1497.4950
 Red. masses --      1.1439                 1.4139                 1.0560
 Frc consts  --      1.4341                 1.8494                 1.3952
 IR Inten    --     12.3761                 2.8813                 1.8764

                     40                     41                     42
                      A                      A                      A
 Frequencies --   1498.6418              1810.7200              3026.1624
 Red. masses --      1.0543                12.2134                 1.0795
 Frc consts  --      1.3952                23.5933                 5.8245
 IR Inten    --      6.7167               254.3854                26.3443

                     43                     44                     45
                      A                      A                      A
 Frequencies --   3029.7736              3049.4596              3098.8453
 Red. masses --      1.0384                 1.0680                 1.1010
 Frc consts  --      5.6161                 5.8516                 6.2294
 IR Inten    --     20.7109                10.6560                30.4097

                     46                     47                     48
                      A                      A                      A
 Frequencies --   3104.5156              3114.5263              3121.9666
 Red. masses --      1.1020                 1.0963                 1.0552
 Frc consts  --      6.2577                 6.2658                 6.0598
 IR Inten    --     19.6113                 9.8952                12.6704

                     49                     50                     51
                      A                      A                      A
 Frequencies --   3172.5184              3217.0672              3704.9588
 Red. masses --      1.0911                 1.1149                 1.0650
 Frc consts  --      6.4706                 6.7983                 8.6129
 IR Inten    --      6.5207                 4.5947                54.6881

 - Thermochemistry -
 -------------------
 Temperature   298.150 Kelvin.  Pressure   1.00000 Atm.
 Atom     1 has atomic number  6 and mass  12.00000

 Molecular mass:   126.06808 amu.
 Principal axes and moments of inertia in atomic units:
                           1         2         3
     Eigenvalues --   777.473731123.396841434.59151
           X            0.99878   0.04265  -0.02506
           Y           -0.04302   0.99897  -0.01419
           Z            0.02443   0.01525   0.99959
 This molecule is an asymmetric top.
 Rotational symmetry number  1.
 Warning -- assumption of classical behavior for rotation
           may cause significant error
 Rotational temperatures (Kelvin)      0.11140     0.07710     0.06038
 Rotational constants (GHZ):           2.32129     1.60650     1.25802
 Zero-point vibrational energy     416827.0 (Joules/Mol)
                                   99.62404 (Kcal/Mol)
 Warning -- explicit consideration of  11 degrees of freedom as
           vibrations may cause significant error
 Vibrational temperatures:    130.71   163.32   349.67   384.89   428.23
          (Kelvin)            500.22   515.55   559.66   636.78   686.44
                              771.40   900.03   962.84  1018.80  1120.84
                             1239.25  1251.64  1311.73  1324.88  1388.71
                             1459.14  1481.62  1527.08  1542.59  1551.20
                             1609.21  1649.63  1729.59  1754.55  1798.84
                             1866.59  1907.99  1954.14  2014.08  2031.90
                             2060.60  2098.76  2143.75  2154.56  2156.21
                             2605.22  4353.97  4359.16  4387.49  4458.54
                             4466.70  4481.10  4491.81  4564.54  4628.64
                             5330.60

 Zero-point correction=                           0.158761 (Hartree/Particle)
 Thermal correction to Energy=                    0.167231
 Thermal correction to Enthalpy=                  0.168175
 Thermal correction to Gibbs Free Energy=         0.125953
 Sum of electronic and zero-point Energies=           -423.051097
 Sum of electronic and thermal Energies=              -423.042627
 Sum of electronic and thermal Enthalpies=            -423.041683
 Sum of electronic and thermal Free Energies=         -423.083905

                     E (Thermal)             CV                S
                      KCal/Mol        Cal/Mol-Kelvin    Cal/Mol-Kelvin
 Total                  104.939             33.112             88.865
 Electronic               0.000              0.000              0.000
 Translational            0.889              2.981             40.409
 Rotational               0.889              2.981             28.618
 Vibrational            103.162             27.150             19.838
 Vibration     1          0.602              1.956              3.642
 Vibration     2          0.607              1.938              3.208
 Vibration     3          0.659              1.774              1.781
 Vibration     4          0.673              1.733              1.612
 Vibration     5          0.691              1.678              1.430
 Vibration     6          0.725              1.580              1.177
 Vibration     7          0.733              1.558              1.129
 Vibration     8          0.757              1.494              1.004
 Vibration     9          0.802              1.377              0.819
 Vibration    10          0.834              1.301              0.718
 Vibration    11          0.891              1.170              0.574

 Optimization completed.
    -- Stationary point found.
 Normal termination of Gaussian 09 at Tue Jan 28 02:55:12 2020.
