 Gaussian 09, Revision D.01,
 Gaussian 09:  ES64L-G09RevD.01 24-Apr-2013

 -----------------------------
 # b3lyp 6-31G(2df,p) opt Freq
 -----------------------------

 -----
 titel
 -----
 Symbolic Z-matrix:
 Charge =  0 Multiplicity = 1

 SCF Done:  E(RB3LYP) =  -423.194912701     A.U. after   14 cycles
 Optimization completed.
    -- Stationary point found.
 Normal termination of Gaussian 09 at Tue Jan 28 08:13:47 2020.

 ----------------------------------------------------------------------
 #N Geom=AllCheck Guess=TCheck SCRF=Check GenChk RB3LYP/6-31G(2df,p) Fr
 eq
 ----------------------------------------------------------------------

 Structure from the checkpoint file:  "/scratch/puck/g09_f048d9f0-1a7b-4b70-b967-7d2fe782826d/Gau-92016.chk"
 -----
 titel
 -----
 Charge =  0 Multiplicity = 1

                         Standard orientation:
 ---------------------------------------------------------------------
 Center     Atomic      Atomic             Coordinates (Angstroms)
 Number     Number       Type             X           Y           Z
 ---------------------------------------------------------------------
      1          6           0        3.032011   -0.369740    0.251340
      2          8           0        1.644514   -0.656826    0.050771
      3          6           0        0.850726    0.429064   -0.112465
      4          8           0        1.268241    1.563141   -0.099354
      5          6           0       -0.566495    0.062049   -0.277694
      6          6           0       -1.041510   -1.275010   -0.800915
      7          6           0       -1.417147   -0.902111    0.591995
      8          6           0       -2.564476    0.115028    0.600159
      9          6           0       -1.709116    1.080794   -0.285621
     10          1           0        3.175912    0.247558    1.141972
     11          1           0        3.521127   -1.336381    0.374580
     12          1           0        3.446376    0.160525   -0.610071
     13          1           0       -1.791255   -1.283753   -1.589241
     14          1           0       -0.267843   -2.027328   -0.894924
     15          1           0       -1.070689   -1.476491    1.442276
     16          1           0       -3.508182   -0.240235    0.174251
     17          1           0       -2.763145    0.529412    1.590258
     18          1           0       -2.110231    1.333502   -1.271755
     19          1           0       -1.438076    2.002223    0.230527
 ---------------------------------------------------------------------

 SCF Done:  E(RB3LYP) =  -423.194912701     A.U. after    1 cycles

 The electronic state is 1-A.
 Alpha  occ. eigenvalues --  -19.17665 -19.11589 -10.29733 -10.23370 -10.20496
 Alpha  occ. eigenvalues --  -10.20468 -10.19602 -10.19018 -10.18616  -1.09346
 Alpha  occ. eigenvalues --   -1.00440  -0.90405  -0.74464  -0.72299  -0.66806
 Alpha  occ. eigenvalues --   -0.61170  -0.57511  -0.53403  -0.52498  -0.47421
 Alpha  occ. eigenvalues --   -0.46972  -0.45540  -0.44743  -0.42521  -0.39605
 Alpha  occ. eigenvalues --   -0.39146  -0.37800  -0.35477  -0.34082  -0.33469
 Alpha  occ. eigenvalues --   -0.30185  -0.29482  -0.26759  -0.25566
 Alpha virt. eigenvalues --    0.01094   0.09454   0.11207   0.11719   0.11816
 Alpha virt. eigenvalues --    0.12741   0.14395   0.15046   0.15606   0.16176
 Alpha virt. eigenvalues --    0.16463   0.17837   0.19202   0.21167   0.23316

 Mulliken charges:
               1
     1  C   -0.238385
     2  O   -0.245503
     3  C    0.346572
     4  O   -0.384349
     5  C    0.251549
     6  C   -0.319410
     7  C   -0.084675
     8  C   -0.223632
     9  C   -0.293463
    10  H    0.138542
    11  H    0.129046
    12  H    0.139511
    13  H    0.110211
    14  H    0.134048
    15  H    0.101856
    16  H    0.101188
    17  H    0.110292
    18  H    0.099080
    19  H    0.127523
 Sum of Mulliken charges =   0.00000

 Dipole moment (field-independent basis, Debye):
    X=             -0.3882    Y=             -1.8749    Z=              0.3605  Tot=              1.9483
 Quadrupole moment (field-independent basis, Debye-Ang):
   XX=            -47.0583   YY=            -57.2792   ZZ=            -51.3503
   XY=             -3.6663   XZ=              0.8245   YZ=              0.5205

  Exact polarizability:  94.505   0.103  75.207   0.226   0.358  62.989
 Approx polarizability: 117.542   6.655 121.689  -0.989  -0.971  96.098

                      1                      2                      3
                      A                      A                      A
 Frequencies --     63.0766               107.3554               129.8661
 Red. masses --      4.1739                 2.2525                 1.2463
 Frc consts  --      0.0098                 0.0153                 0.0124
 IR Inten    --      0.8635                 1.0642                 0.0030

                      4                      5                      6
                      A                      A                      A
 Frequencies --    161.6329               197.2237               301.8086
 Red. masses --      3.4423                 2.6830                 2.3741
 Frc consts  --      0.0530                 0.0615                 0.1274
 IR Inten    --      0.8386                 3.6817                 0.5273

                      7                      8                      9
                      A                      A                      A
 Frequencies --    315.6344               383.2284               462.6216
 Red. masses --      4.0253                 2.6769                 2.7153
 Frc consts  --      0.2363                 0.2316                 0.3424
 IR Inten    --     18.2067                 0.6586                 1.4046

                     10                     11                     12
                      A                      A                      A
 Frequencies --    479.0897               704.1090               743.6724
 Red. masses --      5.8927                 3.6772                 4.8821
 Frc consts  --      0.7969                 1.0741                 1.5908
 IR Inten    --      8.8954                 4.3801                 5.1631

                     13                     14                     15
                      A                      A                      A
 Frequencies --    783.1682               786.8225               851.4065
 Red. masses --      1.9444                 1.7707                 5.4199
 Frc consts  --      0.7026                 0.6459                 2.3148
 IR Inten    --      2.0458                 1.2543                 5.0503

                     16                     17                     18
                      A                      A                      A
 Frequencies --    865.1896               929.8471               939.5872
 Red. masses --      2.0730                 1.9660                 1.7553
 Frc consts  --      0.9142                 1.0015                 0.9130
 IR Inten    --     15.2568                 5.2811                 2.1288

                     19                     20                     21
                      A                      A                      A
 Frequencies --    969.8613              1001.9826              1028.3240
 Red. masses --      1.9448                 2.6545                 1.3532
 Frc consts  --      1.0778                 1.5702                 0.8431
 IR Inten    --      6.2067                 3.1621                14.7945

                     22                     23                     24
                      A                      A                      A
 Frequencies --   1038.9496              1087.6338              1107.7735
 Red. masses --      1.9222                 1.4049                 1.7596
 Frc consts  --      1.2225                 0.9792                 1.2722
 IR Inten    --      2.9815                 8.2947                 8.8361

                     25                     26                     27
                      A                      A                      A
 Frequencies --   1142.9292              1178.2482              1180.0831
 Red. masses --      1.9712                 2.7519                 1.2874
 Frc consts  --      1.5171                 2.2509                 1.0563
 IR Inten    --     13.6106               257.2013                 3.5312

                     28                     29                     30
                      A                      A                      A
 Frequencies --   1210.1681              1221.8873              1238.8775
 Red. masses --      1.5278                 1.1832                 1.8179
 Frc consts  --      1.3183                 1.0408                 1.6439
 IR Inten    --     25.2537                19.4379                21.5125

                     31                     32                     33
                      A                      A                      A
 Frequencies --   1247.6487              1284.8432              1333.3786
 Red. masses --      1.5578                 1.7285                 2.6132
 Frc consts  --      1.4287                 1.6812                 2.7374
 IR Inten    --     23.9991                29.4592                54.4418

                     34                     35                     36
                      A                      A                      A
 Frequencies --   1400.4071              1475.5481              1478.8533
 Red. masses --      2.9017                 1.2545                 1.1834
 Frc consts  --      3.3529                 1.6093                 1.5249
 IR Inten    --     95.1867                28.4716                 4.1285

                     37                     38                     39
                      A                      A                      A
 Frequencies --   1481.5165              1483.1008              1500.1777
 Red. masses --      1.0473                 1.1029                 1.0666
 Frc consts  --      1.3544                 1.4293                 1.4143
 IR Inten    --      5.8685                 1.1446                 5.3470

                     40                     41                     42
                      A                      A                      A
 Frequencies --   1505.9540              1799.5481              3049.6040
 Red. masses --      1.1711                11.9157                 1.0302
 Frc consts  --      1.5649                22.7351                 5.6447
 IR Inten    --      2.2405               249.4591                45.4987

                     43                     44                     45
                      A                      A                      A
 Frequencies --   3050.5446              3060.1180              3109.8763
 Red. masses --      1.0620                 1.0655                 1.1016
 Frc consts  --      5.8227                 5.8786                 6.2771
 IR Inten    --     34.8477                49.7960                 5.3048

                     46                     47                     48
                      A                      A                      A
 Frequencies --   3111.2801              3122.8647              3134.9593
 Red. masses --      1.0615                 1.1054                 1.1011
 Frc consts  --      6.0540                 6.3515                 6.3756
 IR Inten    --     21.5405                19.8708                20.1571

                     49                     50                     51
                      A                      A                      A
 Frequencies --   3154.3632              3191.5926              3225.1102
 Red. masses --      1.1059                 1.0929                 1.1095
 Frc consts  --      6.4830                 6.5589                 6.7992
 IR Inten    --     16.1977                10.6409                 4.6265

 - Thermochemistry -
 -------------------
 Temperature   298.150 Kelvin.  Pressure   1.00000 Atm.
 Atom     1 has atomic number  6 and mass  12.00000

 Molecular mass:   126.06808 amu.
 Principal axes and moments of inertia in atomic units:
                           1         2         3
     Eigenvalues --   500.080391569.425091849.81440
           X            0.99984  -0.01732   0.00435
           Y            0.01726   0.99978   0.01189
           Z           -0.00456  -0.01181   0.99992
 This molecule is an asymmetric top.
 Rotational symmetry number  1.
 Warning -- assumption of classical behavior for rotation
           may cause significant error
 Rotational temperatures (Kelvin)      0.17320     0.05519     0.04682
 Rotational constants (GHZ):           3.60890     1.14994     0.97563
 Zero-point vibrational energy     417576.5 (Joules/Mol)
                                   99.80319 (Kcal/Mol)
 Warning -- explicit consideration of  10 degrees of freedom as
           vibrations may cause significant error
 Vibrational temperatures:     90.75   154.46   186.85   232.55   283.76
          (Kelvin)            434.23   454.13   551.38   665.61   689.30
                             1013.05  1069.98  1126.80  1132.06  1224.98
                             1244.81  1337.84  1351.85  1395.41  1441.63
                             1479.53  1494.81  1564.86  1593.84  1644.42
                             1695.23  1697.87  1741.16  1758.02  1782.47
                             1795.09  1848.60  1918.43  2014.87  2122.98
                             2127.74  2131.57  2133.85  2158.42  2166.73
                             2589.15  4387.69  4389.05  4402.82  4474.41
                             4476.43  4493.10  4510.50  4538.42  4591.98
                             4640.21

 Zero-point correction=                           0.159047 (Hartree/Particle)
 Thermal correction to Energy=                    0.167879
 Thermal correction to Enthalpy=                  0.168823
 Thermal correction to Gibbs Free Energy=         0.125007
 Sum of electronic and zero-point Energies=           -423.035866
 Sum of electronic and thermal Energies=              -423.027034
 Sum of electronic and thermal Enthalpies=            -423.026090
 Sum of electronic and thermal Free Energies=         -423.069906

                     E (Thermal)             CV                S
                      KCal/Mol        Cal/Mol-Kelvin    Cal/Mol-Kelvin
 Total                  105.346             32.285             92.219
 Electronic               0.000              0.000              0.000
 Translational            0.889              2.981             40.409
 Rotational               0.889              2.981             28.764
 Vibrational            103.568             26.324             23.047
 Vibration     1          0.597              1.972              4.359
 Vibration     2          0.606              1.943              3.316
 Vibration     3          0.612              1.923              2.948
 Vibration     4          0.622              1.889              2.531
 Vibration     5          0.637              1.844              2.159
 Vibration     6          0.694              1.670              1.407
 Vibration     7          0.703              1.644              1.333
 Vibration     8          0.752              1.506              1.026
 Vibration     9          0.820              1.333              0.759
 Vibration    10          0.836              1.296              0.713

 Optimization completed.
    -- Stationary point found.
 Normal termination of Gaussian 09 at Tue Jan 28 08:55:25 2020.
