 Gaussian 09, Revision D.01,
 Gaussian 09:  ES64L-G09RevD.01 24-Apr-2013

 -----------------------------
 # b3lyp 6-31G(2df,p) opt Freq
 -----------------------------

 -----
 titel
 -----
 Symbolic Z-matrix:
 Charge =  0 Multiplicity = 1

 SCF Done:  E(RB3LYP) =  -423.213137151     A.U. after   14 cycles
 Optimization completed.
    -- Stationary point found.
 Normal termination of Gaussian 09 at Tue Jan 28 02:24:28 2020.

 ----------------------------------------------------------------------
 #N Geom=AllCheck Guess=TCheck SCRF=Check GenChk RB3LYP/6-31G(2df,p) Fr
 eq
 ----------------------------------------------------------------------

 Structure from the checkpoint file:  "/scratch/puck/g09_e42800ab-e15a-4e8a-b708-31c894ca8d5b/Gau-5063.chk"
 -----
 titel
 -----
 Charge =  0 Multiplicity = 1

                         Standard orientation:
 ---------------------------------------------------------------------
 Center     Atomic      Atomic             Coordinates (Angstroms)
 Number     Number       Type             X           Y           Z
 ---------------------------------------------------------------------
      1          6           0        2.332131   -0.912801   -0.138020
      2          6           0        0.925212   -1.145556    0.393047
      3          6           0       -0.223838   -1.457405   -0.621323
      4          6           0       -1.045181   -0.276178   -0.052001
      5          6           0       -2.505636   -0.403119    0.273980
      6          8           0       -0.751320    0.953212   -0.815502
      7          6           0        0.242013    1.323073    0.062453
      8          8           0        0.909326    2.307617    0.021732
      9          6           0        0.106210    0.080634    0.930341
     10          1           0        3.009140   -0.591767    0.660319
     11          1           0        2.735296   -1.834391   -0.571221
     12          1           0        2.347041   -0.141764   -0.914644
     13          1           0        0.948102   -1.910760    1.173991
     14          1           0        0.028753   -1.331448   -1.676504
     15          1           0       -0.688218   -2.436208   -0.480612
     16          1           0       -2.678555   -1.268567    0.920925
     17          1           0       -2.871817    0.493193    0.782946
     18          1           0       -3.091184   -0.540898   -0.641295
     19          1           0        0.011933    0.224082    2.005389
 ---------------------------------------------------------------------

 SCF Done:  E(RB3LYP) =  -423.213137151     A.U. after    1 cycles

 The electronic state is 1-A.
 Alpha  occ. eigenvalues --  -19.17274 -19.12809 -10.30149 -10.25841 -10.21106
 Alpha  occ. eigenvalues --  -10.20456 -10.19440 -10.19431 -10.18240  -1.09924
 Alpha  occ. eigenvalues --   -1.02612  -0.85273  -0.76239  -0.72055  -0.69996
 Alpha  occ. eigenvalues --   -0.60544  -0.58443  -0.52462  -0.50734  -0.49156
 Alpha  occ. eigenvalues --   -0.46431  -0.44161  -0.42161  -0.41787  -0.41633
 Alpha  occ. eigenvalues --   -0.41255  -0.40201  -0.37159  -0.34541  -0.34198
 Alpha  occ. eigenvalues --   -0.32880  -0.30222  -0.28934  -0.26529
 Alpha virt. eigenvalues --    0.01047   0.07412   0.08848   0.09398   0.12158
 Alpha virt. eigenvalues --    0.13200   0.13866   0.14057   0.15576   0.15785
 Alpha virt. eigenvalues --    0.16502   0.17195   0.17961   0.20367   0.21531

 Mulliken charges:
               1
     1  C   -0.410259
     2  C    0.025637
     3  C   -0.303563
     4  C    0.452029
     5  C   -0.482155
     6  O   -0.287279
     7  C    0.453075
     8  O   -0.337689
     9  C   -0.305162
    10  H    0.126324
    11  H    0.118150
    12  H    0.138072
    13  H    0.087393
    14  H    0.118736
    15  H    0.108368
    16  H    0.125709
    17  H    0.134070
    18  H    0.138167
    19  H    0.100379
 Sum of Mulliken charges =   0.00000

 Dipole moment (field-independent basis, Debye):
    X=             -1.2283    Y=             -3.8855    Z=              1.3169  Tot=              4.2826
 Quadrupole moment (field-independent basis, Debye-Ang):
   XX=            -51.6286   YY=            -59.6776   ZZ=            -52.2885
   XY=             -2.4842   XZ=             -1.0909   YZ=              1.2818

  Exact polarizability:  82.761   3.848  78.492   1.180   1.306  63.940
 Approx polarizability: 110.192  10.933 118.472   5.149   0.365 100.498

                      1                      2                      3
                      A                      A                      A
 Frequencies --     84.5591               135.4745               215.8976
 Red. masses --      3.0704                 5.4727                 1.4073
 Frc consts  --      0.0129                 0.0592                 0.0386
 IR Inten    --      0.0592                 2.8457                 0.1072

                      4                      5                      6
                      A                      A                      A
 Frequencies --    220.8796               227.5993               295.4151
 Red. masses --      1.1324                 1.4446                 2.6498
 Frc consts  --      0.0326                 0.0441                 0.1362
 IR Inten    --      0.0264                 0.3083                 0.6148

                      7                      8                      9
                      A                      A                      A
 Frequencies --    369.3267               388.3580               409.3124
 Red. masses --      2.2304                 3.1767                 3.8386
 Frc consts  --      0.1792                 0.2823                 0.3789
 IR Inten    --      0.5646                 0.5736                 2.2856

                     10                     11                     12
                      A                      A                      A
 Frequencies --    503.7321               604.1348               637.3632
 Red. masses --      3.4724                 3.9895                 4.3469
 Frc consts  --      0.5191                 0.8579                 1.0404
 IR Inten    --      2.8194                 2.2608                 0.0889

                     13                     14                     15
                      A                      A                      A
 Frequencies --    715.4179               797.7310               840.7662
 Red. masses --      3.2775                 3.3448                 3.4807
 Frc consts  --      0.9884                 1.2541                 1.4497
 IR Inten    --      1.8734                 2.0966                44.3450

                     16                     17                     18
                      A                      A                      A
 Frequencies --    866.5382               882.7230               908.0646
 Red. masses --      2.4431                 1.8934                 2.3656
 Frc consts  --      1.0808                 0.8692                 1.1493
 IR Inten    --      0.3060                21.7490                11.0640

                     19                     20                     21
                      A                      A                      A
 Frequencies --    926.7537               971.0213              1001.4040
 Red. masses --      2.0549                 2.2632                 1.3503
 Frc consts  --      1.0398                 1.2573                 0.7978
 IR Inten    --      2.5912                 2.6744                 3.7834

                     22                     23                     24
                      A                      A                      A
 Frequencies --   1038.4586              1095.0106              1107.4353
 Red. masses --      1.9591                 2.1316                 1.7507
 Frc consts  --      1.2447                 1.5059                 1.2650
 IR Inten    --     32.1551                43.6565                 7.0866

                     25                     26                     27
                      A                      A                      A
 Frequencies --   1139.6683              1159.5999              1204.0192
 Red. masses --      1.7972                 2.0095                 2.2883
 Frc consts  --      1.3753                 1.5920                 1.9545
 IR Inten    --      3.9514                 2.5445                18.4958

                     28                     29                     30
                      A                      A                      A
 Frequencies --   1217.8858              1238.8048              1247.9012
 Red. masses --      2.1292                 1.8710                 1.8868
 Frc consts  --      1.8607                 1.6917                 1.7311
 IR Inten    --     30.2673                18.8254                26.9356

                     31                     32                     33
                      A                      A                      A
 Frequencies --   1307.5989              1330.5623              1363.8021
 Red. masses --      1.5492                 2.3923                 1.4972
 Frc consts  --      1.5606                 2.4954                 1.6407
 IR Inten    --     13.2353                33.0356                 2.1360

                     34                     35                     36
                      A                      A                      A
 Frequencies --   1416.4043              1419.0028              1470.8260
 Red. masses --      1.3775                 1.2839                 1.1082
 Frc consts  --      1.6282                 1.5232                 1.4125
 IR Inten    --     11.8535                 0.2187                 2.9373

                     37                     38                     39
                      A                      A                      A
 Frequencies --   1481.9921              1490.3348              1493.8202
 Red. masses --      1.0517                 1.0492                 1.0471
 Frc consts  --      1.3609                 1.3730                 1.3766
 IR Inten    --      2.4553                 2.7921                 2.0339

                     40                     41                     42
                      A                      A                      A
 Frequencies --   1496.7958              1925.1519              3033.9270
 Red. masses --      1.0447                12.7613                 1.0354
 Frc consts  --      1.3790                27.8661                 5.6152
 IR Inten    --      4.6042               422.5867                19.9063

                     43                     44                     45
                      A                      A                      A
 Frequencies --   3037.5745              3058.7052              3068.5793
 Red. masses --      1.0353                 1.0841                 1.0608
 Frc consts  --      5.6282                 5.9757                 5.8850
 IR Inten    --     13.6079                11.9676                21.9291

                     46                     47                     48
                      A                      A                      A
 Frequencies --   3101.3196              3107.3259              3109.6508
 Red. masses --      1.1013                 1.1008                 1.1016
 Frc consts  --      6.2411                 6.2625                 6.2762
 IR Inten    --     20.0753                11.1434                19.5725

                     49                     50                     51
                      A                      A                      A
 Frequencies --   3117.6153              3125.9297              3133.8397
 Red. masses --      1.1022                 1.1073                 1.0901
 Frc consts  --      6.3117                 6.3747                 6.3078
 IR Inten    --     11.3880                20.3998                12.8068

 - Thermochemistry -
 -------------------
 Temperature   298.150 Kelvin.  Pressure   1.00000 Atm.
 Atom     1 has atomic number  6 and mass  12.00000

 Molecular mass:   126.06808 amu.
 Principal axes and moments of inertia in atomic units:
                           1         2         3
     Eigenvalues --   828.59338 990.726631528.99564
           X            0.99679  -0.07857  -0.01561
           Y            0.07877   0.99681   0.01262
           Z            0.01456  -0.01381   0.99980
 This molecule is an asymmetric top.
 Rotational symmetry number  1.
 Warning -- assumption of classical behavior for rotation
           may cause significant error
 Rotational temperatures (Kelvin)      0.10453     0.08742     0.05665
 Rotational constants (GHZ):           2.17808     1.82163     1.18034
 Zero-point vibrational energy     415953.6 (Joules/Mol)
                                   99.41530 (Kcal/Mol)
 Warning -- explicit consideration of  11 degrees of freedom as
           vibrations may cause significant error
 Vibrational temperatures:    121.66   194.92   310.63   317.80   327.46
          (Kelvin)            425.04   531.38   558.76   588.91   724.76
                              869.21   917.02  1029.33  1147.76  1209.67
                             1246.75  1270.04  1306.50  1333.39  1397.08
                             1440.80  1494.11  1575.47  1593.35  1639.73
                             1668.40  1732.31  1752.26  1782.36  1795.45
                             1881.34  1914.38  1962.20  2037.89  2041.63
                             2116.19  2132.25  2144.26  2149.27  2153.55
                             2769.86  4365.14  4370.39  4400.79  4415.00
                             4462.10  4470.74  4474.09  4485.55  4497.51
                             4508.89

 Zero-point correction=                           0.158428 (Hartree/Particle)
 Thermal correction to Energy=                    0.166989
 Thermal correction to Enthalpy=                  0.167933
 Thermal correction to Gibbs Free Energy=         0.125396
 Sum of electronic and zero-point Energies=           -423.054709
 Sum of electronic and thermal Energies=              -423.046148
 Sum of electronic and thermal Enthalpies=            -423.045204
 Sum of electronic and thermal Free Energies=         -423.087741

                     E (Thermal)             CV                S
                      KCal/Mol        Cal/Mol-Kelvin    Cal/Mol-Kelvin
 Total                  104.787             32.631             89.527
 Electronic               0.000              0.000              0.000
 Translational            0.889              2.981             40.409
 Rotational               0.889              2.981             28.619
 Vibrational            103.010             26.669             20.499
 Vibration     1          0.601              1.960              3.782
 Vibration     2          0.613              1.918              2.867
 Vibration     3          0.645              1.817              1.993
 Vibration     4          0.648              1.809              1.952
 Vibration     5          0.651              1.799              1.898
 Vibration     6          0.690              1.682              1.443
 Vibration     7          0.742              1.535              1.083
 Vibration     8          0.757              1.495              1.006
 Vibration     9          0.774              1.450              0.929
 Vibration    10          0.859              1.242              0.649
 Vibration    11          0.963              1.023              0.443

 Optimization completed.
    -- Stationary point found.
 Normal termination of Gaussian 09 at Tue Jan 28 03:08:24 2020.
