 Gaussian 09, Revision D.01,
 Gaussian 09:  ES64L-G09RevD.01 24-Apr-2013

 -----------------------------
 # b3lyp 6-31G(2df,p) opt Freq
 -----------------------------

 -----
 titel
 -----
 Symbolic Z-matrix:
 Charge =  0 Multiplicity = 1

 SCF Done:  E(RB3LYP) =  -423.160750211     A.U. after   14 cycles
 Optimization completed.
    -- Stationary point found.
 Normal termination of Gaussian 09 at Tue Jan 28 02:50:24 2020.

 ----------------------------------------------------------------------
 #N Geom=AllCheck Guess=TCheck SCRF=Check GenChk RB3LYP/6-31G(2df,p) Fr
 eq
 ----------------------------------------------------------------------

 Structure from the checkpoint file:  "/scratch/puck/g09_37a42512-3865-4b19-b655-e5ee8f00cceb/Gau-195802.chk"
 -----
 titel
 -----
 Charge =  0 Multiplicity = 1

                         Standard orientation:
 ---------------------------------------------------------------------
 Center     Atomic      Atomic             Coordinates (Angstroms)
 Number     Number       Type             X           Y           Z
 ---------------------------------------------------------------------
      1          6           0        1.999924   -1.390764   -0.471654
      2          6           0        1.459686   -0.287552    0.447596
      3          6           0        0.079787   -0.646630    1.071255
      4          6           0       -0.953960   -0.069769    0.106563
      5          6           0       -2.402140   -0.248302    0.215128
      6          8           0       -1.650701   -0.965997   -0.772145
      7          6           0       -0.289942    1.092146   -0.573997
      8          8           0        0.390163    1.951178    0.353452
      9          6           0        1.158513    0.971299   -0.355808
     10          1           0        2.221631   -2.296976    0.099924
     11          1           0        1.267479   -1.651585   -1.242843
     12          1           0        2.922120   -1.076867   -0.972430
     13          1           0        2.194421   -0.075181    1.231818
     14          1           0       -0.060771   -1.723303    1.192218
     15          1           0       -0.030288   -0.172850    2.049810
     16          1           0       -2.808128   -0.855283    1.023654
     17          1           0       -3.076415    0.514173   -0.173279
     18          1           0       -0.747199    1.564953   -1.438420
     19          1           0        1.890249    1.368894   -1.055409
 ---------------------------------------------------------------------

 SCF Done:  E(RB3LYP) =  -423.160750211     A.U. after    1 cycles

 The electronic state is 1-A.
 Alpha  occ. eigenvalues --  -19.15324 -19.15203 -10.24426 -10.23678 -10.23610
 Alpha  occ. eigenvalues --  -10.23487 -10.19670 -10.18665 -10.17978  -1.07990
 Alpha  occ. eigenvalues --   -1.06624  -0.81679  -0.73250  -0.67994  -0.66884
 Alpha  occ. eigenvalues --   -0.65136  -0.57148  -0.56092  -0.52543  -0.48273
 Alpha  occ. eigenvalues --   -0.46969  -0.45818  -0.43378  -0.41336  -0.39965
 Alpha  occ. eigenvalues --   -0.38093  -0.37368  -0.35555  -0.35316  -0.34705
 Alpha  occ. eigenvalues --   -0.31660  -0.28415  -0.27787  -0.25673
 Alpha virt. eigenvalues --    0.07501   0.09122   0.10201   0.11204   0.11565
 Alpha virt. eigenvalues --    0.12816   0.14208   0.14895   0.15250   0.16043
 Alpha virt. eigenvalues --    0.17652   0.17967   0.19514   0.20544   0.21404

 Mulliken charges:
               1
     1  C   -0.402963
     2  C   -0.029802
     3  C   -0.320849
     4  C    0.438536
     5  C   -0.256014
     6  O   -0.281663
     7  C   -0.046789
     8  O   -0.270657
     9  C    0.057061
    10  H    0.119543
    11  H    0.135990
    12  H    0.114416
    13  H    0.081230
    14  H    0.112908
    15  H    0.120059
    16  H    0.115674
    17  H    0.115825
    18  H    0.101446
    19  H    0.096050
 Sum of Mulliken charges =   0.00000

 Dipole moment (field-independent basis, Debye):
    X=              0.3753    Y=             -0.4376    Z=              0.3311  Tot=              0.6648
 Quadrupole moment (field-independent basis, Debye-Ang):
   XX=            -48.7787   YY=            -57.8147   ZZ=            -52.8954
   XY=             -2.5252   XZ=             -2.5570   YZ=             -4.7231

  Exact polarizability:  89.513  -0.945  69.238  -1.232  -3.696  64.222
 Approx polarizability: 120.352   1.345 103.748   0.819   2.459 100.713

                      1                      2                      3
                      A                      A                      A
 Frequencies --     83.7378               168.6043               236.6515
 Red. masses --      3.4256                 3.3609                 1.0553
 Frc consts  --      0.0142                 0.0563                 0.0348
 IR Inten    --      1.7413                 3.2694                 0.1105

                      4                      5                      6
                      A                      A                      A
 Frequencies --    285.0062               290.6161               340.8560
 Red. masses --      2.7164                 3.3662                 3.0121
 Frc consts  --      0.1300                 0.1675                 0.2062
 IR Inten    --      2.0252                 9.1496                 3.6375

                      7                      8                      9
                      A                      A                      A
 Frequencies --    374.0200               440.0378               501.6118
 Red. masses --      2.2172                 4.5880                 5.0706
 Frc consts  --      0.1827                 0.5234                 0.7517
 IR Inten    --      2.4234                 1.4128                 5.7456

                     10                     11                     12
                      A                      A                      A
 Frequencies --    557.2132               713.6437               776.7334
 Red. masses --      3.5827                 3.5189                 3.4179
 Frc consts  --      0.6554                 1.0559                 1.2149
 IR Inten    --      1.7983                 0.9126                12.3402

                     13                     14                     15
                      A                      A                      A
 Frequencies --    817.2306               838.6460               861.2866
 Red. masses --      2.9508                 2.7132                 3.2080
 Frc consts  --      1.1611                 1.1243                 1.4021
 IR Inten    --      2.2850                 2.5100                29.5621

                     16                     17                     18
                      A                      A                      A
 Frequencies --    876.7422               923.0561               926.0767
 Red. masses --      3.9554                 1.5300                 2.0884
 Frc consts  --      1.7914                 0.7681                 1.0552
 IR Inten    --     22.3848                 1.6431                14.4373

                     19                     20                     21
                      A                      A                      A
 Frequencies --    945.1945               991.9531              1011.8737
 Red. masses --      1.9089                 3.6387                 1.5163
 Frc consts  --      1.0048                 2.1095                 0.9147
 IR Inten    --      9.7018                22.0347                 5.9312

                     22                     23                     24
                      A                      A                      A
 Frequencies --   1054.9203              1085.8163              1113.4126
 Red. masses --      1.7645                 1.3113                 1.8045
 Frc consts  --      1.1569                 0.9109                 1.3180
 IR Inten    --      6.7930                 0.6058                 3.6089

                     25                     26                     27
                      A                      A                      A
 Frequencies --   1127.2788              1142.2927              1161.7838
 Red. masses --      1.3510                 1.6286                 1.3855
 Frc consts  --      1.0115                 1.2520                 1.1018
 IR Inten    --      3.7500                 1.0694                 1.4789

                     28                     29                     30
                      A                      A                      A
 Frequencies --   1204.8244              1237.1900              1251.0987
 Red. masses --      1.5020                 1.3313                 2.0004
 Frc consts  --      1.2846                 1.2006                 1.8448
 IR Inten    --      3.7933                 3.0783                 1.0622

                     31                     32                     33
                      A                      A                      A
 Frequencies --   1273.7836              1301.5297              1333.2272
 Red. masses --      1.4694                 1.7473                 1.6848
 Frc consts  --      1.4047                 1.7440                 1.7645
 IR Inten    --      1.4447                 8.7137                 0.3623

                     34                     35                     36
                      A                      A                      A
 Frequencies --   1353.5971              1401.1973              1415.6236
 Red. masses --      1.5236                 2.1069                 1.4761
 Frc consts  --      1.6447                 2.4372                 1.7428
 IR Inten    --      5.1777                 6.0536                12.2946

                     37                     38                     39
                      A                      A                      A
 Frequencies --   1450.8205              1472.5795              1500.1724
 Red. masses --      1.9914                 1.2140                 1.0491
 Frc consts  --      2.4696                 1.5511                 1.3910
 IR Inten    --      4.3475                 4.5373                 4.7725

                     40                     41                     42
                      A                      A                      A
 Frequencies --   1501.2454              1534.4954              3032.6108
 Red. masses --      1.0508                 1.5348                 1.0350
 Frc consts  --      1.3954                 2.1293                 5.6084
 IR Inten    --      2.3727                 2.8023                21.4600

                     43                     44                     45
                      A                      A                      A
 Frequencies --   3045.8856              3070.0271              3079.3290
 Red. masses --      1.0833                 1.0613                 1.0506
 Frc consts  --      5.9212                 5.8933                 5.8695
 IR Inten    --     17.8787                16.1692                29.4993

                     46                     47                     48
                      A                      A                      A
 Frequencies --   3100.9679              3109.5270              3118.8307
 Red. masses --      1.1014                 1.1017                 1.1054
 Frc consts  --      6.2401                 6.2763                 6.3350
 IR Inten    --     21.6736                26.0818                12.1053

                     49                     50                     51
                      A                      A                      A
 Frequencies --   3140.7763              3163.1664              3165.0716
 Red. masses --      1.0887                 1.0999                 1.1138
 Frc consts  --      6.3278                 6.4838                 6.5741
 IR Inten    --     23.3794                 3.9590                34.5213

 - Thermochemistry -
 -------------------
 Temperature   298.150 Kelvin.  Pressure   1.00000 Atm.
 Atom     1 has atomic number  6 and mass  12.00000

 Molecular mass:   126.06808 amu.
 Principal axes and moments of inertia in atomic units:
                           1         2         3
     Eigenvalues --   709.778661105.386161456.13904
           X            0.99687  -0.07610  -0.02149
           Y            0.07517   0.99631  -0.04149
           Z            0.02457   0.03974   0.99891
 This molecule is an asymmetric top.
 Rotational symmetry number  1.
 Warning -- assumption of classical behavior for rotation
           may cause significant error
 Rotational temperatures (Kelvin)      0.12203     0.07836     0.05948
 Rotational constants (GHZ):           2.54268     1.63268     1.23940
 Zero-point vibrational energy     418118.0 (Joules/Mol)
                                   99.93260 (Kcal/Mol)
 Warning -- explicit consideration of  10 degrees of freedom as
           vibrations may cause significant error
 Vibrational temperatures:    120.48   242.58   340.49   410.06   418.13
          (Kelvin)            490.42   538.13   633.12   721.71   801.70
                             1026.77  1117.54  1175.81  1206.62  1239.20
                             1261.43  1328.07  1332.42  1359.92  1427.20
                             1455.86  1517.79  1562.25  1601.95  1621.90
                             1643.50  1671.55  1733.47  1780.04  1800.05
                             1832.69  1872.61  1918.21  1947.52  2016.01
                             2036.76  2087.40  2118.71  2158.41  2159.95
                             2207.79  4363.25  4382.34  4417.08  4430.46
                             4461.60  4473.91  4487.30  4518.87  4551.09
                             4553.83

 Zero-point correction=                           0.159253 (Hartree/Particle)
 Thermal correction to Energy=                    0.167170
 Thermal correction to Enthalpy=                  0.168114
 Thermal correction to Gibbs Free Energy=         0.126922
 Sum of electronic and zero-point Energies=           -423.001497
 Sum of electronic and thermal Energies=              -422.993581
 Sum of electronic and thermal Enthalpies=            -422.992636
 Sum of electronic and thermal Free Energies=         -423.033829

                     E (Thermal)             CV                S
                      KCal/Mol        Cal/Mol-Kelvin    Cal/Mol-Kelvin
 Total                  104.901             31.105             86.696
 Electronic               0.000              0.000              0.000
 Translational            0.889              2.981             40.409
 Rotational               0.889              2.981             28.526
 Vibrational            103.123             25.143             17.762
 Vibration     1          0.601              1.960              3.801
 Vibration     2          0.625              1.881              2.451
 Vibration     3          0.656              1.785              1.828
 Vibration     4          0.683              1.702              1.503
 Vibration     5          0.687              1.691              1.470
 Vibration     6          0.720              1.594              1.208
 Vibration     7          0.745              1.525              1.063
 Vibration     8          0.800              1.383              0.826
 Vibration     9          0.857              1.246              0.654
 Vibration    10          0.913              1.124              0.529

 Optimization completed.
    -- Stationary point found.
 Normal termination of Gaussian 09 at Tue Jan 28 03:34:16 2020.
