 Gaussian 09, Revision D.01,
 Gaussian 09:  ES64L-G09RevD.01 24-Apr-2013

 -----------------------------
 # b3lyp 6-31G(2df,p) opt Freq
 -----------------------------

 -----
 titel
 -----
 Symbolic Z-matrix:
 Charge =  0 Multiplicity = 1

 SCF Done:  E(RB3LYP) =  -423.179721143     A.U. after   14 cycles
 Optimization completed.
    -- Stationary point found.
 Normal termination of Gaussian 09 at Mon Jan 27 15:29:45 2020.

 ----------------------------------------------------------------------
 #N Geom=AllCheck Guess=TCheck SCRF=Check GenChk RB3LYP/6-31G(2df,p) Fr
 eq
 ----------------------------------------------------------------------

 Structure from the checkpoint file:  "/scratch/puck/g09_f420ed27-0bd0-4a9f-b34d-664f36f72138/Gau-80851.chk"
 -----
 titel
 -----
 Charge =  0 Multiplicity = 1

                         Standard orientation:
 ---------------------------------------------------------------------
 Center     Atomic      Atomic             Coordinates (Angstroms)
 Number     Number       Type             X           Y           Z
 ---------------------------------------------------------------------
      1          6           0        2.265830   -0.428828   -0.842550
      2          6           0        1.344498   -0.411962    0.383297
      3          8           0        1.625879    0.694782    1.229430
      4          6           0       -0.110404   -0.411730   -0.024066
      5          6           0       -0.882241   -1.638980   -0.480693
      6          6           0       -1.430372   -0.886976    0.676669
      7          6           0       -2.199939    0.343793    0.171287
      8          6           0       -0.842163    0.837911   -0.385318
      9          8           0       -0.435702    1.931368   -0.688636
     10          1           0        2.064750    0.440803   -1.476874
     11          1           0        3.310142   -0.391970   -0.521498
     12          1           0        2.112629   -1.331282   -1.442894
     13          1           0        1.542143   -1.300355    0.996727
     14          1           0        1.419234    1.492382    0.724413
     15          1           0       -1.405653   -1.643530   -1.433591
     16          1           0       -0.373799   -2.571680   -0.252623
     17          1           0       -1.497474   -1.295285    1.675993
     18          1           0       -3.008700    0.151038   -0.539313
     19          1           0       -2.555928    1.021316    0.951555
 ---------------------------------------------------------------------

 SCF Done:  E(RB3LYP) =  -423.179721143     A.U. after    1 cycles

 The electronic state is 1-A.
 Alpha  occ. eigenvalues --  -19.13561 -19.12831 -10.27347 -10.24095 -10.21968
 Alpha  occ. eigenvalues --  -10.21372 -10.20929 -10.20124 -10.17560  -1.04596
 Alpha  occ. eigenvalues --   -1.01279  -0.91404  -0.76039  -0.72933  -0.66214
 Alpha  occ. eigenvalues --   -0.61904  -0.59677  -0.53196  -0.50032  -0.48678
 Alpha  occ. eigenvalues --   -0.45511  -0.45220  -0.43537  -0.41655  -0.40987
 Alpha  occ. eigenvalues --   -0.39771  -0.38574  -0.37116  -0.35816  -0.34038
 Alpha  occ. eigenvalues --   -0.31583  -0.27799  -0.26587  -0.24552
 Alpha virt. eigenvalues --   -0.01348   0.08474   0.09226   0.09707   0.10387
 Alpha virt. eigenvalues --    0.11905   0.13478   0.14833   0.16080   0.17104
 Alpha virt. eigenvalues --    0.17450   0.17890   0.19564   0.20443   0.21910

 Mulliken charges:
               1
     1  C   -0.405885
     2  C    0.005463
     3  O   -0.437546
     4  C    0.251867
     5  C   -0.335592
     6  C   -0.116471
     7  C   -0.353140
     8  C    0.360482
     9  O   -0.345132
    10  H    0.132654
    11  H    0.123763
    12  H    0.113050
    13  H    0.087901
    14  H    0.294444
    15  H    0.120779
    16  H    0.127959
    17  H    0.117241
    18  H    0.121283
    19  H    0.136881
 Sum of Mulliken charges =   0.00000

 Dipole moment (field-independent basis, Debye):
    X=             -1.3329    Y=             -2.7756    Z=             -0.3127  Tot=              3.0949
 Quadrupole moment (field-independent basis, Debye-Ang):
   XX=            -51.8128   YY=            -55.0338   ZZ=            -55.0588
   XY=             -0.0456   XZ=             -2.8951   YZ=              1.1942

  Exact polarizability:  84.360   0.122  79.549  -2.722  -0.636  64.223
 Approx polarizability: 112.276   5.274 128.307  -3.523  -5.775 100.774

                      1                      2                      3
                      A                      A                      A
 Frequencies --     63.1642               116.3937               153.6141
 Red. masses --      4.1151                 3.4902                 4.2683
 Frc consts  --      0.0097                 0.0279                 0.0593
 IR Inten    --      3.6996                 6.5975                 0.7837

                      4                      5                      6
                      A                      A                      A
 Frequencies --    179.6526               257.6830               314.4794
 Red. masses --      3.3194                 1.0771                 3.3910
 Frc consts  --      0.0631                 0.0421                 0.1976
 IR Inten    --      1.5757                 0.3303                 0.9634

                      7                      8                      9
                      A                      A                      A
 Frequencies --    403.7044               442.0535               451.7411
 Red. masses --      1.9443                 1.2675                 4.1483
 Frc consts  --      0.1867                 0.1459                 0.4988
 IR Inten    --      0.5202                64.4671                 9.1868

                     10                     11                     12
                      A                      A                      A
 Frequencies --    460.0840               489.7506               569.7321
 Red. masses --      3.3092                 2.2033                 3.4082
 Frc consts  --      0.4127                 0.3114                 0.6518
 IR Inten    --      6.7621                65.6512                13.4912

                     13                     14                     15
                      A                      A                      A
 Frequencies --    682.9502               689.0180               785.0605
 Red. masses --      3.5054                 2.7572                 4.2375
 Frc consts  --      0.9633                 0.7712                 1.5387
 IR Inten    --      2.5966                 0.3804                20.9232

                     16                     17                     18
                      A                      A                      A
 Frequencies --    838.4023               884.9484               906.7765
 Red. masses --      1.7061                 3.1266                 1.8758
 Frc consts  --      0.7066                 1.4426                 0.9087
 IR Inten    --      1.7772                 5.3279                12.0380

                     19                     20                     21
                      A                      A                      A
 Frequencies --    936.5474               985.3349              1006.5327
 Red. masses --      1.5368                 1.4538                 2.0835
 Frc consts  --      0.7942                 0.8316                 1.2436
 IR Inten    --      6.4844                25.6154                 4.0024

                     22                     23                     24
                      A                      A                      A
 Frequencies --   1019.4566              1043.6866              1065.0472
 Red. masses --      1.4421                 1.9294                 2.3447
 Frc consts  --      0.8831                 1.2383                 1.5671
 IR Inten    --      6.8078                16.8682                26.1380

                     25                     26                     27
                      A                      A                      A
 Frequencies --   1093.5283              1097.3647              1128.9874
 Red. masses --      1.4831                 2.0639                 2.1542
 Frc consts  --      1.0449                 1.4643                 1.6177
 IR Inten    --     47.6540                 2.3943                48.9939

                     28                     29                     30
                      A                      A                      A
 Frequencies --   1146.1855              1206.2805              1237.3686
 Red. masses --      1.4536                 1.6018                 1.7488
 Frc consts  --      1.1252                 1.3732                 1.5775
 IR Inten    --      6.9706                10.9933                 5.3018

                     31                     32                     33
                      A                      A                      A
 Frequencies --   1283.7583              1323.7060              1348.2037
 Red. masses --      2.1779                 1.5691                 1.5860
 Frc consts  --      2.1147                 1.6199                 1.6985
 IR Inten    --      6.5557                 9.9408                 6.7372

                     34                     35                     36
                      A                      A                      A
 Frequencies --   1377.4209              1400.7654              1434.1687
 Red. masses --      2.8659                 1.2552                 1.2171
 Frc consts  --      3.2036                 1.4511                 1.4750
 IR Inten    --     17.4588                 6.0547                66.0213

                     37                     38                     39
                      A                      A                      A
 Frequencies --   1458.0266              1491.8708              1496.6887
 Red. masses --      1.1044                 1.0633                 1.1773
 Frc consts  --      1.3832                 1.3943                 1.5538
 IR Inten    --      2.2669                14.9498                 1.5784

                     40                     41                     42
                      A                      A                      A
 Frequencies --   1500.9835              1839.4879              3029.3078
 Red. masses --      1.1186                12.2602                 1.0845
 Frc consts  --      1.4849                24.4422                 5.8635
 IR Inten    --      0.4880               294.3475                21.1966

                     43                     44                     45
                      A                      A                      A
 Frequencies --   3036.9651              3059.3953              3108.3864
 Red. masses --      1.0348                 1.0595                 1.0586
 Frc consts  --      5.6233                 5.8430                 6.0266
 IR Inten    --     14.8006                20.7557                 7.9187

                     46                     47                     48
                      A                      A                      A
 Frequencies --   3110.0948              3118.4657              3122.4786
 Red. masses --      1.0980                 1.1052                 1.1026
 Frc consts  --      6.2577                 6.3327                 6.3337
 IR Inten    --     28.6906                 9.1128                22.9260

                     49                     50                     51
                      A                      A                      A
 Frequencies --   3192.0645              3213.7284              3765.0033
 Red. masses --      1.1145                 1.0940                 1.0659
 Frc consts  --      6.6907                 6.6573                 8.9019
 IR Inten    --      5.4754                 4.6043                30.2709

 - Thermochemistry -
 -------------------
 Temperature   298.150 Kelvin.  Pressure   1.00000 Atm.
 Atom     1 has atomic number  6 and mass  12.00000

 Molecular mass:   126.06808 amu.
 Principal axes and moments of inertia in atomic units:
                           1         2         3
     Eigenvalues --   741.703151207.685891489.46766
           X            0.99951  -0.00576  -0.03085
           Y            0.00695   0.99923   0.03860
           Z            0.03060  -0.03880   0.99878
 This molecule is an asymmetric top.
 Rotational symmetry number  1.
 Warning -- assumption of classical behavior for rotation
           may cause significant error
 Rotational temperatures (Kelvin)      0.11678     0.07172     0.05815
 Rotational constants (GHZ):           2.43324     1.49438     1.21167
 Zero-point vibrational energy     414903.8 (Joules/Mol)
                                   99.16439 (Kcal/Mol)
 Warning -- explicit consideration of  12 degrees of freedom as
           vibrations may cause significant error
 Vibrational temperatures:     90.88   167.46   221.02   258.48   370.75
          (Kelvin)            452.47   580.84   636.02   649.95   661.96
                              704.64   819.72   982.61   991.34  1129.53
                             1206.27  1273.24  1304.65  1347.48  1417.68
                             1448.17  1466.77  1501.63  1532.36  1573.34
                             1578.86  1624.36  1649.10  1735.57  1780.30
                             1847.04  1904.52  1939.76  1981.80  2015.39
                             2063.45  2097.77  2146.47  2153.40  2159.58
                             2646.61  4358.49  4369.51  4401.78  4472.27
                             4474.73  4486.77  4492.54  4592.66  4623.83
                             5416.99

 Zero-point correction=                           0.158029 (Hartree/Particle)
 Thermal correction to Energy=                    0.166897
 Thermal correction to Enthalpy=                  0.167842
 Thermal correction to Gibbs Free Energy=         0.124385
 Sum of electronic and zero-point Energies=           -423.021693
 Sum of electronic and thermal Energies=              -423.012824
 Sum of electronic and thermal Enthalpies=            -423.011880
 Sum of electronic and thermal Free Energies=         -423.055336

                     E (Thermal)             CV                S
                      KCal/Mol        Cal/Mol-Kelvin    Cal/Mol-Kelvin
 Total                  104.730             33.661             91.462
 Electronic               0.000              0.000              0.000
 Translational            0.889              2.981             40.409
 Rotational               0.889              2.981             28.680
 Vibrational            102.952             27.699             22.373
 Vibration     1          0.597              1.972              4.356
 Vibration     2          0.608              1.936              3.159
 Vibration     3          0.619              1.899              2.627
 Vibration     4          0.629              1.867              2.332
 Vibration     5          0.667              1.750              1.677
 Vibration     6          0.702              1.646              1.339
 Vibration     7          0.769              1.462              0.949
 Vibration     8          0.802              1.378              0.820
 Vibration     9          0.810              1.357              0.791
 Vibration    10          0.818              1.339              0.766
 Vibration    11          0.846              1.273              0.684
 Vibration    12          0.926              1.097              0.505

 Normal termination of Gaussian 09 at Mon Jan 27 16:13:47 2020.
