 Gaussian 09, Revision D.01,
 Gaussian 09:  ES64L-G09RevD.01 24-Apr-2013

 -----------------------------
 # b3lyp 6-31G(2df,p) opt Freq
 -----------------------------

 -----
 titel
 -----
 Symbolic Z-matrix:
 Charge =  0 Multiplicity = 1

 SCF Done:  E(RB3LYP) =  -423.130167327     A.U. after   13 cycles
 SCF Done:  E(RB3LYP) =  -423.130167769     A.U. after    6 cycles
 Optimization completed.
    -- Stationary point found.
 Normal termination of Gaussian 09 at Mon Jan 27 23:11:10 2020.

 ----------------------------------------------------------------------
 #N Geom=AllCheck Guess=TCheck SCRF=Check GenChk RB3LYP/6-31G(2df,p) Fr
 eq
 ----------------------------------------------------------------------

 Structure from the checkpoint file:  "/scratch/puck/g09_667aebc8-68f3-4972-bc96-d811a65c0a78/Gau-48931.chk"
 -----
 titel
 -----
 Charge =  0 Multiplicity = 1

                         Standard orientation:
 ---------------------------------------------------------------------
 Center     Atomic      Atomic             Coordinates (Angstroms)
 Number     Number       Type             X           Y           Z
 ---------------------------------------------------------------------
      1          8           0        2.054848   -0.989498    0.000000
      2          6           0        1.404125    0.233926    0.000001
      3          6           0        0.303334    0.663544    1.048748
      4          6           0       -0.014924    1.770004   -0.000001
      5          6           0        0.303336    0.663543   -1.048748
      6          6           0       -0.844245   -0.415099   -0.994367
      7          6           0       -1.961698   -0.017112   -0.000003
      8          6           0       -0.844249   -0.415097    0.994367
      9          8           0       -0.457568   -1.435828    0.000003
     10          1           0        1.344257   -1.647247    0.000004
     11          1           0        2.192808    0.990583    0.000003
     12          1           0        0.590685    0.933789    2.066168
     13          1           0       -0.993711    2.242567   -0.000002
     14          1           0        0.745578    2.553960   -0.000001
     15          1           0        0.590689    0.933786   -2.066168
     16          1           0       -1.088354   -0.858706   -1.960491
     17          1           0       -2.395180    0.980447   -0.000006
     18          1           0       -2.750724   -0.770124   -0.000003
     19          1           0       -1.088363   -0.858700    1.960491
 ---------------------------------------------------------------------

 SCF Done:  E(RB3LYP) =  -423.130167769     A.U. after    1 cycles

 The electronic state is 1-A.
 Alpha  occ. eigenvalues --  -19.14581 -19.11439 -10.24833 -10.24833 -10.23058
 Alpha  occ. eigenvalues --  -10.19422 -10.19337 -10.19337 -10.18810  -1.05661
 Alpha  occ. eigenvalues --   -1.00241  -0.85585  -0.74454  -0.72389  -0.64077
 Alpha  occ. eigenvalues --   -0.61433  -0.60070  -0.54215  -0.52874  -0.49487
 Alpha  occ. eigenvalues --   -0.46477  -0.43671  -0.42272  -0.41133  -0.37977
 Alpha  occ. eigenvalues --   -0.37332  -0.36812  -0.36121  -0.35793  -0.33538
 Alpha  occ. eigenvalues --   -0.29944  -0.29286  -0.24729  -0.24451
 Alpha virt. eigenvalues --    0.05675   0.08429   0.11358   0.11978   0.12446
 Alpha virt. eigenvalues --    0.13083   0.15144   0.15717   0.16125   0.16514
 Alpha virt. eigenvalues --    0.18418   0.18641   0.20585   0.22152   0.22327

 Mulliken charges:
               1
     1  O   -0.444306
     2  C    0.215749
     3  C   -0.122621
     4  C   -0.233133
     5  C   -0.122620
     6  C    0.078808
     7  C   -0.227703
     8  C    0.078808
     9  O   -0.314051
    10  H    0.287778
    11  H    0.083357
    12  H    0.063779
    13  H    0.100058
    14  H    0.101397
    15  H    0.063779
    16  H    0.087289
    17  H    0.104539
    18  H    0.111805
    19  H    0.087289
 Sum of Mulliken charges =   0.00000

 Dipole moment (field-independent basis, Debye):
    X=             -2.3695    Y=              1.6516    Z=              0.0000  Tot=              2.8883
 Quadrupole moment (field-independent basis, Debye-Ang):
   XX=            -56.9279   YY=            -54.1578   ZZ=            -50.4633
   XY=              2.5149   XZ=              0.0000   YZ=              0.0000

  Exact polarizability:  76.712   2.198  71.985   0.000   0.000  70.113
 Approx polarizability: 109.636  -1.006 111.854   0.000   0.000 107.731

                      1                      2                      3
                      A                      A                      A
 Frequencies --    225.0233               321.9097               395.8097
 Red. masses --      4.8016                 5.1476                 3.0042
 Frc consts  --      0.1432                 0.3143                 0.2773
 IR Inten    --      0.3156                 4.4780                 0.2544

                      4                      5                      6
                      A                      A                      A
 Frequencies --    460.2330               531.7610               555.3356
 Red. masses --      3.8640                 2.3895                 3.5018
 Frc consts  --      0.4822                 0.3981                 0.6363
 IR Inten    --      5.0591                 1.5604                 3.1044

                      7                      8                      9
                      A                      A                      A
 Frequencies --    583.5858               655.7284               697.4832
 Red. masses --      3.9874                 4.8417                 1.1639
 Frc consts  --      0.8001                 1.2266                 0.3336
 IR Inten    --      0.1802                 3.0337                48.9009

                     10                     11                     12
                      A                      A                      A
 Frequencies --    734.9169               766.3947               790.7048
 Red. masses --      3.1148                 2.5440                 2.2080
 Frc consts  --      0.9912                 0.8804                 0.8134
 IR Inten    --      5.5829                 5.8191                 5.0231

                     13                     14                     15
                      A                      A                      A
 Frequencies --    819.5486               859.3817               864.4801
 Red. masses --      3.8344                 3.2459                 4.1539
 Frc consts  --      1.5174                 1.4124                 1.8290
 IR Inten    --      0.1526                37.0234                36.6009

                     16                     17                     18
                      A                      A                      A
 Frequencies --    871.2152               908.6218               935.3774
 Red. masses --      3.0196                 2.0753                 2.7720
 Frc consts  --      1.3504                 1.0095                 1.4290
 IR Inten    --     10.6659                15.4924                 6.4782

                     19                     20                     21
                      A                      A                      A
 Frequencies --    945.6299              1016.7450              1019.3064
 Red. masses --      1.9998                 1.7477                 2.8887
 Frc consts  --      1.0536                 1.0645                 1.7683
 IR Inten    --      8.0227                 5.6917                 9.7843

                     22                     23                     24
                      A                      A                      A
 Frequencies --   1063.6211              1068.2308              1086.9849
 Red. masses --      1.8128                 1.1764                 1.1305
 Frc consts  --      1.2083                 0.7909                 0.7870
 IR Inten    --      9.5926                 2.1520                 1.9464

                     25                     26                     27
                      A                      A                      A
 Frequencies --   1105.5790              1107.5839              1176.5333
 Red. masses --      1.2122                 2.9626                 1.4668
 Frc consts  --      0.8730                 2.1413                 1.1962
 IR Inten    --      1.3527                 8.3438                 1.3997

                     28                     29                     30
                      A                      A                      A
 Frequencies --   1180.1030              1210.0933              1227.3133
 Red. masses --      2.5517                 1.4628                 1.3995
 Frc consts  --      2.0937                 1.2621                 1.2420
 IR Inten    --    119.1431                 3.6166                 0.5198

                     31                     32                     33
                      A                      A                      A
 Frequencies --   1240.9905              1245.5361              1280.9926
 Red. masses --      1.9665                 1.4425                 1.3117
 Frc consts  --      1.7844                 1.3185                 1.2682
 IR Inten    --     96.8091                 3.7990                13.6196

                     34                     35                     36
                      A                      A                      A
 Frequencies --   1299.2679              1310.4016              1326.2139
 Red. masses --      1.7109                 1.3197                 1.4457
 Frc consts  --      1.7016                 1.3351                 1.4981
 IR Inten    --     21.2331                 0.2472                 1.1319

                     37                     38                     39
                      A                      A                      A
 Frequencies --   1352.6932              1366.2315              1482.4211
 Red. masses --      1.5000                 1.4651                 1.1282
 Frc consts  --      1.6171                 1.6113                 1.4607
 IR Inten    --     22.9980                 8.2728                39.4234

                     40                     41                     42
                      A                      A                      A
 Frequencies --   1499.1131              1546.8596              3070.0950
 Red. masses --      1.1497                 1.0969                 1.0812
 Frc consts  --      1.5223                 1.5465                 6.0041
 IR Inten    --     38.8499                15.5924                 9.5362

                     43                     44                     45
                      A                      A                      A
 Frequencies --   3080.4560              3092.4167              3093.0207
 Red. masses --      1.0731                 1.0882                 1.0684
 Frc consts  --      5.9997                 6.1315                 6.0221
 IR Inten    --     21.2884                19.0150                20.3913

                     46                     47                     48
                      A                      A                      A
 Frequencies --   3096.3878              3109.5276              3115.5220
 Red. masses --      1.0805                 1.0880                 1.0911
 Frc consts  --      6.1034                 6.1982                 6.2396
 IR Inten    --     64.0590               124.1175                 1.6800

                     49                     50                     51
                      A                      A                      A
 Frequencies --   3145.5238              3165.1991              3707.8536
 Red. masses --      1.1058                 1.0993                 1.0632
 Frc consts  --      6.4463                 6.4886                 8.6120
 IR Inten    --     20.6362                36.6961               124.1445

 - Thermochemistry -
 -------------------
 Temperature   298.150 Kelvin.  Pressure   1.00000 Atm.
 Atom     1 has atomic number  8 and mass  15.99491

 Molecular mass:   126.06808 amu.
 Principal axes and moments of inertia in atomic units:
                           1         2         3
     Eigenvalues --   671.40104 897.259231093.85553
           X            0.99937   0.03561   0.00000
           Y           -0.03561   0.99937   0.00000
           Z            0.00000   0.00000   1.00000
 This molecule is an asymmetric top.
 Rotational symmetry number  1.
 Warning -- assumption of classical behavior for rotation
           may cause significant error
 Rotational temperatures (Kelvin)      0.12900     0.09653     0.07918
 Rotational constants (GHZ):           2.68802     2.01139     1.64989
 Zero-point vibrational energy     429530.9 (Joules/Mol)
                                  102.66035 (Kcal/Mol)
 Warning -- explicit consideration of   7 degrees of freedom as
           vibrations may cause significant error
 Vibrational temperatures:    323.76   463.16   569.48   662.17   765.08
          (Kelvin)            799.00   839.65   943.45  1003.52  1057.38
                             1102.67  1137.65  1179.15  1236.46  1243.79
                             1253.48  1307.30  1345.80  1360.55  1462.87
                             1466.55  1530.31  1536.94  1563.93  1590.68
                             1593.56  1692.77  1697.90  1741.05  1765.83
                             1785.51  1792.05  1843.06  1869.35  1885.37
                             1908.12  1946.22  1965.70  2132.87  2156.89
                             2225.58  4417.18  4432.08  4449.29  4450.16
                             4455.01  4473.91  4482.54  4525.70  4554.01
                             5334.77

 Zero-point correction=                           0.163600 (Hartree/Particle)
 Thermal correction to Energy=                    0.169764
 Thermal correction to Enthalpy=                  0.170708
 Thermal correction to Gibbs Free Energy=         0.133502
 Sum of electronic and zero-point Energies=           -422.966568
 Sum of electronic and thermal Energies=              -422.960404
 Sum of electronic and thermal Enthalpies=            -422.959460
 Sum of electronic and thermal Free Energies=         -422.996666

                     E (Thermal)             CV                S
                      KCal/Mol        Cal/Mol-Kelvin    Cal/Mol-Kelvin
 Total                  106.528             27.532             78.307
 Electronic               0.000              0.000              0.000
 Translational            0.889              2.981             40.409
 Rotational               0.889              2.981             27.979
 Vibrational            104.751             21.570              9.919
 Vibration     1          0.650              1.803              1.918
 Vibration     2          0.707              1.632              1.300
 Vibration     3          0.763              1.479              0.978
 Vibration     4          0.818              1.338              0.765
 Vibration     5          0.887              1.180              0.583
 Vibration     6          0.911              1.128              0.533
 Vibration     7          0.940              1.067              0.479

 Optimization completed.
    -- Stationary point found.
 Normal termination of Gaussian 09 at Tue Jan 28 00:03:58 2020.
