 Gaussian 09, Revision D.01,
 Gaussian 09:  ES64L-G09RevD.01 24-Apr-2013

 -----------------------------
 # b3lyp 6-31G(2df,p) opt Freq
 -----------------------------

 -----
 titel
 -----
 Symbolic Z-matrix:
 Charge =  0 Multiplicity = 1

 SCF Done:  E(RB3LYP) =  -423.149204334     A.U. after   13 cycles
 Optimization completed.
    -- Stationary point found.
 Normal termination of Gaussian 09 at Mon Jan 27 18:18:38 2020.

 ----------------------------------------------------------------------
 #N Geom=AllCheck Guess=TCheck SCRF=Check GenChk RB3LYP/6-31G(2df,p) Fr
 eq
 ----------------------------------------------------------------------

 Structure from the checkpoint file:  "/scratch/puck/g09_823d5d79-ce53-47f2-b8c4-87ee3c0ac7a8/Gau-18140.chk"
 -----
 titel
 -----
 Charge =  0 Multiplicity = 1

                         Standard orientation:
 ---------------------------------------------------------------------
 Center     Atomic      Atomic             Coordinates (Angstroms)
 Number     Number       Type             X           Y           Z
 ---------------------------------------------------------------------
      1          6           0       -2.347373    0.452704    0.293015
      2          6           0       -0.870758    0.240730    0.033056
      3          6           0       -0.079997    1.534204   -0.213682
      4          6           0        1.401150    1.332059    0.135160
      5          8           0        1.873294    0.050904   -0.268698
      6          6           0        1.189897   -0.996885    0.350152
      7          6           0       -0.026668   -1.611805   -0.287794
      8          8           0       -0.691157   -0.667304   -1.112210
      9          6           0       -0.168859   -0.769050    0.964671
     10          1           0       -2.802298    1.003031   -0.536956
     11          1           0       -2.860095   -0.507765    0.393108
     12          1           0       -2.498220    1.029298    1.212212
     13          1           0       -0.202069    1.793738   -1.270291
     14          1           0       -0.485024    2.360971    0.381350
     15          1           0        2.036884    2.061395   -0.372563
     16          1           0        1.545547    1.452958    1.219681
     17          1           0        1.841399   -1.687015    0.883594
     18          1           0       -0.168493   -2.666368   -0.494417
     19          1           0       -0.449077   -1.000781    1.984077
 ---------------------------------------------------------------------

 SCF Done:  E(RB3LYP) =  -423.149204334     A.U. after    1 cycles

 The electronic state is 1-A.
 Alpha  occ. eigenvalues --  -19.13971 -19.13398 -10.24709 -10.23573 -10.23391
 Alpha  occ. eigenvalues --  -10.22769 -10.19338 -10.18209 -10.18011  -1.06212
 Alpha  occ. eigenvalues --   -1.02217  -0.82576  -0.79202  -0.72670  -0.65116
 Alpha  occ. eigenvalues --   -0.63241  -0.56508  -0.53090  -0.51365  -0.50569
 Alpha  occ. eigenvalues --   -0.47391  -0.44296  -0.43571  -0.41918  -0.39901
 Alpha  occ. eigenvalues --   -0.38636  -0.38286  -0.37364  -0.34639  -0.32329
 Alpha  occ. eigenvalues --   -0.30709  -0.26726  -0.26375  -0.22485
 Alpha virt. eigenvalues --    0.07970   0.08735   0.11362   0.11762   0.12087
 Alpha virt. eigenvalues --    0.13961   0.14500   0.14703   0.15984   0.17162
 Alpha virt. eigenvalues --    0.17632   0.18017   0.19079   0.21388   0.21477

 Mulliken charges:
               1
     1  C   -0.451764
     2  C    0.420736
     3  C   -0.260274
     4  C   -0.076909
     5  O   -0.250197
     6  C    0.077767
     7  C    0.061664
     8  O   -0.322349
     9  C   -0.269410
    10  H    0.127060
    11  H    0.124787
    12  H    0.114015
    13  H    0.120462
    14  H    0.094758
    15  H    0.109759
    16  H    0.090920
    17  H    0.094540
    18  H    0.100817
    19  H    0.093619
 Sum of Mulliken charges =   0.00000

 Dipole moment (field-independent basis, Debye):
    X=             -0.8673    Y=              0.4628    Z=              2.1679  Tot=              2.3804
 Quadrupole moment (field-independent basis, Debye-Ang):
   XX=            -55.4335   YY=            -47.8409   ZZ=            -54.5882
   XY=             -0.4952   XZ=              0.1937   YZ=             -1.5989

  Exact polarizability:  77.384  -1.496  79.954   0.526  -0.436  63.666
 Approx polarizability: 105.735  -2.782 112.316   0.040   2.928 105.046

                      1                      2                      3
                      A                      A                      A
 Frequencies --    172.2562               232.7751               251.5407
 Red. masses --      2.5741                 1.2147                 2.2368
 Frc consts  --      0.0450                 0.0388                 0.0834
 IR Inten    --      0.3206                 0.4615                 2.1275

                      4                      5                      6
                      A                      A                      A
 Frequencies --    288.0162               346.8167               391.4000
 Red. masses --      2.4458                 3.4471                 2.8038
 Frc consts  --      0.1195                 0.2443                 0.2531
 IR Inten    --      1.4647                 1.3901                 4.4447

                      7                      8                      9
                      A                      A                      A
 Frequencies --    457.1938               491.9322               631.1698
 Red. masses --      4.3066                 2.9228                 3.5717
 Frc consts  --      0.5304                 0.4167                 0.8383
 IR Inten    --      4.5967                 3.1767                11.4394

                     10                     11                     12
                      A                      A                      A
 Frequencies --    650.1519               712.2025               749.7750
 Red. masses --      3.9909                 2.6001                 2.2504
 Frc consts  --      0.9939                 0.7770                 0.7454
 IR Inten    --      2.7860                 8.1349                 3.6696

                     13                     14                     15
                      A                      A                      A
 Frequencies --    794.7516               852.3070               861.6836
 Red. masses --      2.0676                 3.0884                 2.2763
 Frc consts  --      0.7694                 1.3218                 0.9958
 IR Inten    --     12.3749                16.9796                 7.8243

                     16                     17                     18
                      A                      A                      A
 Frequencies --    882.1498               931.6560               946.4687
 Red. masses --      2.7255                 1.9203                 1.8583
 Frc consts  --      1.2496                 0.9821                 0.9808
 IR Inten    --      3.2024                 5.7545                 0.4375

                     19                     20                     21
                      A                      A                      A
 Frequencies --    979.7775              1013.1374              1040.4369
 Red. masses --      1.6058                 2.3662                 1.4590
 Frc consts  --      0.9082                 1.4310                 0.9305
 IR Inten    --     14.5171                13.7127                 2.6392

                     22                     23                     24
                      A                      A                      A
 Frequencies --   1052.2684              1065.3058              1066.1774
 Red. masses --      1.5884                 3.0976                 2.3025
 Frc consts  --      1.0363                 2.0712                 1.5421
 IR Inten    --      6.5257                22.7155                12.9644

                     25                     26                     27
                      A                      A                      A
 Frequencies --   1100.5898              1146.8139              1165.1027
 Red. masses --      3.5731                 2.1731                 2.1545
 Frc consts  --      2.5500                 1.6839                 1.7231
 IR Inten    --     69.5839                 6.1749                19.1592

                     28                     29                     30
                      A                      A                      A
 Frequencies --   1193.7338              1238.1975              1258.6301
 Red. masses --      2.4844                 1.8306                 1.4032
 Frc consts  --      2.0858                 1.6536                 1.3097
 IR Inten    --     24.3274                29.6745                 7.4224

                     31                     32                     33
                      A                      A                      A
 Frequencies --   1272.8895              1308.7772              1330.3283
 Red. masses --      2.0184                 1.4521                 1.4860
 Frc consts  --      1.9268                 1.4655                 1.5495
 IR Inten    --     31.7308                12.1439                 3.9653

                     34                     35                     36
                      A                      A                      A
 Frequencies --   1370.9088              1395.2030              1407.3074
 Red. masses --      1.6583                 1.6097                 1.3087
 Frc consts  --      1.8363                 1.8462                 1.5272
 IR Inten    --      8.9439                19.3637                 5.2464

                     37                     38                     39
                      A                      A                      A
 Frequencies --   1424.9780              1464.4036              1484.1673
 Red. masses --      1.6758                 1.0899                 1.0599
 Frc consts  --      2.0049                 1.3771                 1.3756
 IR Inten    --     14.9269                 1.3877                 0.9573

                     40                     41                     42
                      A                      A                      A
 Frequencies --   1489.8456              1503.4525              2986.3572
 Red. masses --      1.0499                 1.1000                 1.0709
 Frc consts  --      1.3731                 1.4649                 5.6269
 IR Inten    --      3.9873                 1.5514                52.7578

                     43                     44                     45
                      A                      A                      A
 Frequencies --   3032.5907              3040.3209              3085.7886
 Red. masses --      1.0384                 1.0569                 1.0997
 Frc consts  --      5.6267                 5.7560                 6.1695
 IR Inten    --      8.1484                33.3162                14.6554

                     46                     47                     48
                      A                      A                      A
 Frequencies --   3101.2680              3104.7790              3118.4948
 Red. masses --      1.0962                 1.1006                 1.1019
 Frc consts  --      6.2117                 6.2511                 6.3138
 IR Inten    --     28.1137                26.7882                18.0423

                     49                     50                     51
                      A                      A                      A
 Frequencies --   3123.3680              3177.3732              3193.2544
 Red. masses --      1.0879                 1.0895                 1.0991
 Frc consts  --      6.2530                 6.4805                 6.6031
 IR Inten    --     25.2208                25.0114                14.7428

 - Thermochemistry -
 -------------------
 Temperature   298.150 Kelvin.  Pressure   1.00000 Atm.
 Atom     1 has atomic number  6 and mass  12.00000

 Molecular mass:   126.06808 amu.
 Principal axes and moments of inertia in atomic units:
                           1         2         3
     Eigenvalues --   661.36534 926.415521255.02059
           X            0.99983  -0.01785  -0.00424
           Y            0.01775   0.99963  -0.02060
           Z            0.00460   0.02052   0.99978
 This molecule is an asymmetric top.
 Rotational symmetry number  1.
 Warning -- assumption of classical behavior for rotation
           may cause significant error
 Rotational temperatures (Kelvin)      0.13096     0.09349     0.06901
 Rotational constants (GHZ):           2.72881     1.94809     1.43802
 Zero-point vibrational energy     420967.5 (Joules/Mol)
                                  100.61365 (Kcal/Mol)
 Warning -- explicit consideration of   8 degrees of freedom as
           vibrations may cause significant error
 Vibrational temperatures:    247.84   334.91   361.91   414.39   498.99
          (Kelvin)            563.14   657.80   707.78   908.11   935.42
                             1024.70  1078.76  1143.47  1226.28  1239.77
                             1269.22  1340.44  1361.76  1409.68  1457.68
                             1496.95  1513.98  1532.74  1533.99  1583.50
                             1650.01  1676.32  1717.51  1781.49  1810.89
                             1831.40  1883.04  1914.04  1972.43  2007.38
                             2024.80  2050.22  2106.95  2135.38  2143.55
                             2163.13  4296.70  4363.22  4374.34  4439.76
                             4462.03  4467.08  4486.81  4493.82  4571.53
                             4594.38

 Zero-point correction=                           0.160338 (Hartree/Particle)
 Thermal correction to Energy=                    0.167602
 Thermal correction to Enthalpy=                  0.168547
 Thermal correction to Gibbs Free Energy=         0.129181
 Sum of electronic and zero-point Energies=           -422.988866
 Sum of electronic and thermal Energies=              -422.981602
 Sum of electronic and thermal Enthalpies=            -422.980658
 Sum of electronic and thermal Free Energies=         -423.020024

                     E (Thermal)             CV                S
                      KCal/Mol        Cal/Mol-Kelvin    Cal/Mol-Kelvin
 Total                  105.172             29.945             82.853
 Electronic               0.000              0.000              0.000
 Translational            0.889              2.981             40.409
 Rotational               0.889              2.981             28.133
 Vibrational            103.395             23.983             14.312
 Vibration     1          0.626              1.877              2.411
 Vibration     2          0.654              1.791              1.857
 Vibration     3          0.664              1.760              1.720
 Vibration     4          0.685              1.696              1.486
 Vibration     5          0.725              1.582              1.181
 Vibration     6          0.759              1.489              0.995
 Vibration     7          0.815              1.345              0.774
 Vibration     8          0.848              1.268              0.679

 Optimization completed.
    -- Stationary point found.
 Normal termination of Gaussian 09 at Mon Jan 27 20:11:29 2020.
