 Gaussian 09, Revision D.01,
 Gaussian 09:  ES64L-G09RevD.01 24-Apr-2013

 -----------------------------
 # b3lyp 6-31G(2df,p) opt Freq
 -----------------------------

 -----
 titel
 -----
 Symbolic Z-matrix:
 Charge =  0 Multiplicity = 1

 SCF Done:  E(RB3LYP) =  -423.220241977     A.U. after   14 cycles
 Optimization completed.
    -- Stationary point found.
 Normal termination of Gaussian 09 at Tue Jan 28 08:13:26 2020.

 ----------------------------------------------------------------------
 #N Geom=AllCheck Guess=TCheck SCRF=Check GenChk RB3LYP/6-31G(2df,p) Fr
 eq
 ----------------------------------------------------------------------

 Structure from the checkpoint file:  "/scratch/puck/g09_82252303-b3a4-43fa-acdb-c4844ec13652/Gau-92069.chk"
 -----
 titel
 -----
 Charge =  0 Multiplicity = 1

                         Standard orientation:
 ---------------------------------------------------------------------
 Center     Atomic      Atomic             Coordinates (Angstroms)
 Number     Number       Type             X           Y           Z
 ---------------------------------------------------------------------
      1          8           0        3.314987   -0.438651    0.007373
      2          6           0        1.978735   -0.834862    0.018417
      3          6           0        1.048177    0.372235   -0.015214
      4          8           0        1.547035    1.485284   -0.068849
      5          6           0       -0.408522    0.141704    0.014849
      6          6           0       -1.309216    1.135343    0.017712
      7          6           0       -2.721565    0.630180    0.097339
      8          6           0       -2.572432   -0.887963   -0.184432
      9          6           0       -1.083890   -1.216862    0.102280
     10          1           0        3.279551    0.532010   -0.037425
     11          1           0        1.740795   -1.477888   -0.846778
     12          1           0        1.742644   -1.433457    0.914839
     13          1           0       -1.041112    2.185386   -0.000127
     14          1           0       -3.132462    0.827989    1.098262
     15          1           0       -3.392594    1.133070   -0.607654
     16          1           0       -3.259762   -1.498497    0.405219
     17          1           0       -2.790605   -1.082378   -1.238907
     18          1           0       -0.950744   -1.649300    1.103402
     19          1           0       -0.679605   -1.948658   -0.604726
 ---------------------------------------------------------------------

 SCF Done:  E(RB3LYP) =  -423.220241977     A.U. after    1 cycles

 The electronic state is 1-A.
 Alpha  occ. eigenvalues --  -19.13776 -19.12432 -10.27249 -10.23291 -10.20660
 Alpha  occ. eigenvalues --  -10.20070 -10.20006 -10.19900 -10.19661  -1.05324
 Alpha  occ. eigenvalues --   -1.00498  -0.86125  -0.75303  -0.72616  -0.69917
 Alpha  occ. eigenvalues --   -0.60236  -0.58575  -0.52697  -0.52098  -0.48553
 Alpha  occ. eigenvalues --   -0.47192  -0.46359  -0.42623  -0.41397  -0.40846
 Alpha  occ. eigenvalues --   -0.38087  -0.37141  -0.36670  -0.35671  -0.35481
 Alpha  occ. eigenvalues --   -0.33514  -0.26590  -0.26297  -0.25788
 Alpha virt. eigenvalues --   -0.05838   0.06342   0.07646   0.10363   0.10629
 Alpha virt. eigenvalues --    0.11694   0.14054   0.14839   0.15230   0.16577
 Alpha virt. eigenvalues --    0.17853   0.18424   0.20249   0.21601   0.24149

 Mulliken charges:
               1
     1  O   -0.423480
     2  C   -0.136809
     3  C    0.243956
     4  O   -0.346976
     5  C    0.254693
     6  C   -0.120027
     7  C   -0.257321
     8  C   -0.214922
     9  C   -0.329838
    10  H    0.292235
    11  H    0.112878
    12  H    0.112671
    13  H    0.125366
    14  H    0.121558
    15  H    0.117396
    16  H    0.106399
    17  H    0.113891
    18  H    0.115411
    19  H    0.112918
 Sum of Mulliken charges =   0.00000

 Dipole moment (field-independent basis, Debye):
    X=             -3.8703    Y=             -0.9984    Z=              0.1233  Tot=              3.9989
 Quadrupole moment (field-independent basis, Debye-Ang):
   XX=            -59.4047   YY=            -53.9878   ZZ=            -52.3607
   XY=             -0.2927   XZ=             -0.1922   YZ=              0.1404

  Exact polarizability: 106.902  -4.471  80.975  -0.773  -0.519  54.289
 Approx polarizability: 144.978  -8.758 128.934  -1.834  -1.442  85.402

                      1                      2                      3
                      A                      A                      A
 Frequencies --     57.3866               101.9905               133.1760
 Red. masses --      4.1240                 2.5194                 2.0205
 Frc consts  --      0.0080                 0.0154                 0.0211
 IR Inten    --      0.3262                 2.9377                 1.0677

                      4                      5                      6
                      A                      A                      A
 Frequencies --    152.8642               207.3929               331.6639
 Red. masses --      4.0387                 2.5025                 5.7692
 Frc consts  --      0.0556                 0.0634                 0.3739
 IR Inten    --      0.5342                 1.1934                23.1465

                      7                      8                      9
                      A                      A                      A
 Frequencies --    361.4443               392.0744               469.0653
 Red. masses --      5.1916                 2.0109                 1.3836
 Frc consts  --      0.3996                 0.1821                 0.1794
 IR Inten    --      1.9641                 6.6738                34.1049

                     10                     11                     12
                      A                      A                      A
 Frequencies --    475.4777               572.4986               641.9567
 Red. masses --      3.6045                 2.0320                 1.9645
 Frc consts  --      0.4801                 0.3924                 0.4770
 IR Inten    --     17.4638                29.8542                 0.2801

                     13                     14                     15
                      A                      A                      A
 Frequencies --    770.3365               813.0925               838.7369
 Red. masses --      5.1408                 2.1075                 2.4224
 Frc consts  --      1.7974                 0.8209                 1.0040
 IR Inten    --      2.6342                 1.6117                16.3575

                     16                     17                     18
                      A                      A                      A
 Frequencies --    871.7018               912.4357               915.5043
 Red. masses --      1.7111                 1.9291                 1.7900
 Frc consts  --      0.7660                 0.9463                 0.8839
 IR Inten    --      4.9948                 3.4445                 8.6771

                     19                     20                     21
                      A                      A                      A
 Frequencies --    957.2243              1004.2330              1016.0363
 Red. masses --      2.0106                 3.2625                 2.2132
 Frc consts  --      1.0854                 1.9385                 1.3461
 IR Inten    --     33.3847                48.3574                 1.7782

                     22                     23                     24
                      A                      A                      A
 Frequencies --   1045.1225              1070.3757              1135.5551
 Red. masses --      1.9754                 1.7382                 3.9245
 Frc consts  --      1.2713                 1.1733                 2.9816
 IR Inten    --     10.6472                 7.4010               136.9601

                     25                     26                     27
                      A                      A                      A
 Frequencies --   1154.4494              1200.8020              1231.2714
 Red. masses --      1.2553                 1.6760                 1.2245
 Frc consts  --      0.9857                 1.4238                 1.0937
 IR Inten    --      6.4098                22.1742                 1.2480

                     28                     29                     30
                      A                      A                      A
 Frequencies --   1244.8605              1255.1784              1274.2728
 Red. masses --      1.0884                 1.6814                 1.4357
 Frc consts  --      0.9938                 1.5608                 1.3735
 IR Inten    --      1.9634                 6.2563                 8.5958

                     31                     32                     33
                      A                      A                      A
 Frequencies --   1312.3056              1328.5209              1331.7973
 Red. masses --      1.3859                 1.6308                 1.6687
 Frc consts  --      1.4063                 1.6959                 1.7438
 IR Inten    --     57.6968                12.0173                68.2867

                     34                     35                     36
                      A                      A                      A
 Frequencies --   1359.3971              1454.2713              1474.0809
 Red. masses --      1.8709                 1.3269                 1.0854
 Frc consts  --      2.0370                 1.6534                 1.3896
 IR Inten    --      0.8864                99.8941                 5.2470

                     37                     38                     39
                      A                      A                      A
 Frequencies --   1485.3308              1492.1505              1505.5227
 Red. masses --      1.0898                 1.0908                 1.1005
 Frc consts  --      1.4165                 1.4310                 1.4697
 IR Inten    --      6.9623                20.4986                 0.7216

                     40                     41                     42
                      A                      A                      A
 Frequencies --   1665.7247              1751.5800              2961.4271
 Red. masses --      7.0905                10.7583                 1.0586
 Frc consts  --     11.5914                19.4470                 5.4702
 IR Inten    --    122.2981               100.3003                42.7012

                     43                     44                     45
                      A                      A                      A
 Frequencies --   2975.9718              3006.3727              3014.7122
 Red. masses --      1.0986                 1.0703                 1.0685
 Frc consts  --      5.7327                 5.6994                 5.7214
 IR Inten    --     27.7350                23.5688                28.7013

                     46                     47                     48
                      A                      A                      A
 Frequencies --   3052.1820              3062.9651              3071.3464
 Red. masses --      1.0757                 1.0906                 1.0800
 Frc consts  --      5.9042                 6.0281                 6.0026
 IR Inten    --      7.2047                23.8924                38.2760

                     49                     50                     51
                      A                      A                      A
 Frequencies --   3110.2121              3211.4056              3655.5855
 Red. masses --      1.1033                 1.0934                 1.0642
 Frc consts  --      6.2883                 6.6441                 8.3787
 IR Inten    --     30.3581                 1.6343                76.6638

 - Thermochemistry -
 -------------------
 Temperature   298.150 Kelvin.  Pressure   1.00000 Atm.
 Atom     1 has atomic number  8 and mass  15.99491

 Molecular mass:   126.06808 amu.
 Principal axes and moments of inertia in atomic units:
                           1         2         3
     Eigenvalues --   444.632711947.279362340.48967
           X            1.00000  -0.00223   0.00019
           Y            0.00223   1.00000   0.00204
           Z           -0.00020  -0.00203   1.00000
 This molecule is an asymmetric top.
 Rotational symmetry number  1.
 Warning -- assumption of classical behavior for rotation
           may cause significant error
 Rotational temperatures (Kelvin)      0.19480     0.04448     0.03701
 Rotational constants (GHZ):           4.05895     0.92680     0.77110
 Zero-point vibrational energy     418041.3 (Joules/Mol)
                                   99.91426 (Kcal/Mol)
 Warning -- explicit consideration of  11 degrees of freedom as
           vibrations may cause significant error
 Vibrational temperatures:     82.57   146.74   191.61   219.94   298.39
          (Kelvin)            477.19   520.04   564.11   674.88   684.11
                              823.70   923.63  1108.34  1169.86  1206.75
                             1254.18  1312.79  1317.20  1377.23  1444.87
                             1461.85  1503.70  1540.03  1633.81  1660.99
                             1727.68  1771.52  1791.07  1805.92  1833.39
                             1888.11  1911.44  1916.16  1955.87  2092.37
                             2120.87  2137.06  2146.87  2166.11  2396.60
                             2520.13  4260.83  4281.75  4325.49  4337.49
                             4391.40  4406.92  4418.98  4474.90  4620.49
                             5259.57

 Zero-point correction=                           0.159224 (Hartree/Particle)
 Thermal correction to Energy=                    0.168069
 Thermal correction to Enthalpy=                  0.169013
 Thermal correction to Gibbs Free Energy=         0.124974
 Sum of electronic and zero-point Energies=           -423.061018
 Sum of electronic and thermal Energies=              -423.052173
 Sum of electronic and thermal Enthalpies=            -423.051229
 Sum of electronic and thermal Free Energies=         -423.095268

                     E (Thermal)             CV                S
                      KCal/Mol        Cal/Mol-Kelvin    Cal/Mol-Kelvin
 Total                  105.465             32.450             92.687
 Electronic               0.000              0.000              0.000
 Translational            0.889              2.981             40.409
 Rotational               0.889              2.981             29.095
 Vibrational            103.687             26.489             23.184
 Vibration     1          0.596              1.975              4.545
 Vibration     2          0.604              1.948              3.416
 Vibration     3          0.613              1.920              2.900
 Vibration     4          0.619              1.899              2.636
 Vibration     5          0.641              1.829              2.067
 Vibration     6          0.714              1.612              1.252
 Vibration     7          0.736              1.552              1.116
 Vibration     8          0.760              1.487              0.992
 Vibration     9          0.826              1.319              0.740
 Vibration    10          0.832              1.304              0.722
 Vibration    11          0.929              1.091              0.499

 Optimization completed.
    -- Stationary point found.
 Normal termination of Gaussian 09 at Tue Jan 28 08:52:34 2020.
