 Gaussian 09, Revision D.01,
 Gaussian 09:  ES64L-G09RevD.01 24-Apr-2013

 -----------------------------
 # b3lyp 6-31G(2df,p) opt Freq
 -----------------------------

 -----
 titel
 -----
 Symbolic Z-matrix:
 Charge =  0 Multiplicity = 1

 SCF Done:  E(RB3LYP) =  -423.114177493     A.U. after   13 cycles
 Optimization completed.
    -- Stationary point found.
 Normal termination of Gaussian 09 at Mon Jan 27 17:02:39 2020.

 ----------------------------------------------------------------------
 #N Geom=AllCheck Guess=TCheck SCRF=Check GenChk RB3LYP/6-31G(2df,p) Fr
 eq
 ----------------------------------------------------------------------

 Structure from the checkpoint file:  "/scratch/puck/g09_0d969ded-f244-468d-adbf-3d69e0f4def3/Gau-85688.chk"
 -----
 titel
 -----
 Charge =  0 Multiplicity = 1

                         Standard orientation:
 ---------------------------------------------------------------------
 Center     Atomic      Atomic             Coordinates (Angstroms)
 Number     Number       Type             X           Y           Z
 ---------------------------------------------------------------------
      1          6           0        2.444470   -0.426265   -0.018203
      2          6           0        0.944583   -0.497299   -0.023891
      3          6           0        0.014454   -1.127764    1.072200
      4          6           0       -0.957894   -0.559909   -0.017820
      5          8           0       -2.333393   -0.511557   -0.022880
      6          6           0        0.012723   -1.159089   -1.090883
      7          6           0       -0.057635    0.672221   -0.040143
      8          6           0       -0.117375    2.005681   -0.612377
      9          8           0       -0.086605    1.776766    0.824056
     10          1           0        2.889479   -1.424187    0.050818
     11          1           0        2.820110    0.045544   -0.932696
     12          1           0        2.799328    0.161840    0.834589
     13          1           0        0.059135   -2.217890    1.158220
     14          1           0        0.000760   -0.635576    2.046508
     15          1           0       -2.676406   -1.408234    0.051958
     16          1           0        0.055470   -2.250794   -1.136104
     17          1           0       -0.004570   -0.707221   -2.086073
     18          1           0        0.777604    2.474379   -1.019145
     19          1           0       -1.060882    2.395017   -0.990791
 ---------------------------------------------------------------------

 SCF Done:  E(RB3LYP) =  -423.114177493     A.U. after    1 cycles

 The electronic state is 1-A.
 Alpha  occ. eigenvalues --  -19.15091 -19.14439 -10.24880 -10.23815 -10.22786
 Alpha  occ. eigenvalues --  -10.20853 -10.18831 -10.18662 -10.18136  -1.06757
 Alpha  occ. eigenvalues --   -1.03670  -0.90721  -0.73068  -0.68140  -0.65535
 Alpha  occ. eigenvalues --   -0.63338  -0.60143  -0.52773  -0.50904  -0.47922
 Alpha  occ. eigenvalues --   -0.47722  -0.44001  -0.42122  -0.41916  -0.40325
 Alpha  occ. eigenvalues --   -0.39567  -0.37086  -0.34323  -0.33740  -0.32187
 Alpha  occ. eigenvalues --   -0.30981  -0.28817  -0.26290  -0.24993
 Alpha virt. eigenvalues --    0.07573   0.09588   0.10158   0.12259   0.12953
 Alpha virt. eigenvalues --    0.14144   0.14432   0.14895   0.15600   0.15952
 Alpha virt. eigenvalues --    0.17094   0.17537   0.19861   0.20994   0.22652

 Mulliken charges:
               1
     1  C   -0.513042
     2  C    0.215124
     3  C   -0.336708
     4  C    0.295064
     5  O   -0.469095
     6  C   -0.328391
     7  C    0.484696
     8  C   -0.323432
     9  O   -0.309730
    10  H    0.121986
    11  H    0.120693
    12  H    0.132871
    13  H    0.083169
    14  H    0.114716
    15  H    0.286467
    16  H    0.087900
    17  H    0.095332
    18  H    0.115537
    19  H    0.126843
 Sum of Mulliken charges =   0.00000

 Dipole moment (field-independent basis, Debye):
    X=              0.6424    Y=             -2.0628    Z=             -1.3523  Tot=              2.5489
 Quadrupole moment (field-independent basis, Debye-Ang):
   XX=            -52.5052   YY=            -50.4853   ZZ=            -54.0752
   XY=              3.7566   XZ=             -0.0779   YZ=             -4.0275

  Exact polarizability:  77.655   0.620  82.026   0.162  -4.453  68.688
 Approx polarizability: 106.866   0.522 116.639  -0.022  -3.357 108.668

                      1                      2                      3
                      A                      A                      A
 Frequencies --    170.5723               183.6904               206.5175
 Red. masses --      2.3531                 1.7788                 1.7583
 Frc consts  --      0.0403                 0.0354                 0.0442
 IR Inten    --      0.8264                 0.7090                 6.6234

                      4                      5                      6
                      A                      A                      A
 Frequencies --    218.0834               225.8566               250.0995
 Red. masses --      1.2054                 3.3187                 2.7062
 Frc consts  --      0.0338                 0.0997                 0.0997
 IR Inten    --     69.5748                 3.7604                 4.9268

                      7                      8                      9
                      A                      A                      A
 Frequencies --    284.8041               427.6602               476.5756
 Red. masses --      3.1801                 3.1172                 2.5440
 Frc consts  --      0.1520                 0.3359                 0.3404
 IR Inten    --     23.6014                 5.7153                 1.0335

                     10                     11                     12
                      A                      A                      A
 Frequencies --    504.1868               599.6415               624.2933
 Red. masses --      2.6348                 4.8988                 3.4019
 Frc consts  --      0.3946                 1.0378                 0.7812
 IR Inten    --      5.3452                 5.1582                14.3771

                     13                     14                     15
                      A                      A                      A
 Frequencies --    653.1442               686.1600               749.7620
 Red. masses --      2.8541                 3.0917                 2.3683
 Frc consts  --      0.7173                 0.8576                 0.7844
 IR Inten    --      2.6590                 7.4821                 3.4393

                     16                     17                     18
                      A                      A                      A
 Frequencies --    794.3470               898.5974               942.3442
 Red. masses --      3.0214                 4.4423                 2.6257
 Frc consts  --      1.1232                 2.1134                 1.3738
 IR Inten    --      3.2519                30.6700                 4.3717

                     19                     20                     21
                      A                      A                      A
 Frequencies --    958.6547               977.2077              1034.1194
 Red. masses --      1.9926                 1.7036                 1.4164
 Frc consts  --      1.0789                 0.9585                 0.8925
 IR Inten    --      7.6068                15.1778                23.5521

                     22                     23                     24
                      A                      A                      A
 Frequencies --   1041.4981              1056.7736              1065.7592
 Red. masses --      1.4279                 2.1343                 1.9259
 Frc consts  --      0.9126                 1.4044                 1.2888
 IR Inten    --      4.3484                20.8206                17.6122

                     25                     26                     27
                      A                      A                      A
 Frequencies --   1109.6156              1119.9455              1123.1902
 Red. masses --      1.2575                 1.4053                 1.5481
 Frc consts  --      0.9122                 1.0385                 1.1507
 IR Inten    --      0.1245                12.9857                 0.7028

                     28                     29                     30
                      A                      A                      A
 Frequencies --   1133.4348              1167.1931              1181.0087
 Red. masses --      1.5834                 1.4968                 2.1638
 Frc consts  --      1.1985                 1.2014                 1.7782
 IR Inten    --      2.1519                 2.8562                 2.0110

                     31                     32                     33
                      A                      A                      A
 Frequencies --   1196.8351              1288.7543              1351.9002
 Red. masses --      1.8737                 2.2355                 2.3152
 Frc consts  --      1.5813                 2.1876                 2.4930
 IR Inten    --     14.7837               219.4719                 2.6999

                     34                     35                     36
                      A                      A                      A
 Frequencies --   1364.9315              1414.9048              1466.6983
 Red. masses --      3.0350                 1.4805                 1.3933
 Frc consts  --      3.3314                 1.7463                 1.7660
 IR Inten    --     45.1448                 0.6891                 6.2308

                     37                     38                     39
                      A                      A                      A
 Frequencies --   1486.3371              1490.4341              1493.2763
 Red. masses --      1.0961                 1.0480                 1.0589
 Frc consts  --      1.4268                 1.3716                 1.3911
 IR Inten    --      0.0166                 4.9873                 6.0415

                     40                     41                     42
                      A                      A                      A
 Frequencies --   1525.1897              1586.5813              3030.4806
 Red. masses --      1.2701                 2.8503                 1.0352
 Frc consts  --      1.7407                 4.2274                 5.6013
 IR Inten    --      5.1079                34.6091                27.8823

                     43                     44                     45
                      A                      A                      A
 Frequencies --   3048.8974              3053.4487              3085.9603
 Red. masses --      1.0549                 1.0550                 1.0511
 Frc consts  --      5.7776                 5.7954                 5.8978
 IR Inten    --     40.1052                34.8271                19.2493

                     46                     47                     48
                      A                      A                      A
 Frequencies --   3096.4731              3101.4730              3120.5722
 Red. masses --      1.1007                 1.1012                 1.1116
 Frc consts  --      6.2178                 6.2410                 6.3778
 IR Inten    --     19.2306                14.4076                30.7656

                     49                     50                     51
                      A                      A                      A
 Frequencies --   3130.6578              3173.2144              3814.3232
 Red. masses --      1.1091                 1.1188                 1.0658
 Frc consts  --      6.4046                 6.6373                 9.1364
 IR Inten    --     25.3994                17.0312                32.1225

 - Thermochemistry -
 -------------------
 Temperature   298.150 Kelvin.  Pressure   1.00000 Atm.
 Atom     1 has atomic number  6 and mass  12.00000

 Molecular mass:   126.06808 amu.
 Principal axes and moments of inertia in atomic units:
                           1         2         3
     Eigenvalues --   835.19866 971.489721391.43962
           X            0.99979  -0.02057  -0.00044
           Y            0.02053   0.99899  -0.03985
           Z            0.00126   0.03983   0.99921
 This molecule is an asymmetric top.
 Rotational symmetry number  1.
 Warning -- assumption of classical behavior for rotation
           may cause significant error
 Rotational temperatures (Kelvin)      0.10370     0.08916     0.06225
 Rotational constants (GHZ):           2.16085     1.85770     1.29703
 Zero-point vibrational energy     413824.7 (Joules/Mol)
                                   98.90647 (Kcal/Mol)
 Warning -- explicit consideration of  11 degrees of freedom as
           vibrations may cause significant error
 Vibrational temperatures:    245.42   264.29   297.13   313.77   324.96
          (Kelvin)            359.84   409.77   615.31   685.69   725.41
                              862.75   898.22   939.73   987.23  1078.74
                             1142.89  1292.88  1355.82  1379.29  1405.98
                             1487.87  1498.48  1520.46  1533.39  1596.49
                             1611.35  1616.02  1630.76  1679.33  1699.21
                             1721.98  1854.23  1945.08  1963.83  2035.73
                             2110.25  2138.50  2144.40  2148.49  2194.41
                             2282.73  4360.18  4386.68  4393.23  4440.00
                             4455.13  4462.32  4489.80  4504.31  4565.54
                             5487.95

 Zero-point correction=                           0.157617 (Hartree/Particle)
 Thermal correction to Energy=                    0.166171
 Thermal correction to Enthalpy=                  0.167116
 Thermal correction to Gibbs Free Energy=         0.125122
 Sum of electronic and zero-point Energies=           -422.956560
 Sum of electronic and thermal Energies=              -422.948006
 Sum of electronic and thermal Enthalpies=            -422.947062
 Sum of electronic and thermal Free Energies=         -422.989055

                     E (Thermal)             CV                S
                      KCal/Mol        Cal/Mol-Kelvin    Cal/Mol-Kelvin
 Total                  104.274             33.473             88.383
 Electronic               0.000              0.000              0.000
 Translational            0.889              2.981             40.409
 Rotational               0.889              2.981             28.514
 Vibrational            102.497             27.511             19.460
 Vibration     1          0.626              1.879              2.429
 Vibration     2          0.631              1.862              2.291
 Vibration     3          0.641              1.831              2.074
 Vibration     4          0.646              1.814              1.975
 Vibration     5          0.650              1.802              1.912
 Vibration     6          0.663              1.763              1.730
 Vibration     7          0.683              1.702              1.505
 Vibration     8          0.789              1.410              0.866
 Vibration     9          0.833              1.302              0.719
 Vibration    10          0.859              1.241              0.648
 Vibration    11          0.958              1.033              0.450

 Normal termination of Gaussian 09 at Mon Jan 27 17:49:53 2020.
