 Gaussian 09, Revision D.01,
 Gaussian 09:  ES64L-G09RevD.01 24-Apr-2013

 -----------------------------
 # b3lyp 6-31G(2df,p) opt Freq
 -----------------------------

 -----
 titel
 -----
 Symbolic Z-matrix:
 Charge =  0 Multiplicity = 1

 SCF Done:  E(RB3LYP) =  -423.232633249     A.U. after   14 cycles
 Optimization completed.
    -- Stationary point found.
 Normal termination of Gaussian 09 at Mon Jan 27 13:00:24 2020.

 ----------------------------------------------------------------------
 #N Geom=AllCheck Guess=TCheck SCRF=Check GenChk RB3LYP/6-31G(2df,p) Fr
 eq
 ----------------------------------------------------------------------

 Structure from the checkpoint file:  "/scratch/puck/g09_82b2d23d-c3af-4ce8-815f-bce7d366241a/Gau-154835.chk"
 -----
 titel
 -----
 Charge =  0 Multiplicity = 1

                         Standard orientation:
 ---------------------------------------------------------------------
 Center     Atomic      Atomic             Coordinates (Angstroms)
 Number     Number       Type             X           Y           Z
 ---------------------------------------------------------------------
      1          8           0       -2.381628    0.423909   -0.587493
      2          6           0       -1.364407   -0.034709   -0.141193
      3          6           0       -0.680122   -1.352942   -0.525477
      4          6           0        0.654289   -1.254746    0.236429
      5          6           0        1.748994   -0.479401   -0.511397
      6          6           0        1.262859    0.932944   -0.897698
      7          6           0        0.503355    1.608815    0.262935
      8          6           0       -0.453117    0.598624    0.923267
      9          8           0        0.295429   -0.510097    1.417710
     10          1           0       -1.282129   -2.186761   -0.149545
     11          1           0       -0.602394   -1.453234   -1.610761
     12          1           0        1.022804   -2.225861    0.573240
     13          1           0        2.613720   -0.407990    0.157899
     14          1           0        2.071232   -1.033803   -1.400332
     15          1           0        2.108778    1.551887   -1.212071
     16          1           0        0.599200    0.865720   -1.768860
     17          1           0        1.203253    1.946970    1.035158
     18          1           0       -0.053685    2.481962   -0.091991
     19          1           0       -1.022290    1.039093    1.744335
 ---------------------------------------------------------------------

 SCF Done:  E(RB3LYP) =  -423.232633249     A.U. after    1 cycles

 The electronic state is 1-A.
 Alpha  occ. eigenvalues --  -19.14450 -19.13608 -10.27029 -10.24094 -10.23576
 Alpha  occ. eigenvalues --  -10.19427 -10.19252 -10.19131 -10.18922  -1.05555
 Alpha  occ. eigenvalues --   -1.03758  -0.80927  -0.78055  -0.75072  -0.64983
 Alpha  occ. eigenvalues --   -0.63563  -0.57449  -0.53598  -0.50977  -0.47368
 Alpha  occ. eigenvalues --   -0.45895  -0.44650  -0.42209  -0.41964  -0.41855
 Alpha  occ. eigenvalues --   -0.40623  -0.38174  -0.37414  -0.34790  -0.34022
 Alpha  occ. eigenvalues --   -0.33391  -0.32658  -0.26555  -0.23345
 Alpha virt. eigenvalues --   -0.02034   0.07723   0.11058   0.11672   0.12757
 Alpha virt. eigenvalues --    0.13643   0.14191   0.15638   0.15693   0.16878
 Alpha virt. eigenvalues --    0.17972   0.18046   0.19751   0.20288   0.22623

 Mulliken charges:
               1
     1  O   -0.320084
     2  C    0.406115
     3  C   -0.345860
     4  C    0.080855
     5  C   -0.200875
     6  C   -0.226491
     7  C   -0.207957
     8  C   -0.019661
     9  O   -0.267707
    10  H    0.138577
    11  H    0.130235
    12  H    0.084978
    13  H    0.108348
    14  H    0.097557
    15  H    0.103256
    16  H    0.114171
    17  H    0.109746
    18  H    0.114308
    19  H    0.100488
 Sum of Mulliken charges =   0.00000

 Dipole moment (field-independent basis, Debye):
    X=              2.2443    Y=             -0.5926    Z=             -0.5274  Tot=              2.3804
 Quadrupole moment (field-independent basis, Debye-Ang):
   XX=            -59.0054   YY=            -49.7133   ZZ=            -54.9003
   XY=              2.1184   XZ=             -3.6249   YZ=              2.2412

  Exact polarizability:  77.687  -1.934  76.446   0.306   2.679  65.879
 Approx polarizability: 112.835  -7.163 108.634   5.521   1.360 103.535

                      1                      2                      3
                      A                      A                      A
 Frequencies --    105.3521               223.5147               259.7473
 Red. masses --      4.5992                 2.5573                 2.0338
 Frc consts  --      0.0301                 0.0753                 0.0808
 IR Inten    --      4.7406                 0.3310                 1.8567

                      4                      5                      6
                      A                      A                      A
 Frequencies --    342.1241               422.9462               446.7818
 Red. masses --      1.9532                 4.6319                 4.5814
 Frc consts  --      0.1347                 0.4882                 0.5388
 IR Inten    --      0.7574                 5.9513                 3.3296

                      7                      8                      9
                      A                      A                      A
 Frequencies --    469.7988               515.8022               607.6738
 Red. masses --      3.8113                 2.1105                 2.6554
 Frc consts  --      0.4956                 0.3308                 0.5777
 IR Inten    --      7.0868                 5.9386                 0.5416

                     10                     11                     12
                      A                      A                      A
 Frequencies --    647.6801               737.8691               794.0513
 Red. masses --      4.2179                 3.0894                 2.7705
 Frc consts  --      1.0425                 0.9910                 1.0292
 IR Inten    --      0.6209                14.1025                 0.8734

                     13                     14                     15
                      A                      A                      A
 Frequencies --    809.4591               837.9440               876.2817
 Red. masses --      3.4339                 2.3433                 2.0168
 Frc consts  --      1.3256                 0.9694                 0.9125
 IR Inten    --      1.0776                 1.3029                 1.8809

                     16                     17                     18
                      A                      A                      A
 Frequencies --    888.0170               939.0767               953.6413
 Red. masses --      2.6930                 2.0536                 2.1731
 Frc consts  --      1.2512                 1.0670                 1.1644
 IR Inten    --     18.7906                 4.5207                 4.5770

                     19                     20                     21
                      A                      A                      A
 Frequencies --    966.5606              1011.5265              1048.3208
 Red. masses --      2.0880                 2.2467                 2.4923
 Frc consts  --      1.1493                 1.3544                 1.6138
 IR Inten    --      5.7177                 4.2242                57.6973

                     22                     23                     24
                      A                      A                      A
 Frequencies --   1068.7098              1091.9124              1143.9918
 Red. masses --      1.7378                 2.1672                 1.8970
 Frc consts  --      1.1694                 1.5224                 1.4627
 IR Inten    --      2.2225                13.5343                17.1743

                     25                     26                     27
                      A                      A                      A
 Frequencies --   1165.1917              1178.3081              1205.7561
 Red. masses --      1.4390                 1.5582                 1.5843
 Frc consts  --      1.1511                 1.2746                 1.3571
 IR Inten    --      2.3065                25.8484                11.5315

                     28                     29                     30
                      A                      A                      A
 Frequencies --   1248.4104              1269.9078              1288.4925
 Red. masses --      1.6657                 1.3372                 1.4832
 Frc consts  --      1.5295                 1.2705                 1.4509
 IR Inten    --      6.2291                 2.9664                 3.4085

                     31                     32                     33
                      A                      A                      A
 Frequencies --   1311.2526              1342.4983              1358.3972
 Red. masses --      1.2912                 1.4419                 1.3875
 Frc consts  --      1.3080                 1.5311                 1.5085
 IR Inten    --      2.6729                 6.6275                 2.9279

                     34                     35                     36
                      A                      A                      A
 Frequencies --   1369.2200              1380.5749              1390.6976
 Red. masses --      1.4767                 1.4044                 1.3848
 Frc consts  --      1.6312                 1.5771                 1.5780
 IR Inten    --      4.7758                 1.8514                 2.8328

                     37                     38                     39
                      A                      A                      A
 Frequencies --   1444.7146              1469.1599              1481.1958
 Red. masses --      1.1010                 1.0895                 1.0849
 Frc consts  --      1.3539                 1.3855                 1.4023
 IR Inten    --     10.5009                 3.9476                 2.1977

                     40                     41                     42
                      A                      A                      A
 Frequencies --   1503.1376              1859.0005              3031.1821
 Red. masses --      1.0908                12.6587                 1.0666
 Frc consts  --      1.4521                25.7749                 5.7738
 IR Inten    --      4.6332               199.5032                15.1877

                     43                     44                     45
                      A                      A                      A
 Frequencies --   3035.1788              3040.0024              3058.6682
 Red. masses --      1.0612                 1.0600                 1.0626
 Frc consts  --      5.7598                 5.7719                 5.8574
 IR Inten    --     22.4367                20.2785                 6.2725

                     46                     47                     48
                      A                      A                      A
 Frequencies --   3072.7141              3081.9334              3091.2318
 Red. masses --      1.0962                 1.1020                 1.0874
 Frc consts  --      6.0978                 6.1671                 6.1221
 IR Inten    --     26.9693                31.1768                36.9977

                     49                     50                     51
                      A                      A                      A
 Frequencies --   3092.5266              3100.3731              3114.0119
 Red. masses --      1.1047                 1.0883                 1.1015
 Frc consts  --      6.2247                 6.1637                 6.2931
 IR Inten    --     36.9111                17.0107                 8.0801

 - Thermochemistry -
 -------------------
 Temperature   298.150 Kelvin.  Pressure   1.00000 Atm.
 Atom     1 has atomic number  8 and mass  15.99491

 Molecular mass:   126.06808 amu.
 Principal axes and moments of inertia in atomic units:
                           1         2         3
     Eigenvalues --   725.269391025.640991186.01867
           X            0.99847   0.04091  -0.03709
           Y           -0.03854   0.99731   0.06237
           Z            0.03954  -0.06085   0.99736
 This molecule is an asymmetric top.
 Rotational symmetry number  1.
 Warning -- assumption of classical behavior for rotation
           may cause significant error
 Rotational temperatures (Kelvin)      0.11942     0.08445     0.07303
 Rotational constants (GHZ):           2.48837     1.75962     1.52168
 Zero-point vibrational energy     425825.8 (Joules/Mol)
                                  101.77482 (Kcal/Mol)
 Warning -- explicit consideration of   9 degrees of freedom as
           vibrations may cause significant error
 Vibrational temperatures:    151.58   321.59   373.72   492.24   608.52
          (Kelvin)            642.82   675.93   742.12   874.31   931.87
                             1061.63  1142.46  1164.63  1205.61  1260.77
                             1277.66  1351.12  1372.08  1390.66  1455.36
                             1508.30  1537.63  1571.02  1645.95  1676.45
                             1695.32  1734.81  1796.18  1827.11  1853.85
                             1886.60  1931.55  1954.43  1970.00  1986.34
                             2000.90  2078.62  2113.79  2131.11  2162.68
                             2674.68  4361.19  4366.94  4373.88  4400.74
                             4420.94  4434.21  4447.59  4449.45  4460.74
                             4480.36

 Zero-point correction=                           0.162188 (Hartree/Particle)
 Thermal correction to Energy=                    0.169298
 Thermal correction to Enthalpy=                  0.170242
 Thermal correction to Gibbs Free Energy=         0.130834
 Sum of electronic and zero-point Energies=           -423.070445
 Sum of electronic and thermal Energies=              -423.063335
 Sum of electronic and thermal Enthalpies=            -423.062391
 Sum of electronic and thermal Free Energies=         -423.101799

                     E (Thermal)             CV                S
                      KCal/Mol        Cal/Mol-Kelvin    Cal/Mol-Kelvin
 Total                  106.236             29.063             82.942
 Electronic               0.000              0.000              0.000
 Translational            0.889              2.981             40.409
 Rotational               0.889              2.981             28.269
 Vibrational            104.459             23.102             14.264
 Vibration     1          0.605              1.945              3.353
 Vibration     2          0.649              1.805              1.930
 Vibration     3          0.668              1.746              1.663
 Vibration     4          0.721              1.591              1.202
 Vibration     5          0.785              1.420              0.882
 Vibration     6          0.806              1.368              0.806
 Vibration     7          0.827              1.317              0.738
 Vibration     8          0.871              1.215              0.620
 Vibration     9          0.966              1.016              0.437

 Optimization completed.
    -- Stationary point found.
 Normal termination of Gaussian 09 at Mon Jan 27 13:46:33 2020.
