 Gaussian 09, Revision D.01,
 Gaussian 09:  ES64L-G09RevD.01 24-Apr-2013

 -----------------------------
 # b3lyp 6-31G(2df,p) opt Freq
 -----------------------------

 -----
 titel
 -----
 Symbolic Z-matrix:
 Charge =  0 Multiplicity = 1

 SCF Done:  E(RB3LYP) =  -423.096803353     A.U. after   14 cycles
 Optimization completed.
    -- Stationary point found.
 Normal termination of Gaussian 09 at Tue Jan 28 13:28:10 2020.

 ----------------------------------------------------------------------
 #N Geom=AllCheck Guess=TCheck SCRF=Check GenChk RB3LYP/6-31G(2df,p) Fr
 eq
 ----------------------------------------------------------------------

 Structure from the checkpoint file:  "/scratch/puck/g09_2f7c6294-57c6-40e1-81aa-722ae6b4f01e/Gau-109084.chk"
 -----
 titel
 -----
 Charge =  0 Multiplicity = 1

                         Standard orientation:
 ---------------------------------------------------------------------
 Center     Atomic      Atomic             Coordinates (Angstroms)
 Number     Number       Type             X           Y           Z
 ---------------------------------------------------------------------
      1          6           0        3.520574   -0.757047   -0.322601
      2          8           0        2.292344   -0.719258    0.378610
      3          6           0        1.297595   -0.029767   -0.303159
      4          6           0        1.246678    1.487412   -0.240822
      5          6           0        0.256250    0.659318    0.525289
      6          8           0       -1.063727    0.692475    0.082476
      7          6           0       -1.783026   -0.478736    0.448792
      8          6           0       -3.144772   -0.401078   -0.060922
      9          6           0       -4.272951   -0.362718   -0.470132
     10          1           0        3.910207    0.253034   -0.512931
     11          1           0        4.230240   -1.304871    0.301572
     12          1           0        3.419486   -1.276277   -1.287482
     13          1           0        0.965326   -0.486769   -1.237068
     14          1           0        2.010102    1.999434    0.333910
     15          1           0        0.881227    2.014618   -1.114673
     16          1           0        0.385479    0.594805    1.606814
     17          1           0       -1.282031   -1.374797    0.050231
     18          1           0       -1.801041   -0.586664    1.545731
     19          1           0       -5.270012   -0.322545   -0.833460
 ---------------------------------------------------------------------

 SCF Done:  E(RB3LYP) =  -423.096803353     A.U. after    1 cycles

 The electronic state is 1-A.
 Alpha  occ. eigenvalues --  -19.15279 -19.14867 -10.25543 -10.23721 -10.23533
 Alpha  occ. eigenvalues --  -10.22705 -10.18676 -10.18420 -10.17776  -1.05216
 Alpha  occ. eigenvalues --   -1.03949  -0.84869  -0.76873  -0.70071  -0.68791
 Alpha  occ. eigenvalues --   -0.59844  -0.59040  -0.53566  -0.52746  -0.50833
 Alpha  occ. eigenvalues --   -0.47644  -0.46914  -0.45763  -0.44353  -0.42494
 Alpha  occ. eigenvalues --   -0.39943  -0.36700  -0.35166  -0.31642  -0.30540
 Alpha  occ. eigenvalues --   -0.27812  -0.26927  -0.25805  -0.24439
 Alpha virt. eigenvalues --    0.03293   0.05460   0.09123   0.10718   0.11081
 Alpha virt. eigenvalues --    0.12480   0.13074   0.14218   0.14389   0.16230
 Alpha virt. eigenvalues --    0.16758   0.17887   0.19081   0.19675   0.20151

 Mulliken charges:
               1
     1  C   -0.230898
     2  O   -0.238198
     3  C    0.086738
     4  C   -0.348860
     5  C    0.089506
     6  O   -0.248533
     7  C   -0.212422
     8  C    0.282754
     9  C   -0.419364
    10  H    0.110529
    11  H    0.128072
    12  H    0.107820
    13  H    0.093235
    14  H    0.121543
    15  H    0.128955
    16  H    0.097917
    17  H    0.126988
    18  H    0.123462
    19  H    0.200757
 Sum of Mulliken charges =   0.00000

 Dipole moment (field-independent basis, Debye):
    X=              1.0880    Y=             -0.4268    Z=             -0.3814  Tot=              1.2294
 Quadrupole moment (field-independent basis, Debye-Ang):
   XX=            -45.5547   YY=            -54.4455   ZZ=            -52.1780
   XY=              2.2457   XZ=             -0.8242   YZ=              0.7523

  Exact polarizability: 112.914   0.543  64.820   6.134  -0.353  62.499
 Approx polarizability: 142.418  -0.767  94.459  13.825  -2.104  95.357

                      1                      2                      3
                      A                      A                      A
 Frequencies --     41.5999                77.6848               106.1012
 Red. masses --      3.5812                 2.9872                 2.9203
 Frc consts  --      0.0037                 0.0106                 0.0194
 IR Inten    --      0.1552                 2.0552                 1.8061

                      4                      5                      6
                      A                      A                      A
 Frequencies --    124.1403               181.6528               195.3543
 Red. masses --      3.2307                 2.6816                 1.3927
 Frc consts  --      0.0293                 0.0521                 0.0313
 IR Inten    --      1.9725                 0.7085                 0.4725

                      7                      8                      9
                      A                      A                      A
 Frequencies --    232.6273               330.8143               374.5206
 Red. masses --      3.1614                 3.3601                 3.6685
 Frc consts  --      0.1008                 0.2167                 0.3032
 IR Inten    --      5.4450                 3.3032                 5.4496

                     10                     11                     12
                      A                      A                      A
 Frequencies --    394.0312               423.8415               487.2371
 Red. masses --      3.4973                 4.4156                 2.3158
 Frc consts  --      0.3199                 0.4674                 0.3239
 IR Inten    --      6.2732                 0.1846                 2.3487

                     13                     14                     15
                      A                      A                      A
 Frequencies --    554.6484               608.5826               676.1481
 Red. masses --      4.3136                 1.1936                 1.2433
 Frc consts  --      0.7819                 0.2605                 0.3349
 IR Inten    --      0.7023                43.9642                34.4184

                     16                     17                     18
                      A                      A                      A
 Frequencies --    807.6334               859.0809               947.0544
 Red. masses --      2.0142                 1.7490                 3.3470
 Frc consts  --      0.7741                 0.7605                 1.7687
 IR Inten    --      7.8386                 0.4336                 6.8691

                     19                     20                     21
                      A                      A                      A
 Frequencies --    955.3187              1003.1004              1013.4109
 Red. masses --      3.4242                 2.3241                 2.6760
 Frc consts  --      1.8412                 1.3778                 1.6192
 IR Inten    --     18.3438                38.3448                10.2419

                     22                     23                     24
                      A                      A                      A
 Frequencies --   1032.1020              1052.9986              1070.0538
 Red. masses --      1.7107                 1.8557                 4.1732
 Frc consts  --      1.0737                 1.2123                 2.8153
 IR Inten    --      4.5606                12.9620                44.8067

                     25                     26                     27
                      A                      A                      A
 Frequencies --   1101.4034              1122.0475              1170.5620
 Red. masses --      1.2954                 1.7469                 2.0663
 Frc consts  --      0.9259                 1.2958                 1.6682
 IR Inten    --      2.8323                97.9556                14.9371

                     28                     29                     30
                      A                      A                      A
 Frequencies --   1183.9104              1198.4969              1231.9017
 Red. masses --      1.3315                 2.8909                 1.6752
 Frc consts  --      1.0996                 2.4465                 1.4979
 IR Inten    --      2.2282               190.2412                10.6903

                     31                     32                     33
                      A                      A                      A
 Frequencies --   1242.8906              1251.5161              1329.0538
 Red. masses --      2.0345                 1.0933                 1.2053
 Frc consts  --      1.8517                 1.0090                 1.2544
 IR Inten    --     78.8581                 5.9209                76.1321

                     34                     35                     36
                      A                      A                      A
 Frequencies --   1390.1820              1425.7101              1470.6316
 Red. masses --      1.3877                 1.2574                 1.2643
 Frc consts  --      1.5801                 1.5059                 1.6110
 IR Inten    --     35.0174                13.8543                 9.4972

                     37                     38                     39
                      A                      A                      A
 Frequencies --   1485.9042              1493.3522              1502.1709
 Red. masses --      1.0564                 1.3102                 1.1614
 Frc consts  --      1.3743                 1.7216                 1.5441
 IR Inten    --      3.3882                 7.8164                11.4183

                     40                     41                     42
                      A                      A                      A
 Frequencies --   1508.8830              2248.5840              2970.0606
 Red. masses --      1.1420                 5.8961                 1.0576
 Frc consts  --      1.5319                17.5645                 5.4969
 IR Inten    --      4.4529                 1.6736                31.0221

                     43                     44                     45
                      A                      A                      A
 Frequencies --   2985.1524              2996.1153              3037.3526
 Red. masses --      1.0363                 1.1003                 1.1025
 Frc consts  --      5.4409                 5.8195                 5.9928
 IR Inten    --     60.0590                25.0603                49.9355

                     46                     47                     48
                      A                      A                      A
 Frequencies --   3089.1175              3096.2399              3119.8323
 Red. masses --      1.0880                 1.0859                 1.0978
 Frc consts  --      6.1171                 6.1334                 6.2958
 IR Inten    --     13.3347                34.8604                29.8927

                     49                     50                     51
                      A                      A                      A
 Frequencies --   3141.3848              3235.9774              3506.2391
 Red. masses --      1.0545                 1.1175                 1.1639
 Frc consts  --      6.1309                 6.8945                 8.4303
 IR Inten    --      4.0118                 3.9771                63.4719

 - Thermochemistry -
 -------------------
 Temperature   298.150 Kelvin.  Pressure   1.00000 Atm.
 Atom     1 has atomic number  6 and mass  12.00000

 Molecular mass:   126.06808 amu.
 Principal axes and moments of inertia in atomic units:
                           1         2         3
     Eigenvalues --   356.499382766.192982947.85246
           X            0.99998   0.00172  -0.00619
           Y           -0.00168   0.99997   0.00759
           Z            0.00621  -0.00758   0.99995
 This molecule is an asymmetric top.
 Rotational symmetry number  1.
 Rotational temperatures (Kelvin)      0.24296     0.03131     0.02938
 Rotational constants (GHZ):           5.06240     0.65243     0.61222
 Zero-point vibrational energy     407235.2 (Joules/Mol)
                                   97.33155 (Kcal/Mol)
 Warning -- explicit consideration of  14 degrees of freedom as
           vibrations may cause significant error
 Vibrational temperatures:     59.85   111.77   152.66   178.61   261.36
          (Kelvin)            281.07   334.70   475.97   538.85   566.92
                              609.81   701.02   798.01   875.61   972.83
                             1162.00  1236.02  1362.60  1374.49  1443.24
                             1458.07  1484.96  1515.03  1539.57  1584.67
                             1614.37  1684.18  1703.38  1724.37  1772.43
                             1788.24  1800.65  1912.21  2000.16  2051.28
                             2115.91  2137.88  2148.60  2161.29  2170.94
                             3235.21  4273.25  4294.96  4310.74  4370.07
                             4444.55  4454.79  4488.74  4519.75  4655.84
                             5044.69

 Zero-point correction=                           0.155108 (Hartree/Particle)
 Thermal correction to Energy=                    0.165255
 Thermal correction to Enthalpy=                  0.166199
 Thermal correction to Gibbs Free Energy=         0.118986
 Sum of electronic and zero-point Energies=           -422.941696
 Sum of electronic and thermal Energies=              -422.931548
 Sum of electronic and thermal Enthalpies=            -422.930604
 Sum of electronic and thermal Free Energies=         -422.977817

                     E (Thermal)             CV                S
                      KCal/Mol        Cal/Mol-Kelvin    Cal/Mol-Kelvin
 Total                  103.699             35.848             99.369
 Electronic               0.000              0.000              0.000
 Translational            0.889              2.981             40.409
 Rotational               0.889              2.981             29.454
 Vibrational            101.922             29.886             29.506
 Vibration     1          0.594              1.981              5.181
 Vibration     2          0.599              1.964              3.949
 Vibration     3          0.605              1.944              3.339
 Vibration     4          0.610              1.929              3.035
 Vibration     5          0.630              1.865              2.311
 Vibration     6          0.636              1.846              2.176
 Vibration     7          0.653              1.791              1.859
 Vibration     8          0.713              1.614              1.256
 Vibration     9          0.746              1.524              1.061
 Vibration    10          0.761              1.483              0.985
 Vibration    11          0.786              1.418              0.879
 Vibration    12          0.843              1.278              0.691
 Vibration    13          0.910              1.130              0.535
 Vibration    14          0.967              1.014              0.435

 Normal termination of Gaussian 09 at Tue Jan 28 14:01:27 2020.
