 Gaussian 09, Revision D.01,
 Gaussian 09:  ES64L-G09RevD.01 24-Apr-2013

 -----------------------------
 # b3lyp 6-31G(2df,p) opt Freq
 -----------------------------

 -----
 titel
 -----
 Symbolic Z-matrix:
 Charge =  0 Multiplicity = 1

 SCF Done:  E(RB3LYP) =  -423.206836363     A.U. after   14 cycles
 Optimization completed.
    -- Stationary point found.
 Normal termination of Gaussian 09 at Tue Jan 28 03:55:54 2020.

 ----------------------------------------------------------------------
 #N Geom=AllCheck Guess=TCheck SCRF=Check GenChk RB3LYP/6-31G(2df,p) Fr
 eq
 ----------------------------------------------------------------------

 Structure from the checkpoint file:  "/scratch/puck/g09_1c8a7522-cc79-42bf-8bf6-f9f8a26c8855/Gau-43584.chk"
 -----
 titel
 -----
 Charge =  0 Multiplicity = 1

                         Standard orientation:
 ---------------------------------------------------------------------
 Center     Atomic      Atomic             Coordinates (Angstroms)
 Number     Number       Type             X           Y           Z
 ---------------------------------------------------------------------
      1          8           0        1.375897   -1.607129   -0.671778
      2          6           0        0.226403   -1.136901    0.032004
      3          6           0        0.727867   -0.453173    1.308328
      4          6           0        1.164752    0.971930    1.098895
      5          6           0        0.964405    1.656140   -0.026444
      6          6           0        0.277031    1.066531   -1.230096
      7          6           0       -0.574820   -0.157279   -0.845002
      8          6           0       -1.882654    0.264396   -0.198528
      9          8           0       -2.368891   -0.238318    0.782684
     10          1           0        1.073472   -2.124153   -1.425472
     11          1           0       -0.418441   -1.979070    0.313644
     12          1           0       -0.065093   -0.488815    2.064875
     13          1           0        1.559791   -1.050166    1.699839
     14          1           0        1.665276    1.450910    1.937086
     15          1           0        1.322135    2.678745   -0.112957
     16          1           0       -0.351416    1.820194   -1.721820
     17          1           0        1.023359    0.760262   -1.973484
     18          1           0       -0.878657   -0.669303   -1.774094
     19          1           0       -2.404376    1.095102   -0.729806
 ---------------------------------------------------------------------

 SCF Done:  E(RB3LYP) =  -423.206836363     A.U. after    1 cycles

 The electronic state is 1-A.
 Alpha  occ. eigenvalues --  -19.14468 -19.13827 -10.27468 -10.23490 -10.20109
 Alpha  occ. eigenvalues --  -10.19413 -10.18052 -10.18008 -10.17937  -1.05147
 Alpha  occ. eigenvalues --   -1.02023  -0.83516  -0.76149  -0.73969  -0.64844
 Alpha  occ. eigenvalues --   -0.61852  -0.57187  -0.52929  -0.50616  -0.48242
 Alpha  occ. eigenvalues --   -0.46499  -0.45518  -0.42675  -0.41119  -0.40284
 Alpha  occ. eigenvalues --   -0.39615  -0.38815  -0.37001  -0.35424  -0.33534
 Alpha  occ. eigenvalues --   -0.30764  -0.27707  -0.24994  -0.24280
 Alpha virt. eigenvalues --   -0.02530   0.02654   0.06748   0.09936   0.12072
 Alpha virt. eigenvalues --    0.12575   0.14489   0.15733   0.15797   0.17530
 Alpha virt. eigenvalues --    0.18123   0.19119   0.20536   0.21696   0.22617

 Mulliken charges:
               1
     1  O   -0.441413
     2  C    0.118085
     3  C   -0.259752
     4  C   -0.032676
     5  C   -0.053570
     6  C   -0.263150
     7  C   -0.148508
     8  C    0.163230
     9  O   -0.251762
    10  H    0.278854
    11  H    0.080757
    12  H    0.132493
    13  H    0.117536
    14  H    0.086769
    15  H    0.085539
    16  H    0.099721
    17  H    0.122177
    18  H    0.085724
    19  H    0.079946
 Sum of Mulliken charges =   0.00000

 Dipole moment (field-independent basis, Debye):
    X=              0.1943    Y=              0.2007    Z=             -2.1944  Tot=              2.2121
 Quadrupole moment (field-independent basis, Debye-Ang):
   XX=            -60.7862   YY=            -50.0163   ZZ=            -49.5797
   XY=              0.3951   XZ=              4.9493   YZ=              1.9344

  Exact polarizability:  70.788   0.993  76.049   3.168  -6.497  80.757
 Approx polarizability: 101.448   1.366 110.358  -0.302 -16.770 131.770

                      1                      2                      3
                      A                      A                      A
 Frequencies --     81.8800               124.0061               143.4060
 Red. masses --      4.9948                 2.5314                 3.1764
 Frc consts  --      0.0197                 0.0229                 0.0385
 IR Inten    --      5.5157                 2.9976                 0.3249

                      4                      5                      6
                      A                      A                      A
 Frequencies --    195.2505               280.4797               284.6552
 Red. masses --      5.0334                 2.3742                 1.2234
 Frc consts  --      0.1131                 0.1100                 0.0584
 IR Inten    --      7.0087                28.2174                70.3914

                      7                      8                      9
                      A                      A                      A
 Frequencies --    378.6722               393.9743               413.9512
 Red. masses --      3.6895                 1.9465                 3.0618
 Frc consts  --      0.3117                 0.1780                 0.3091
 IR Inten    --      5.7270                 0.4061                 3.7611

                     10                     11                     12
                      A                      A                      A
 Frequencies --    547.6396               585.4477               661.9037
 Red. masses --      3.8671                 5.1073                 2.2113
 Frc consts  --      0.6833                 1.0314                 0.5708
 IR Inten    --      1.2198                19.7939                 0.6762

                     13                     14                     15
                      A                      A                      A
 Frequencies --    685.0552               755.9713               853.3642
 Red. masses --      1.7328                 3.4141                 2.4957
 Frc consts  --      0.4791                 1.1496                 1.0708
 IR Inten    --     31.1447                 3.6045                 4.5891

                     16                     17                     18
                      A                      A                      A
 Frequencies --    881.7303               896.2529               928.0950
 Red. masses --      1.9810                 2.6715                 2.1822
 Frc consts  --      0.9074                 1.2643                 1.1074
 IR Inten    --      0.5658                15.1135                33.5754

                     19                     20                     21
                      A                      A                      A
 Frequencies --    938.4047              1005.0060              1013.7396
 Red. masses --      2.3476                 1.2462                 2.4638
 Frc consts  --      1.2180                 0.7416                 1.4918
 IR Inten    --     18.8888                 0.9073                 0.9354

                     22                     23                     24
                      A                      A                      A
 Frequencies --   1049.7952              1072.6357              1088.9883
 Red. masses --      1.6745                 2.4386                 2.2013
 Frc consts  --      1.0873                 1.6531                 1.5380
 IR Inten    --      4.6778                 1.9057                29.3950

                     25                     26                     27
                      A                      A                      A
 Frequencies --   1111.7060              1158.2938              1216.6353
 Red. masses --      1.8008                 1.1875                 1.1347
 Frc consts  --      1.3113                 0.9387                 0.9895
 IR Inten    --     11.9052                 2.6758                 8.5852

                     28                     29                     30
                      A                      A                      A
 Frequencies --   1231.8912              1251.0185              1276.9536
 Red. masses --      1.1244                 1.2446                 1.4932
 Frc consts  --      1.0053                 1.1476                 1.4346
 IR Inten    --      5.5367                22.9253                31.4046

                     31                     32                     33
                      A                      A                      A
 Frequencies --   1320.6724              1355.4258              1368.2677
 Red. masses --      1.5480                 1.3760                 1.5130
 Frc consts  --      1.5908                 1.4895                 1.6689
 IR Inten    --     17.6632                 6.8451                 9.5604

                     34                     35                     36
                      A                      A                      A
 Frequencies --   1390.1886              1410.8299              1427.9348
 Red. masses --      1.5149                 1.6379                 1.2281
 Frc consts  --      1.7250                 1.9208                 1.4753
 IR Inten    --     15.9441                 1.4052                 0.9119

                     37                     38                     39
                      A                      A                      A
 Frequencies --   1437.5687              1461.4136              1476.1953
 Red. masses --      1.4504                 1.1235                 1.0949
 Frc consts  --      1.7660                 1.4137                 1.4057
 IR Inten    --      8.7573                11.5010                 2.7081

                     40                     41                     42
                      A                      A                      A
 Frequencies --   1727.0628              1822.8721              2855.6868
 Red. masses --      6.4362                10.8423                 1.0825
 Frc consts  --     11.3108                21.2268                 5.2011
 IR Inten    --      2.4078               129.7699               115.7768

                     43                     44                     45
                      A                      A                      A
 Frequencies --   2965.8698              3017.9507              3022.8053
 Red. masses --      1.0803                 1.0818                 1.0604
 Frc consts  --      5.5991                 5.8051                 5.7089
 IR Inten    --     25.4158                33.7600                38.2388

                     46                     47                     48
                      A                      A                      A
 Frequencies --   3037.7585              3050.2902              3069.3298
 Red. masses --      1.0626                 1.1010                 1.1011
 Frc consts  --      5.7774                 6.0355                 6.1118
 IR Inten    --     24.8986                16.0875                 9.7730

                     49                     50                     51
                      A                      A                      A
 Frequencies --   3145.9172              3169.7455              3812.5171
 Red. masses --      1.0835                 1.0969                 1.0662
 Frc consts  --      6.3178                 6.4933                 9.1307
 IR Inten    --      6.9934                34.2602                15.4643

 - Thermochemistry -
 -------------------
 Temperature   298.150 Kelvin.  Pressure   1.00000 Atm.
 Atom     1 has atomic number  8 and mass  15.99491

 Molecular mass:   126.06808 amu.
 Principal axes and moments of inertia in atomic units:
                           1         2         3
     Eigenvalues --   881.019521145.899971293.93960
           X            0.99864   0.01742   0.04919
           Y           -0.01496   0.99864  -0.05003
           Z           -0.04999   0.04922   0.99754
 This molecule is an asymmetric top.
 Rotational symmetry number  1.
 Warning -- assumption of classical behavior for rotation
           may cause significant error
 Rotational temperatures (Kelvin)      0.09831     0.07559     0.06694
 Rotational constants (GHZ):           2.04847     1.57496     1.39476
 Zero-point vibrational energy     417814.4 (Joules/Mol)
                                   99.86003 (Kcal/Mol)
 Warning -- explicit consideration of  11 degrees of freedom as
           vibrations may cause significant error
 Vibrational temperatures:    117.81   178.42   206.33   280.92   403.55
          (Kelvin)            409.55   544.82   566.84   595.58   787.93
                              842.33   952.33   985.64  1087.67  1227.80
                             1268.61  1289.51  1335.32  1350.15  1445.98
                             1458.54  1510.42  1543.28  1566.81  1599.49
                             1666.52  1750.46  1772.41  1799.93  1837.25
                             1900.15  1950.15  1968.63  2000.17  2029.87
                             2054.48  2068.34  2102.65  2123.91  2484.86
                             2622.70  4108.69  4267.22  4342.15  4349.14
                             4370.65  4388.68  4416.08  4526.27  4560.55
                             5485.35

 Zero-point correction=                           0.159137 (Hartree/Particle)
 Thermal correction to Energy=                    0.167776
 Thermal correction to Enthalpy=                  0.168720
 Thermal correction to Gibbs Free Energy=         0.125803
 Sum of electronic and zero-point Energies=           -423.047699
 Sum of electronic and thermal Energies=              -423.039061
 Sum of electronic and thermal Enthalpies=            -423.038117
 Sum of electronic and thermal Free Energies=         -423.081033

                     E (Thermal)             CV                S
                      KCal/Mol        Cal/Mol-Kelvin    Cal/Mol-Kelvin
 Total                  105.281             32.540             90.325
 Electronic               0.000              0.000              0.000
 Translational            0.889              2.981             40.409
 Rotational               0.889              2.981             28.659
 Vibrational            103.503             26.578             21.258
 Vibration     1          0.600              1.962              3.845
 Vibration     2          0.610              1.929              3.037
 Vibration     3          0.616              1.910              2.758
 Vibration     4          0.636              1.846              2.177
 Vibration     5          0.680              1.710              1.531
 Vibration     6          0.683              1.702              1.506
 Vibration     7          0.749              1.516              1.044
 Vibration     8          0.761              1.483              0.985
 Vibration     9          0.778              1.440              0.913
 Vibration    10          0.903              1.145              0.549
 Vibration    11          0.942              1.063              0.475

 Optimization completed.
    -- Stationary point found.
 Normal termination of Gaussian 09 at Tue Jan 28 04:43:41 2020.
