 Gaussian 09, Revision D.01,
 Gaussian 09:  ES64L-G09RevD.01 24-Apr-2013

 -----------------------------
 # b3lyp 6-31G(2df,p) opt Freq
 -----------------------------

 -----
 titel
 -----
 Symbolic Z-matrix:
 Charge =  0 Multiplicity = 1

 SCF Done:  E(RB3LYP) =  -423.198136723     A.U. after   14 cycles
 Optimization completed.
    -- Stationary point found.
 Normal termination of Gaussian 09 at Tue Jan 28 08:14:06 2020.

 ----------------------------------------------------------------------
 #N Geom=AllCheck Guess=TCheck SCRF=Check GenChk RB3LYP/6-31G(2df,p) Fr
 eq
 ----------------------------------------------------------------------

 Structure from the checkpoint file:  "/scratch/puck/g09_c68aca86-eefa-460b-b399-b8e59d0dcc71/Gau-17894.chk"
 -----
 titel
 -----
 Charge =  0 Multiplicity = 1

                         Standard orientation:
 ---------------------------------------------------------------------
 Center     Atomic      Atomic             Coordinates (Angstroms)
 Number     Number       Type             X           Y           Z
 ---------------------------------------------------------------------
      1          6           0       -2.549304   -0.440139    0.230975
      2          6           0       -1.032626   -0.376895    0.401171
      3          6           0       -0.292958   -1.498213   -0.355019
      4          8           0        1.090166   -1.505745   -0.041030
      5          6           0        1.772897   -0.326500   -0.348687
      6          6           0        2.021813    0.619190    0.776236
      7          6           0        1.011792    0.988194   -0.315758
      8          6           0       -0.459622    0.960712   -0.070435
      9          8           0       -1.159135    1.919787   -0.316511
     10          1           0       -2.828105   -0.385788   -0.826192
     11          1           0       -2.947769   -1.371036    0.645462
     12          1           0       -3.026650    0.402764    0.733664
     13          1           0       -0.773344   -0.499628    1.462446
     14          1           0       -0.672994   -2.479121   -0.056081
     15          1           0       -0.451096   -1.389181   -1.439705
     16          1           0        2.529820   -0.451586   -1.119528
     17          1           0        1.637262    0.328299    1.746883
     18          1           0        2.938055    1.197919    0.797595
     19          1           0        1.314620    1.776929   -0.995123
 ---------------------------------------------------------------------

 SCF Done:  E(RB3LYP) =  -423.198136723     A.U. after    1 cycles

 The electronic state is 1-A.
 Alpha  occ. eigenvalues --  -19.15522 -19.12442 -10.26674 -10.25206 -10.24066
 Alpha  occ. eigenvalues --  -10.20499 -10.20474 -10.19834 -10.17883  -1.05417
 Alpha  occ. eigenvalues --   -1.03433  -0.86531  -0.80346  -0.70078  -0.66260
 Alpha  occ. eigenvalues --   -0.62178  -0.60142  -0.53052  -0.51739  -0.50266
 Alpha  occ. eigenvalues --   -0.46949  -0.45011  -0.43793  -0.41952  -0.40101
 Alpha  occ. eigenvalues --   -0.39130  -0.38411  -0.36838  -0.36024  -0.34762
 Alpha  occ. eigenvalues --   -0.32460  -0.28656  -0.26322  -0.23913
 Alpha virt. eigenvalues --   -0.01558   0.07997   0.09002   0.10397   0.12090
 Alpha virt. eigenvalues --    0.13854   0.14061   0.14936   0.16032   0.17606
 Alpha virt. eigenvalues --    0.17828   0.18254   0.20177   0.22255   0.23029

 Mulliken charges:
               1
     1  C   -0.399689
     2  C   -0.121078
     3  C   -0.085634
     4  O   -0.256420
     5  C    0.093226
     6  C   -0.312420
     7  C   -0.149389
     8  C    0.391597
     9  O   -0.333564
    10  H    0.125135
    11  H    0.109741
    12  H    0.140070
    13  H    0.104464
    14  H    0.116225
    15  H    0.099662
    16  H    0.105624
    17  H    0.132516
    18  H    0.127227
    19  H    0.112709
 Sum of Mulliken charges =   0.00000

 Dipole moment (field-independent basis, Debye):
    X=              1.1530    Y=             -1.3102    Z=              0.2078  Tot=              1.7576
 Quadrupole moment (field-independent basis, Debye-Ang):
   XX=            -51.8421   YY=            -59.6853   ZZ=            -51.0293
   XY=              7.6446   XZ=             -1.7120   YZ=              1.2454

  Exact polarizability:  89.292   1.985  75.201   1.147  -1.033  62.768
 Approx polarizability: 120.022  -8.102 116.766   4.899  -4.924  98.548

                      1                      2                      3
                      A                      A                      A
 Frequencies --     73.0358               173.7785               186.2100
 Red. masses --      4.4640                 1.5657                 1.7125
 Frc consts  --      0.0140                 0.0279                 0.0350
 IR Inten    --      4.7675                 0.2389                 0.9787

                      4                      5                      6
                      A                      A                      A
 Frequencies --    223.1467               277.0328               338.9333
 Red. masses --      2.4313                 2.8627                 2.5560
 Frc consts  --      0.0713                 0.1294                 0.1730
 IR Inten    --      2.7477                 2.8455                 2.4886

                      7                      8                      9
                      A                      A                      A
 Frequencies --    397.5092               432.4168               473.0631
 Red. masses --      4.6954                 3.0287                 5.6689
 Frc consts  --      0.4371                 0.3337                 0.7475
 IR Inten    --     12.0445                 1.7999                 4.4246

                     10                     11                     12
                      A                      A                      A
 Frequencies --    507.0356               647.6765               718.9564
 Red. masses --      4.9476                 3.0980                 3.5569
 Frc consts  --      0.7494                 0.7657                 1.0832
 IR Inten    --      2.5166                 1.5122                 5.7888

                     13                     14                     15
                      A                      A                      A
 Frequencies --    756.8787               786.3508               828.7713
 Red. masses --      2.6785                 2.6533                 1.5908
 Frc consts  --      0.9041                 0.9667                 0.6438
 IR Inten    --      5.2417                 4.2068                19.8275

                     16                     17                     18
                      A                      A                      A
 Frequencies --    892.7002               926.1327               948.8207
 Red. masses --      1.7529                 1.7687                 2.3479
 Frc consts  --      0.8231                 0.8938                 1.2454
 IR Inten    --      8.7399                 7.4336                 3.8456

                     19                     20                     21
                      A                      A                      A
 Frequencies --    976.6145              1016.0604              1045.7502
 Red. masses --      1.6958                 2.9612                 1.2460
 Frc consts  --      0.9530                 1.8012                 0.8028
 IR Inten    --      8.2604                16.3812                 3.8965

                     22                     23                     24
                      A                      A                      A
 Frequencies --   1061.7561              1088.1548              1122.4786
 Red. masses --      2.5218                 1.6685                 1.2830
 Frc consts  --      1.6750                 1.1640                 0.9524
 IR Inten    --     47.2471                 2.7699                 1.3249

                     25                     26                     27
                      A                      A                      A
 Frequencies --   1125.8259              1150.6699              1173.8457
 Red. masses --      2.3543                 2.0150                 1.8860
 Frc consts  --      1.7581                 1.5719                 1.5311
 IR Inten    --      1.7626                 0.5221                 9.8419

                     28                     29                     30
                      A                      A                      A
 Frequencies --   1224.4011              1238.9524              1264.0257
 Red. masses --      1.7046                 2.2910                 1.5296
 Frc consts  --      1.5056                 2.0720                 1.4399
 IR Inten    --      8.4571               124.3597                37.3869

                     31                     32                     33
                      A                      A                      A
 Frequencies --   1308.0904              1335.0854              1363.3109
 Red. masses --      1.2939                 1.3654                 1.9289
 Frc consts  --      1.3045                 1.4339                 2.1123
 IR Inten    --      7.1963                 4.6496                 8.9332

                     34                     35                     36
                      A                      A                      A
 Frequencies --   1376.3801              1408.1590              1418.7158
 Red. masses --      1.5630                 1.3556                 1.3318
 Frc consts  --      1.7446                 1.5837                 1.5794
 IR Inten    --     40.4875                 1.2511                19.9080

                     37                     38                     39
                      A                      A                      A
 Frequencies --   1474.3900              1490.0485              1495.7291
 Red. masses --      1.2628                 1.0471                 1.0517
 Frc consts  --      1.6174                 1.3698                 1.3863
 IR Inten    --      9.2023                 5.8803                 5.7148

                     40                     41                     42
                      A                      A                      A
 Frequencies --   1506.3006              1790.9391              2982.7679
 Red. masses --      1.0987                11.8355                 1.0694
 Frc consts  --      1.4688                22.3665                 5.6058
 IR Inten    --      3.8256               199.1513                37.5107

                     43                     44                     45
                      A                      A                      A
 Frequencies --   3012.3022              3045.3222              3090.0939
 Red. masses --      1.0805                 1.0369                 1.0945
 Frc consts  --      5.7765                 5.6656                 6.1576
 IR Inten    --     23.5113                22.8562                24.8446

                     46                     47                     48
                      A                      A                      A
 Frequencies --   3110.4710              3130.9785              3136.9693
 Red. masses --      1.1018                 1.0875                 1.0997
 Frc consts  --      6.2805                 6.2813                 6.3757
 IR Inten    --     26.3411                26.5284                10.2482

                     49                     50                     51
                      A                      A                      A
 Frequencies --   3142.8024              3179.5728              3235.2609
 Red. masses --      1.0557                 1.0900                 1.1173
 Frc consts  --      6.1437                 6.4928                 6.8904
 IR Inten    --      8.0654                 4.4124                 5.1048

 - Thermochemistry -
 -------------------
 Temperature   298.150 Kelvin.  Pressure   1.00000 Atm.
 Atom     1 has atomic number  6 and mass  12.00000

 Molecular mass:   126.06808 amu.
 Principal axes and moments of inertia in atomic units:
                           1         2         3
     Eigenvalues --   702.100911105.354151610.97664
           X            0.99446   0.10503  -0.00420
           Y           -0.10499   0.99443   0.00924
           Z            0.00515  -0.00874   0.99995
 This molecule is an asymmetric top.
 Rotational symmetry number  1.
 Warning -- assumption of classical behavior for rotation
           may cause significant error
 Rotational temperatures (Kelvin)      0.12336     0.07836     0.05376
 Rotational constants (GHZ):           2.57049     1.63273     1.12028
 Zero-point vibrational energy     419355.0 (Joules/Mol)
                                  100.22824 (Kcal/Mol)
 Warning -- explicit consideration of  10 degrees of freedom as
           vibrations may cause significant error
 Vibrational temperatures:    105.08   250.03   267.91   321.06   398.59
          (Kelvin)            487.65   571.93   622.15   680.63   729.51
                              931.86  1034.42  1088.98  1131.38  1192.42
                             1284.39  1332.50  1365.14  1405.13  1461.88
                             1504.60  1527.63  1565.61  1614.99  1619.81
                             1655.56  1688.90  1761.64  1782.57  1818.65
                             1882.05  1920.89  1961.50  1980.30  2026.02
                             2041.21  2121.32  2143.84  2152.02  2167.23
                             2576.76  4291.53  4334.03  4381.53  4445.95
                             4475.27  4504.77  4513.39  4521.79  4574.69
                             4654.81

 Zero-point correction=                           0.159724 (Hartree/Particle)
 Thermal correction to Energy=                    0.167929
 Thermal correction to Enthalpy=                  0.168873
 Thermal correction to Gibbs Free Energy=         0.126948
 Sum of electronic and zero-point Energies=           -423.038413
 Sum of electronic and thermal Energies=              -423.030208
 Sum of electronic and thermal Enthalpies=            -423.029264
 Sum of electronic and thermal Free Energies=         -423.071189

                     E (Thermal)             CV                S
                      KCal/Mol        Cal/Mol-Kelvin    Cal/Mol-Kelvin
 Total                  105.377             31.607             88.238
 Electronic               0.000              0.000              0.000
 Translational            0.889              2.981             40.409
 Rotational               0.889              2.981             28.616
 Vibrational            103.599             25.645             19.214
 Vibration     1          0.599              1.967              4.070
 Vibration     2          0.627              1.875              2.394
 Vibration     3          0.632              1.859              2.265
 Vibration     4          0.649              1.806              1.933
 Vibration     5          0.678              1.716              1.552
 Vibration     6          0.719              1.598              1.217
 Vibration     7          0.764              1.475              0.972
 Vibration     8          0.793              1.400              0.851
 Vibration     9          0.830              1.310              0.729
 Vibration    10          0.862              1.234              0.641

 Normal termination of Gaussian 09 at Tue Jan 28 08:59:17 2020.
