 Gaussian 09, Revision D.01,
 Gaussian 09:  ES64L-G09RevD.01 24-Apr-2013

 -----------------------------
 # b3lyp 6-31G(2df,p) opt Freq
 -----------------------------

 -----
 titel
 -----
 Symbolic Z-matrix:
 Charge =  0 Multiplicity = 1

 SCF Done:  E(RB3LYP) =  -423.127190329     A.U. after   14 cycles
 Optimization completed.
    -- Stationary point found.
 Normal termination of Gaussian 09 at Mon Jan 27 17:27:46 2020.

 ----------------------------------------------------------------------
 #N Geom=AllCheck Guess=TCheck SCRF=Check GenChk RB3LYP/6-31G(2df,p) Fr
 eq
 ----------------------------------------------------------------------

 Structure from the checkpoint file:  "/scratch/puck/g09_0074d6b0-e2ab-4162-bb93-29a7e6f1b372/Gau-39351.chk"
 -----
 titel
 -----
 Charge =  0 Multiplicity = 1

                         Standard orientation:
 ---------------------------------------------------------------------
 Center     Atomic      Atomic             Coordinates (Angstroms)
 Number     Number       Type             X           Y           Z
 ---------------------------------------------------------------------
      1          8           0       -1.169504    1.829964   -0.410953
      2          6           0       -1.114838    0.555102    0.115041
      3          6           0       -0.374241    0.168106    1.357671
      4          6           0       -0.027821   -0.533579    0.052964
      5          6           0       -1.105958   -1.578593   -0.261485
      6          6           0       -2.200615   -0.457123   -0.223354
      7          6           0        1.320074   -0.448285   -0.557261
      8          6           0        2.570357   -0.431477    0.218509
      9          8           0        2.026593    0.780919   -0.314129
     10          1           0       -0.329381    2.267474   -0.231143
     11          1           0        0.370850    0.894343    1.670914
     12          1           0       -0.850484   -0.374035    2.174054
     13          1           0       -0.999422   -2.018398   -1.256552
     14          1           0       -1.211510   -2.388091    0.468718
     15          1           0       -2.630707   -0.273778   -1.209982
     16          1           0       -3.010407   -0.564436    0.505189
     17          1           0        1.380024   -0.788176   -1.593095
     18          1           0        2.521451   -0.527062    1.301770
     19          1           0        3.501121   -0.759808   -0.241728
 ---------------------------------------------------------------------

 SCF Done:  E(RB3LYP) =  -423.127190329     A.U. after    1 cycles

 The electronic state is 1-A.
 Alpha  occ. eigenvalues --  -19.15598 -19.14463 -10.24274 -10.24045 -10.23534
 Alpha  occ. eigenvalues --  -10.19324 -10.19013 -10.18431 -10.18365  -1.07240
 Alpha  occ. eigenvalues --   -1.03217  -0.88843  -0.73423  -0.69932  -0.65889
 Alpha  occ. eigenvalues --   -0.63134  -0.57839  -0.54698  -0.53039  -0.49356
 Alpha  occ. eigenvalues --   -0.47655  -0.45513  -0.42969  -0.40614  -0.38686
 Alpha  occ. eigenvalues --   -0.38032  -0.37666  -0.35305  -0.34547  -0.33409
 Alpha  occ. eigenvalues --   -0.32435  -0.27793  -0.26730  -0.21862
 Alpha virt. eigenvalues --    0.07564   0.08400   0.10003   0.11459   0.11769
 Alpha virt. eigenvalues --    0.12082   0.12932   0.14366   0.15010   0.16612
 Alpha virt. eigenvalues --    0.18089   0.18562   0.19781   0.20168   0.22729

 Mulliken charges:
               1
     1  O   -0.461584
     2  C    0.394378
     3  C   -0.421049
     4  C    0.288361
     5  C   -0.304573
     6  C   -0.265805
     7  C   -0.056391
     8  C   -0.179000
     9  O   -0.249077
    10  H    0.295217
    11  H    0.119090
    12  H    0.100412
    13  H    0.105566
    14  H    0.096854
    15  H    0.114697
    16  H    0.098819
    17  H    0.091888
    18  H    0.115276
    19  H    0.116920
 Sum of Mulliken charges =   0.00000

 Dipole moment (field-independent basis, Debye):
    X=              0.8368    Y=             -1.7780    Z=              0.5577  Tot=              2.0427
 Quadrupole moment (field-independent basis, Debye-Ang):
   XX=            -53.3983   YY=            -53.9770   ZZ=            -51.9108
   XY=              0.3295   XZ=              0.2501   YZ=              1.9415

  Exact polarizability:  89.438   0.298  69.576   2.114   1.465  69.035
 Approx polarizability: 118.596  -1.523 108.767   4.252   0.213 105.276

                      1                      2                      3
                      A                      A                      A
 Frequencies --     38.6384               136.1524               183.0478
 Red. masses --      4.0323                 3.7390                 2.4322
 Frc consts  --      0.0035                 0.0408                 0.0480
 IR Inten    --      4.6725                 5.1098                 1.7845

                      4                      5                      6
                      A                      A                      A
 Frequencies --    237.1233               260.1834               333.8308
 Red. masses --      1.5593                 1.7128                 2.8974
 Frc consts  --      0.0517                 0.0683                 0.1902
 IR Inten    --     32.1373                56.7924                27.4616

                      7                      8                      9
                      A                      A                      A
 Frequencies --    357.8346               399.0701               453.6088
 Red. masses --      2.9992                 3.6698                 2.4481
 Frc consts  --      0.2263                 0.3443                 0.2968
 IR Inten    --      1.9539                 3.9037                 6.4860

                     10                     11                     12
                      A                      A                      A
 Frequencies --    591.9099               616.8200               703.2770
 Red. masses --      3.2838                 3.2892                 3.0401
 Frc consts  --      0.6779                 0.7373                 0.8859
 IR Inten    --      3.4613                 6.5848                 2.0552

                     13                     14                     15
                      A                      A                      A
 Frequencies --    731.8509               791.0864               836.3106
 Red. masses --      3.2763                 1.3884                 6.7971
 Frc consts  --      1.0339                 0.5119                 2.8010
 IR Inten    --      3.0598                 0.1325                13.8800

                     16                     17                     18
                      A                      A                      A
 Frequencies --    858.0929               895.3931               933.9531
 Red. masses --      3.7077                 2.5290                 2.4807
 Frc consts  --      1.6085                 1.1946                 1.2749
 IR Inten    --      5.6615                27.6822                14.2018

                     19                     20                     21
                      A                      A                      A
 Frequencies --    944.8992               973.3854              1012.0426
 Red. masses --      1.5772                 1.6833                 1.6640
 Frc consts  --      0.8297                 0.9397                 1.0042
 IR Inten    --      3.9375                 9.5889                 1.8377

                     22                     23                     24
                      A                      A                      A
 Frequencies --   1041.7125              1082.7754              1100.3929
 Red. masses --      1.5744                 1.5009                 1.2133
 Frc consts  --      1.0066                 1.0367                 0.8656
 IR Inten    --      7.3858                16.0434                 1.0499

                     25                     26                     27
                      A                      A                      A
 Frequencies --   1119.7010              1127.2411              1151.1001
 Red. masses --      1.4510                 1.5104                 1.4003
 Frc consts  --      1.0718                 1.1308                 1.0932
 IR Inten    --     49.4429                31.8055                 0.8986

                     28                     29                     30
                      A                      A                      A
 Frequencies --   1172.5780              1193.9910              1206.0124
 Red. masses --      1.3292                 3.0226                 1.3071
 Frc consts  --      1.0768                 2.5388                 1.1201
 IR Inten    --      1.9030                24.4424                 6.8881

                     31                     32                     33
                      A                      A                      A
 Frequencies --   1237.6880              1250.5243              1279.6027
 Red. masses --      1.4675                 1.7079                 1.8950
 Frc consts  --      1.3245                 1.5736                 1.8281
 IR Inten    --      0.4318                 3.1645                 3.5926

                     34                     35                     36
                      A                      A                      A
 Frequencies --   1311.2040              1387.1413              1417.7989
 Red. masses --      1.7761                 2.1371                 1.9553
 Frc consts  --      1.7991                 2.4228                 2.3158
 IR Inten    --     74.9283                67.7387                22.5390

                     37                     38                     39
                      A                      A                      A
 Frequencies --   1446.8478              1477.9069              1482.1953
 Red. masses --      2.0139                 1.3258                 1.1010
 Frc consts  --      2.4839                 1.7061                 1.4251
 IR Inten    --     17.7745                15.1225                 1.5821

                     40                     41                     42
                      A                      A                      A
 Frequencies --   1516.9517              1521.5146              3039.8014
 Red. masses --      1.3671                 1.3446                 1.0600
 Frc consts  --      1.8535                 1.8339                 5.7709
 IR Inten    --     19.9733                 3.3853                46.5697

                     43                     44                     45
                      A                      A                      A
 Frequencies --   3053.5262              3083.9510              3084.9394
 Red. masses --      1.0630                 1.0597                 1.0557
 Frc consts  --      5.8399                 5.9383                 5.9197
 IR Inten    --     60.0195                32.7724                19.0604

                     46                     47                     48
                      A                      A                      A
 Frequencies --   3090.0764              3093.4398              3119.8159
 Red. masses --      1.0826                 1.1021                 1.1033
 Frc consts  --      6.0908                 6.2139                 6.3273
 IR Inten    --     16.5438                20.7236                29.4880

                     49                     50                     51
                      A                      A                      A
 Frequencies --   3176.7752              3187.2983              3804.8436
 Red. masses --      1.1198                 1.1104                 1.0656
 Frc consts  --      6.6582                 6.6463                 9.0886
 IR Inten    --     24.5968                 8.6363                29.3697

 - Thermochemistry -
 -------------------
 Temperature   298.150 Kelvin.  Pressure   1.00000 Atm.
 Atom     1 has atomic number  8 and mass  15.99491

 Molecular mass:   126.06808 amu.
 Principal axes and moments of inertia in atomic units:
                           1         2         3
     Eigenvalues --   618.844871303.948511582.00119
           X            0.99992   0.01114   0.00545
           Y           -0.01130   0.99950   0.02961
           Z           -0.00512  -0.02967   0.99955
 This molecule is an asymmetric top.
 Rotational symmetry number  1.
 Warning -- assumption of classical behavior for rotation
           may cause significant error
 Rotational temperatures (Kelvin)      0.13996     0.06642     0.05475
 Rotational constants (GHZ):           2.91631     1.38406     1.14080
 Zero-point vibrational energy     415988.6 (Joules/Mol)
                                   99.42365 (Kcal/Mol)
 Warning -- explicit consideration of  11 degrees of freedom as
           vibrations may cause significant error
 Vibrational temperatures:     55.59   195.89   263.36   341.17   374.35
          (Kelvin)            480.31   514.84   574.17   652.64   851.63
                              887.47  1011.86  1052.97  1138.20  1203.26
                             1234.60  1288.27  1343.75  1359.50  1400.48
                             1456.10  1498.79  1557.87  1583.22  1611.00
                             1621.85  1656.17  1687.08  1717.88  1735.18
                             1780.75  1799.22  1841.06  1886.53  1995.78
                             2039.89  2081.69  2126.38  2132.55  2182.55
                             2189.12  4373.59  4393.34  4437.11  4438.53
                             4445.93  4450.76  4488.71  4570.67  4585.81
                             5474.31

 Zero-point correction=                           0.158442 (Hartree/Particle)
 Thermal correction to Energy=                    0.166926
 Thermal correction to Enthalpy=                  0.167870
 Thermal correction to Gibbs Free Energy=         0.124894
 Sum of electronic and zero-point Energies=           -422.968749
 Sum of electronic and thermal Energies=              -422.960265
 Sum of electronic and thermal Enthalpies=            -422.959321
 Sum of electronic and thermal Free Energies=         -423.002297

                     E (Thermal)             CV                S
                      KCal/Mol        Cal/Mol-Kelvin    Cal/Mol-Kelvin
 Total                  104.747             32.436             90.451
 Electronic               0.000              0.000              0.000
 Translational            0.889              2.981             40.409
 Rotational               0.889              2.981             28.636
 Vibrational            102.970             26.474             21.406
 Vibration     1          0.594              1.981              5.328
 Vibration     2          0.614              1.917              2.857
 Vibration     3          0.631              1.863              2.297
 Vibration     4          0.656              1.784              1.824
 Vibration     5          0.668              1.746              1.661
 Vibration     6          0.715              1.608              1.241
 Vibration     7          0.733              1.559              1.131
 Vibration     8          0.765              1.472              0.966
 Vibration     9          0.812              1.353              0.785
 Vibration    10          0.949              1.049              0.464
 Vibration    11          0.977              0.996              0.422

 Optimization completed.
    -- Stationary point found.
 Normal termination of Gaussian 09 at Mon Jan 27 18:29:16 2020.
