 Gaussian 09, Revision D.01,
 Gaussian 09:  ES64L-G09RevD.01 24-Apr-2013

 -----------------------------
 # b3lyp 6-31G(2df,p) opt Freq
 -----------------------------

 -----
 titel
 -----
 Symbolic Z-matrix:
 Charge =  0 Multiplicity = 1

 SCF Done:  E(RB3LYP) =  -423.192112860     A.U. after   14 cycles
 Optimization completed.
    -- Stationary point found.
 Normal termination of Gaussian 09 at Tue Jan 28 03:55:17 2020.

 ----------------------------------------------------------------------
 #N Geom=AllCheck Guess=TCheck SCRF=Check GenChk RB3LYP/6-31G(2df,p) Fr
 eq
 ----------------------------------------------------------------------

 Structure from the checkpoint file:  "/scratch/puck/g09_5e89ac06-1beb-4b50-aba4-fbc8f46ecdff/Gau-192816.chk"
 -----
 titel
 -----
 Charge =  0 Multiplicity = 1

                         Standard orientation:
 ---------------------------------------------------------------------
 Center     Atomic      Atomic             Coordinates (Angstroms)
 Number     Number       Type             X           Y           Z
 ---------------------------------------------------------------------
      1          8           0       -2.032535   -1.214072   -0.107992
      2          6           0       -0.736273   -0.643962   -0.346682
      3          6           0        0.328492   -1.619658    0.157036
      4          6           0        1.770441   -1.197008    0.149195
      5          6           0        2.307947    0.018908   -0.023772
      6          6           0        1.652509    1.309643   -0.218148
      7          6           0        0.363989    1.625459   -0.043992
      8          6           0       -0.752509    0.715876    0.382960
      9          8           0       -1.963317    1.398144    0.108120
     10          1           0       -2.219719   -1.852422   -0.801632
     11          1           0       -0.606612   -0.447868   -1.419039
     12          1           0        0.045535   -1.924422    1.175105
     13          1           0        0.241095   -2.538661   -0.440847
     14          1           0        2.462866   -2.020531    0.312661
     15          1           0        3.394755    0.069852   -0.012084
     16          1           0        2.320683    2.115544   -0.512569
     17          1           0        0.036211    2.644977   -0.223650
     18          1           0       -0.669502    0.510768    1.466903
     19          1           0       -2.646074    0.714641    0.114546
 ---------------------------------------------------------------------

 SCF Done:  E(RB3LYP) =  -423.192112860     A.U. after    1 cycles

 The electronic state is 1-A.
 Alpha  occ. eigenvalues --  -19.15239 -19.12132 -10.23846 -10.23003 -10.19230
 Alpha  occ. eigenvalues --  -10.18882 -10.18365 -10.18142 -10.17931  -1.03869
 Alpha  occ. eigenvalues --   -1.00129  -0.82336  -0.76399  -0.74872  -0.65748
 Alpha  occ. eigenvalues --   -0.63980  -0.56022  -0.53961  -0.51447  -0.49506
 Alpha  occ. eigenvalues --   -0.46227  -0.44788  -0.43345  -0.41550  -0.40368
 Alpha  occ. eigenvalues --   -0.39398  -0.35838  -0.34872  -0.33780  -0.31861
 Alpha  occ. eigenvalues --   -0.30605  -0.28542  -0.25827  -0.21782
 Alpha virt. eigenvalues --   -0.02566   0.05982   0.08237   0.09389   0.12322
 Alpha virt. eigenvalues --    0.12964   0.14381   0.15695   0.16417   0.17658
 Alpha virt. eigenvalues --    0.18793   0.20018   0.20876   0.22630   0.24299

 Mulliken charges:
               1
     1  O   -0.438002
     2  C    0.040982
     3  C   -0.265227
     4  C   -0.077103
     5  C   -0.073259
     6  C   -0.086852
     7  C   -0.073252
     8  C    0.080946
     9  O   -0.451624
    10  H    0.292045
    11  H    0.085184
    12  H    0.125742
    13  H    0.099580
    14  H    0.091862
    15  H    0.086241
    16  H    0.088254
    17  H    0.106635
    18  H    0.080397
    19  H    0.287452
 Sum of Mulliken charges =   0.00000

 Dipole moment (field-independent basis, Debye):
    X=              0.5451    Y=             -2.3438    Z=             -0.9576  Tot=              2.5899
 Quadrupole moment (field-independent basis, Debye-Ang):
   XX=            -51.8512   YY=            -51.3814   ZZ=            -53.4045
   XY=              4.4516   XZ=              2.2219   YZ=              1.7075

  Exact polarizability:  94.563  -1.190  93.780  -1.310  -2.874  51.672
 Approx polarizability: 136.522  -5.886 147.498  -4.265  -5.677  82.831

                      1                      2                      3
                      A                      A                      A
 Frequencies --     38.7401               129.2384               196.6202
 Red. masses --      3.0242                 3.3526                 1.1516
 Frc consts  --      0.0027                 0.0330                 0.0262
 IR Inten    --      3.2161                 2.0626                70.4327

                      4                      5                      6
                      A                      A                      A
 Frequencies --    281.9772               316.5778               334.2563
 Red. masses --      2.6253                 5.0199                 4.5178
 Frc consts  --      0.1230                 0.2964                 0.2974
 IR Inten    --      0.6084                 3.4802                 4.8985

                      7                      8                      9
                      A                      A                      A
 Frequencies --    391.9655               400.5105               450.2953
 Red. masses --      4.5640                 3.5781                 2.3693
 Frc consts  --      0.4131                 0.3382                 0.2831
 IR Inten    --      6.7023                 2.2586                29.3743

                     10                     11                     12
                      A                      A                      A
 Frequencies --    472.8757               498.5473               570.8885
 Red. masses --      2.5204                 1.4209                 2.8950
 Frc consts  --      0.3321                 0.2081                 0.5559
 IR Inten    --      4.0559                79.1803                13.0976

                     13                     14                     15
                      A                      A                      A
 Frequencies --    675.1682               695.5432               774.0457
 Red. masses --      4.2138                 1.4191                 1.7507
 Frc consts  --      1.1317                 0.4045                 0.6180
 IR Inten    --      9.2993                36.1196                 2.8245

                     16                     17                     18
                      A                      A                      A
 Frequencies --    843.9001               885.7288               895.2797
 Red. masses --      2.3618                 2.8329                 3.1454
 Frc consts  --      0.9910                 1.3094                 1.4854
 IR Inten    --      9.0540                 3.5543                 2.4518

                     19                     20                     21
                      A                      A                      A
 Frequencies --    962.9196              1000.6214              1014.9274
 Red. masses --      2.8238                 1.2387                 1.2546
 Frc consts  --      1.5426                 0.7307                 0.7614
 IR Inten    --     14.0136                 1.0140                 0.2469

                     22                     23                     24
                      A                      A                      A
 Frequencies --   1024.1623              1045.3735              1074.9332
 Red. masses --      2.2289                 4.0437                 2.5968
 Frc consts  --      1.3775                 2.6036                 1.7679
 IR Inten    --      6.9828                67.5137                43.4622

                     25                     26                     27
                      A                      A                      A
 Frequencies --   1096.5920              1111.1544              1194.3040
 Red. masses --      3.1590                 2.8556                 1.2075
 Frc consts  --      2.2382                 2.0773                 1.0148
 IR Inten    --     30.2537                48.1286                14.4655

                     28                     29                     30
                      A                      A                      A
 Frequencies --   1215.2609              1253.4699              1265.0913
 Red. masses --      1.1444                 1.0919                 1.0806
 Frc consts  --      0.9958                 1.0108                 1.0190
 IR Inten    --     51.8345                10.0415                 1.8287

                     31                     32                     33
                      A                      A                      A
 Frequencies --   1283.4068              1338.7975              1350.7785
 Red. masses --      1.1857                 1.2359                 1.2344
 Frc consts  --      1.1507                 1.3051                 1.3270
 IR Inten    --     46.3558                 2.9513                15.9182

                     34                     35                     36
                      A                      A                      A
 Frequencies --   1378.6387              1401.5209              1424.7816
 Red. masses --      1.5512                 1.3099                 1.4407
 Frc consts  --      1.7371                 1.5159                 1.7232
 IR Inten    --      8.5788                20.5214                 4.6285

                     37                     38                     39
                      A                      A                      A
 Frequencies --   1439.8178              1459.6460              1470.7708
 Red. masses --      1.4357                 1.6705                 1.1236
 Frc consts  --      1.7537                 2.0969                 1.4321
 IR Inten    --     23.5244                 4.2838                 9.5601

                     40                     41                     42
                      A                      A                      A
 Frequencies --   1689.8377              1719.2288              2918.9919
 Red. masses --      8.8362                 5.8321                 1.0796
 Frc consts  --     14.8664                10.1565                 5.4198
 IR Inten    --      3.9890                 1.7261                36.2794

                     43                     44                     45
                      A                      A                      A
 Frequencies --   3000.0539              3012.7640              3033.8534
 Red. masses --      1.0612                 1.0896                 1.0935
 Frc consts  --      5.6273                 5.8272                 5.9302
 IR Inten    --     27.6568                 4.8230                46.8769

                     46                     47                     48
                      A                      A                      A
 Frequencies --   3130.9468              3146.4397              3159.4875
 Red. masses --      1.0821                 1.0868                 1.0914
 Frc consts  --      6.2499                 6.3393                 6.4192
 IR Inten    --      0.5504                20.0821                33.4171

                     49                     50                     51
                      A                      A                      A
 Frequencies --   3182.1620              3767.5899              3843.4158
 Red. masses --      1.0929                 1.0645                 1.0668
 Frc consts  --      6.5205                 8.9030                 9.2846
 IR Inten    --     10.9157                57.2379                37.2374

 - Thermochemistry -
 -------------------
 Temperature   298.150 Kelvin.  Pressure   1.00000 Atm.
 Atom     1 has atomic number  8 and mass  15.99491

 Molecular mass:   126.06808 amu.
 Principal axes and moments of inertia in atomic units:
                           1         2         3
     Eigenvalues --   745.623861163.669921826.47555
           X            0.99990   0.01413   0.00270
           Y           -0.01413   0.99990  -0.00260
           Z           -0.00273   0.00256   0.99999
 This molecule is an asymmetric top.
 Rotational symmetry number  1.
 Warning -- assumption of classical behavior for rotation
           may cause significant error
 Rotational temperatures (Kelvin)      0.11616     0.07443     0.04742
 Rotational constants (GHZ):           2.42044     1.55090     0.98810
 Zero-point vibrational energy     420271.4 (Joules/Mol)
                                  100.44728 (Kcal/Mol)
 Warning -- explicit consideration of  12 degrees of freedom as
           vibrations may cause significant error
 Vibrational temperatures:     55.74   185.94   282.89   405.70   455.48
          (Kelvin)            480.92   563.95   576.24   647.87   680.36
                              717.30   821.38   971.42  1000.73  1113.68
                             1214.18  1274.36  1288.11  1385.42  1439.67
                             1460.25  1473.54  1504.06  1546.59  1577.75
                             1598.70  1718.33  1748.49  1803.46  1820.18
                             1846.53  1926.23  1943.47  1983.55  2016.47
                             2049.94  2071.57  2100.10  2116.11  2431.30
                             2473.58  4199.77  4316.40  4334.69  4365.03
                             4504.73  4527.02  4545.79  4578.42  5420.71
                             5529.81

 Zero-point correction=                           0.160073 (Hartree/Particle)
 Thermal correction to Energy=                    0.168660
 Thermal correction to Enthalpy=                  0.169605
 Thermal correction to Gibbs Free Energy=         0.126487
 Sum of electronic and zero-point Energies=           -423.032040
 Sum of electronic and thermal Energies=              -423.023452
 Sum of electronic and thermal Enthalpies=            -423.022508
 Sum of electronic and thermal Free Energies=         -423.065626

                     E (Thermal)             CV                S
                      KCal/Mol        Cal/Mol-Kelvin    Cal/Mol-Kelvin
 Total                  105.836             33.159             90.748
 Electronic               0.000              0.000              0.000
 Translational            0.889              2.981             40.409
 Rotational               0.889              2.981             28.851
 Vibrational            104.059             27.197             21.489
 Vibration     1          0.594              1.981              5.323
 Vibration     2          0.612              1.924              2.957
 Vibration     3          0.636              1.845              2.164
 Vibration     4          0.681              1.707              1.522
 Vibration     5          0.703              1.642              1.328
 Vibration     6          0.716              1.607              1.239
 Vibration     7          0.759              1.487              0.993
 Vibration     8          0.766              1.469              0.961
 Vibration     9          0.809              1.360              0.795
 Vibration    10          0.830              1.310              0.730
 Vibration    11          0.854              1.253              0.662
 Vibration    12          0.927              1.094              0.503

 Optimization completed.
    -- Stationary point found.
 Normal termination of Gaussian 09 at Tue Jan 28 04:41:00 2020.
