 Gaussian 09, Revision D.01,
 Gaussian 09:  ES64L-G09RevD.01 24-Apr-2013

 -----------------------------
 # b3lyp 6-31G(2df,p) opt Freq
 -----------------------------

 -----
 titel
 -----
 Symbolic Z-matrix:
 Charge =  0 Multiplicity = 1

 SCF Done:  E(RB3LYP) =  -423.196168805     A.U. after   14 cycles
 Optimization completed.
    -- Stationary point found.
 Normal termination of Gaussian 09 at Tue Jan 28 01:55:13 2020.

 ----------------------------------------------------------------------
 #N Geom=AllCheck Guess=TCheck SCRF=Check GenChk RB3LYP/6-31G(2df,p) Fr
 eq
 ----------------------------------------------------------------------

 Structure from the checkpoint file:  "/scratch/puck/g09_dd5d142b-dbb9-4f40-91e2-febb88fae807/Gau-87576.chk"
 -----
 titel
 -----
 Charge =  0 Multiplicity = 1

                         Standard orientation:
 ---------------------------------------------------------------------
 Center     Atomic      Atomic             Coordinates (Angstroms)
 Number     Number       Type             X           Y           Z
 ---------------------------------------------------------------------
      1          6           0       -1.969726   -0.975752    1.136555
      2          6           0       -1.608022    0.342828    0.492992
      3          6           0       -1.613678    0.530445   -0.986014
      4          6           0       -0.275982    0.599680   -0.257458
      5          6           0        0.362604    1.966554   -0.065441
      6          6           0        0.602504   -0.583462   -0.452291
      7          8           0        0.240830   -1.636203   -0.946168
      8          6           0        2.062514   -0.589099    0.040151
      9          8           0        2.553318    0.181515    0.821155
     10          1           0       -1.535685   -1.062452    2.138432
     11          1           0       -3.058017   -1.049431    1.238940
     12          1           0       -1.631482   -1.824011    0.538679
     13          1           0       -1.897769    1.212355    1.078766
     14          1           0       -1.771090   -0.351673   -1.596884
     15          1           0       -1.982888    1.460637   -1.404092
     16          1           0        0.941795    2.022732    0.856734
     17          1           0        1.032149    2.216301   -0.895783
     18          1           0       -0.417754    2.732762   -0.035427
     19          1           0        2.606285   -1.466887   -0.370224
 ---------------------------------------------------------------------

 SCF Done:  E(RB3LYP) =  -423.196168805     A.U. after    1 cycles

 The electronic state is 1-A.
 Alpha  occ. eigenvalues --  -19.16729 -19.15150 -10.28596 -10.28144 -10.21494
 Alpha  occ. eigenvalues --  -10.21258 -10.19538 -10.18452 -10.18159  -1.07408
 Alpha  occ. eigenvalues --   -1.05505  -0.88064  -0.74606  -0.70490  -0.68621
 Alpha  occ. eigenvalues --   -0.62279  -0.58825  -0.52448  -0.48883  -0.47564
 Alpha  occ. eigenvalues --   -0.47404  -0.45375  -0.43986  -0.41430  -0.40890
 Alpha  occ. eigenvalues --   -0.40019  -0.39404  -0.38671  -0.37051  -0.36126
 Alpha  occ. eigenvalues --   -0.31360  -0.30069  -0.27960  -0.24634
 Alpha virt. eigenvalues --   -0.08914   0.02624   0.08839   0.11384   0.12272
 Alpha virt. eigenvalues --    0.13683   0.13778   0.14400   0.16071   0.16621
 Alpha virt. eigenvalues --    0.17289   0.17746   0.20243   0.20652   0.23547

 Mulliken charges:
               1
     1  C   -0.428647
     2  C   -0.004509
     3  C   -0.313206
     4  C    0.200845
     5  C   -0.478702
     6  C    0.229342
     7  O   -0.305532
     8  C    0.092566
     9  O   -0.228672
    10  H    0.120503
    11  H    0.122507
    12  H    0.151130
    13  H    0.097930
    14  H    0.137881
    15  H    0.116256
    16  H    0.150399
    17  H    0.119769
    18  H    0.112315
    19  H    0.107823
 Sum of Mulliken charges =   0.00000

 Dipole moment (field-independent basis, Debye):
    X=             -1.3110    Y=              1.1189    Z=             -0.1385  Tot=              1.7291
 Quadrupole moment (field-independent basis, Debye-Ang):
   XX=            -54.6849   YY=            -54.7921   ZZ=            -54.1150
   XY=             -2.7340   XZ=             -3.5696   YZ=             -2.7934

  Exact polarizability:  88.282  -0.790  78.355   0.593   3.365  66.732
 Approx polarizability: 121.087   2.365 121.923   5.343  16.563 107.144

                      1                      2                      3
                      A                      A                      A
 Frequencies --     34.3739               100.8435               170.9683
 Red. masses --      5.8344                 3.0125                 2.1010
 Frc consts  --      0.0041                 0.0181                 0.0362
 IR Inten    --      0.9879                14.4900                 1.1415

                      4                      5                      6
                      A                      A                      A
 Frequencies --    181.0173               198.9232               221.9168
 Red. masses --      1.7778                 2.9161                 1.2967
 Frc consts  --      0.0343                 0.0680                 0.0376
 IR Inten    --      1.6973                 0.2073                 1.4824

                      7                      8                      9
                      A                      A                      A
 Frequencies --    258.9282               316.3924               322.4992
 Red. masses --      1.8463                 3.1729                 2.8653
 Frc consts  --      0.0729                 0.1871                 0.1756
 IR Inten    --      4.5395                 6.7250                 1.5815

                     10                     11                     12
                      A                      A                      A
 Frequencies --    397.4284               438.7654               489.4935
 Red. masses --      3.1213                 2.0628                 5.5431
 Frc consts  --      0.2905                 0.2340                 0.7825
 IR Inten    --      0.9573                 0.2743                10.3974

                     13                     14                     15
                      A                      A                      A
 Frequencies --    595.4695               616.0586               688.0611
 Red. masses --      3.8669                 4.2149                 4.7587
 Frc consts  --      0.8079                 0.9425                 1.3274
 IR Inten    --     27.9952                 0.9315                31.8352

                     16                     17                     18
                      A                      A                      A
 Frequencies --    745.6039               832.4032               884.0899
 Red. masses --      3.1677                 3.0915                 1.3098
 Frc consts  --      1.0375                 1.2621                 0.6032
 IR Inten    --      0.9224                77.6343                 1.2521

                     19                     20                     21
                      A                      A                      A
 Frequencies --    931.6681               972.4911              1009.7402
 Red. masses --      1.5961                 1.3608                 1.5588
 Frc consts  --      0.8163                 0.7583                 0.9364
 IR Inten    --      0.4239                 1.3078                 4.0773

                     22                     23                     24
                      A                      A                      A
 Frequencies --   1036.1679              1072.9830              1102.6080
 Red. masses --      1.5976                 1.2605                 1.5561
 Frc consts  --      1.0106                 0.8550                 1.1146
 IR Inten    --      2.7372                 2.0700                11.2285

                     25                     26                     27
                      A                      A                      A
 Frequencies --   1118.2932              1132.9678              1163.9885
 Red. masses --      2.2091                 1.7466                 2.9966
 Frc consts  --      1.6277                 1.3209                 2.3921
 IR Inten    --      0.1562                 2.0286                28.9236

                     28                     29                     30
                      A                      A                      A
 Frequencies --   1202.4337              1266.8084              1347.7480
 Red. masses --      1.6921                 2.3261                 2.9663
 Frc consts  --      1.4414                 2.1994                 3.1746
 IR Inten    --      1.1655                 4.3694                20.5231

                     31                     32                     33
                      A                      A                      A
 Frequencies --   1378.5591              1396.6932              1422.4755
 Red. masses --      1.2446                 1.3493                 1.2471
 Frc consts  --      1.3936                 1.5509                 1.4868
 IR Inten    --     12.8566                 5.0876                 6.3729

                     34                     35                     36
                      A                      A                      A
 Frequencies --   1424.7345              1474.8907              1490.9640
 Red. masses --      1.4032                 1.2620                 1.0486
 Frc consts  --      1.6782                 1.6175                 1.3733
 IR Inten    --      5.8729                15.8677                 5.1784

                     37                     38                     39
                      A                      A                      A
 Frequencies --   1499.8489              1503.8516              1506.3166
 Red. masses --      1.0757                 1.0538                 1.0675
 Frc consts  --      1.4257                 1.4041                 1.4271
 IR Inten    --      2.4685                 4.3159                20.4709

                     40                     41                     42
                      A                      A                      A
 Frequencies --   1749.0371              1826.3405              2916.7331
 Red. masses --     11.0314                11.0109                 1.0867
 Frc consts  --     19.8828                21.6390                 5.4470
 IR Inten    --     87.3296               105.5992               106.2431

                     43                     44                     45
                      A                      A                      A
 Frequencies --   3035.7578              3040.0900              3092.0945
 Red. masses --      1.0380                 1.0395                 1.1009
 Frc consts  --      5.6363                 5.6606                 6.2017
 IR Inten    --     31.9612                22.8771                19.5046

                     46                     47                     48
                      A                      A                      A
 Frequencies --   3098.8578              3125.5979              3133.9200
 Red. masses --      1.1000                 1.0897                 1.0551
 Frc consts  --      6.2236                 6.2724                 6.1053
 IR Inten    --     19.2311                 1.7403                 9.4936

                     49                     50                     51
                      A                      A                      A
 Frequencies --   3142.7938              3144.1700              3227.5710
 Red. masses --      1.0950                 1.0979                 1.1170
 Frc consts  --      6.3725                 6.3949                 6.8555
 IR Inten    --     17.4223                 6.9309                 2.6576

 - Thermochemistry -
 -------------------
 Temperature   298.150 Kelvin.  Pressure   1.00000 Atm.
 Atom     1 has atomic number  6 and mass  12.00000

 Molecular mass:   126.06808 amu.
 Principal axes and moments of inertia in atomic units:
                           1         2         3
     Eigenvalues --   781.134981349.190601616.40998
           X            0.99964   0.01183  -0.02403
           Y           -0.01327   0.99809  -0.06027
           Z            0.02327   0.06056   0.99789
 This molecule is an asymmetric top.
 Rotational symmetry number  1.
 Warning -- assumption of classical behavior for rotation
           may cause significant error
 Rotational temperatures (Kelvin)      0.11088     0.06420     0.05358
 Rotational constants (GHZ):           2.31041     1.33765     1.11651
 Zero-point vibrational energy     409615.9 (Joules/Mol)
                                   97.90055 (Kcal/Mol)
 Warning -- explicit consideration of  14 degrees of freedom as
           vibrations may cause significant error
 Vibrational temperatures:     49.46   145.09   245.98   260.44   286.21
          (Kelvin)            319.29   372.54   455.22   464.00   571.81
                              631.28   704.27   856.75   886.37   989.97
                             1072.76  1197.64  1272.01  1340.46  1399.20
                             1452.79  1490.81  1543.78  1586.41  1608.97
                             1630.09  1674.72  1730.03  1822.65  1939.11
                             1983.44  2009.53  2046.62  2049.87  2122.04
                             2145.16  2157.95  2163.70  2167.25  2516.47
                             2627.69  4196.52  4367.77  4374.01  4448.83
                             4458.56  4497.03  4509.01  4521.77  4523.75
                             4643.75

 Zero-point correction=                           0.156014 (Hartree/Particle)
 Thermal correction to Energy=                    0.165844
 Thermal correction to Enthalpy=                  0.166788
 Thermal correction to Gibbs Free Energy=         0.120866
 Sum of electronic and zero-point Energies=           -423.040154
 Sum of electronic and thermal Energies=              -423.030325
 Sum of electronic and thermal Enthalpies=            -423.029381
 Sum of electronic and thermal Free Energies=         -423.075303

                     E (Thermal)             CV                S
                      KCal/Mol        Cal/Mol-Kelvin    Cal/Mol-Kelvin
 Total                  104.068             35.446             96.651
 Electronic               0.000              0.000              0.000
 Translational            0.889              2.981             40.409
 Rotational               0.889              2.981             28.923
 Vibrational            102.291             29.484             27.320
 Vibration     1          0.594              1.983              5.560
 Vibration     2          0.604              1.948              3.438
 Vibration     3          0.626              1.878              2.425
 Vibration     4          0.630              1.866              2.318
 Vibration     5          0.637              1.841              2.143
 Vibration     6          0.648              1.808              1.943
 Vibration     7          0.668              1.748              1.669
 Vibration     8          0.703              1.642              1.329
 Vibration     9          0.708              1.630              1.297
 Vibration    10          0.764              1.476              0.972
 Vibration    11          0.799              1.386              0.830
 Vibration    12          0.845              1.273              0.685
 Vibration    13          0.953              1.041              0.458
 Vibration    14          0.976              0.998              0.423

 Optimization completed.
    -- Stationary point found.
 Normal termination of Gaussian 09 at Tue Jan 28 02:35:06 2020.
