 Gaussian 09, Revision D.01,
 Gaussian 09:  ES64L-G09RevD.01 24-Apr-2013

 -----------------------------
 # b3lyp 6-31G(2df,p) opt Freq
 -----------------------------

 -----
 titel
 -----
 Symbolic Z-matrix:
 Charge =  0 Multiplicity = 1

 SCF Done:  E(RB3LYP) =  -423.156545196     A.U. after   14 cycles
 Optimization completed.
    -- Stationary point found.
 Normal termination of Gaussian 09 at Mon Jan 27 23:07:27 2020.

 ----------------------------------------------------------------------
 #N Geom=AllCheck Guess=TCheck SCRF=Check GenChk RB3LYP/6-31G(2df,p) Fr
 eq
 ----------------------------------------------------------------------

 Structure from the checkpoint file:  "/scratch/puck/g09_5d4df79c-5b0e-458b-a58a-2c19389ff7be/Gau-18434.chk"
 -----
 titel
 -----
 Charge =  0 Multiplicity = 1

                         Standard orientation:
 ---------------------------------------------------------------------
 Center     Atomic      Atomic             Coordinates (Angstroms)
 Number     Number       Type             X           Y           Z
 ---------------------------------------------------------------------
      1          6           0       -1.353538    1.833510   -0.063910
      2          6           0       -0.440765    0.739222   -0.596783
      3          6           0       -1.094006   -0.573193   -1.050217
      4          8           0       -1.666772   -1.207072    0.109949
      5          6           0       -0.274280   -1.376527   -0.139147
      6          6           0        0.446550   -0.104660    0.409873
      7          6           0        0.298766    0.119262    1.912446
      8          6           0        1.908629   -0.141094    0.009525
      9          8           0        2.377713    0.322736   -0.998631
     10          1           0       -0.779104    2.633368    0.414411
     11          1           0       -1.923987    2.284423   -0.883123
     12          1           0       -2.066209    1.437757    0.664336
     13          1           0        0.219502    1.119362   -1.381148
     14          1           0       -1.530379   -0.827033   -2.009243
     15          1           0        0.105690   -2.389558   -0.213503
     16          1           0        0.559946    1.145028    2.192233
     17          1           0       -0.731229   -0.071155    2.220042
     18          1           0        0.952798   -0.556934    2.475296
     19          1           0        2.557308   -0.679691    0.739422
 ---------------------------------------------------------------------

 SCF Done:  E(RB3LYP) =  -423.156545196     A.U. after    1 cycles

 The electronic state is 1-A.
 Alpha  occ. eigenvalues --  -19.16095 -19.14807 -10.27550 -10.24850 -10.24145
 Alpha  occ. eigenvalues --  -10.21183 -10.19730 -10.18657 -10.17774  -1.08662
 Alpha  occ. eigenvalues --   -1.05412  -0.83398  -0.75200  -0.70858  -0.64922
 Alpha  occ. eigenvalues --   -0.62418  -0.59996  -0.53550  -0.51659  -0.48327
 Alpha  occ. eigenvalues --   -0.45811  -0.45309  -0.42616  -0.42014  -0.40473
 Alpha  occ. eigenvalues --   -0.39158  -0.38924  -0.38137  -0.35963  -0.33836
 Alpha  occ. eigenvalues --   -0.32264  -0.29617  -0.26654  -0.25511
 Alpha virt. eigenvalues --   -0.03244   0.08382   0.09383   0.10209   0.11723
 Alpha virt. eigenvalues --    0.12700   0.13930   0.15142   0.15652   0.16301
 Alpha virt. eigenvalues --    0.17029   0.17605   0.18326   0.20081   0.20791

 Mulliken charges:
               1
     1  C   -0.418346
     2  C   -0.066062
     3  C    0.028104
     4  O   -0.250037
     5  C   -0.011854
     6  C    0.169079
     7  C   -0.473687
     8  C    0.106714
     9  O   -0.247396
    10  H    0.118978
    11  H    0.119079
    12  H    0.131021
    13  H    0.110491
    14  H    0.107333
    15  H    0.108845
    16  H    0.125988
    17  H    0.146663
    18  H    0.117193
    19  H    0.077894
 Sum of Mulliken charges =   0.00000

 Dipole moment (field-independent basis, Debye):
    X=             -0.2123    Y=             -0.2830    Z=              0.8047  Tot=              0.8790
 Quadrupole moment (field-independent basis, Debye-Ang):
   XX=            -60.2329   YY=            -51.6948   ZZ=            -52.5534
   XY=             -4.2044   XZ=              6.3986   YZ=              1.3443

  Exact polarizability:  78.618  -2.970  72.688   4.370  -3.209  74.043
 Approx polarizability: 116.800   1.594 106.428  -0.561 -11.313 114.553

                      1                      2                      3
                      A                      A                      A
 Frequencies --     70.1679               139.1207               199.1250
 Red. masses --      4.9527                 2.6549                 1.5788
 Frc consts  --      0.0144                 0.0303                 0.0369
 IR Inten    --      6.8139                 1.4564                 4.9442

                      4                      5                      6
                      A                      A                      A
 Frequencies --    213.3343               227.7712               249.7917
 Red. masses --      1.8429                 1.5135                 1.7122
 Frc consts  --      0.0494                 0.0463                 0.0629
 IR Inten    --      3.7829                 1.3393                 2.1068

                      7                      8                      9
                      A                      A                      A
 Frequencies --    260.5062               309.7480               393.7390
 Red. masses --      2.6223                 2.5508                 2.3933
 Frc consts  --      0.1048                 0.1442                 0.2186
 IR Inten    --      0.9982                 3.0170                 1.2365

                     10                     11                     12
                      A                      A                      A
 Frequencies --    447.0022               571.1723               627.7214
 Red. masses --      5.2465                 3.4249                 4.1643
 Frc consts  --      0.6176                 0.6583                 0.9668
 IR Inten    --      1.9567                 0.6352                 5.4218

                     13                     14                     15
                      A                      A                      A
 Frequencies --    674.8828               737.3188               831.2129
 Red. masses --      4.5446                 3.8002                 3.0995
 Frc consts  --      1.2196                 1.2172                 1.2617
 IR Inten    --     22.2846                 0.7920                 8.3056

                     16                     17                     18
                      A                      A                      A
 Frequencies --    845.9598               863.7591               883.2903
 Red. masses --      3.1516                 1.4767                 2.7236
 Frc consts  --      1.3289                 0.6491                 1.2520
 IR Inten    --      7.0075                23.4253                 5.0593

                     19                     20                     21
                      A                      A                      A
 Frequencies --    938.8765               983.4131              1003.5060
 Red. masses --      1.7031                 1.8362                 2.0032
 Frc consts  --      0.8845                 1.0463                 1.1885
 IR Inten    --     43.2870                 9.2485                12.9129

                     22                     23                     24
                      A                      A                      A
 Frequencies --   1038.9933              1055.4697              1077.0432
 Red. masses --      1.5544                 1.3097                 1.5129
 Frc consts  --      0.9886                 0.8596                 1.0340
 IR Inten    --      5.5258                 0.6639                 3.4184

                     25                     26                     27
                      A                      A                      A
 Frequencies --   1127.8805              1148.1090              1188.8563
 Red. masses --      2.7097                 2.1148                 2.5506
 Frc consts  --      2.0310                 1.6424                 2.1240
 IR Inten    --      0.1640                 3.1226                11.1075

                     28                     29                     30
                      A                      A                      A
 Frequencies --   1210.8605              1244.1474              1254.2121
 Red. masses --      2.3128                 1.4149                 1.6788
 Frc consts  --      1.9979                 1.2904                 1.5559
 IR Inten    --      7.2542                11.6607                 6.6377

                     31                     32                     33
                      A                      A                      A
 Frequencies --   1281.0501              1370.4269              1383.7849
 Red. masses --      1.8362                 1.6571                 2.4555
 Frc consts  --      1.7755                 1.8336                 2.7703
 IR Inten    --      0.5755                 5.4193                19.7252

                     34                     35                     36
                      A                      A                      A
 Frequencies --   1401.2748              1411.0047              1430.7952
 Red. masses --      1.2871                 1.3108                 1.2523
 Frc consts  --      1.4890                 1.5376                 1.5105
 IR Inten    --      2.6643                 6.4853                 3.6491

                     37                     38                     39
                      A                      A                      A
 Frequencies --   1483.9398              1497.3489              1498.6385
 Red. masses --      1.0481                 1.0480                 1.0488
 Frc consts  --      1.3598                 1.3844                 1.3879
 IR Inten    --      2.0829                 5.3260                11.2528

                     40                     41                     42
                      A                      A                      A
 Frequencies --   1513.1922              1820.9460              2858.1900
 Red. masses --      1.0493                10.9996                 1.0823
 Frc consts  --      1.4156                21.4892                 5.2092
 IR Inten    --      4.3109               144.0356               122.6929

                     43                     44                     45
                      A                      A                      A
 Frequencies --   3032.8916              3036.7776              3081.2726
 Red. masses --      1.0378                 1.0366                 1.0849
 Frc consts  --      5.6242                 5.6321                 6.0687
 IR Inten    --     24.8441                22.0312                 1.0659

                     46                     47                     48
                      A                      A                      A
 Frequencies --   3094.3487              3098.3859              3119.8556
 Red. masses --      1.0999                 1.1002                 1.1002
 Frc consts  --      6.2048                 6.2227                 6.3097
 IR Inten    --     23.1281                19.5541                13.8080

                     49                     50                     51
                      A                      A                      A
 Frequencies --   3134.3756              3174.4327              3193.3935
 Red. masses --      1.0989                 1.0877                 1.1000
 Frc consts  --      6.3609                 6.4580                 6.6090
 IR Inten    --      8.7236                13.3956                20.5518

 - Thermochemistry -
 -------------------
 Temperature   298.150 Kelvin.  Pressure   1.00000 Atm.
 Atom     1 has atomic number  6 and mass  12.00000

 Molecular mass:   126.06808 amu.
 Principal axes and moments of inertia in atomic units:
                           1         2         3
     Eigenvalues --   805.910721233.608831301.41716
           X            0.99553  -0.08369   0.04387
           Y            0.08188   0.99578   0.04152
           Z           -0.04716  -0.03774   0.99817
 This molecule is an asymmetric top.
 Rotational symmetry number  1.
 Warning -- assumption of classical behavior for rotation
           may cause significant error
 Rotational temperatures (Kelvin)      0.10747     0.07021     0.06655
 Rotational constants (GHZ):           2.23938     1.46298     1.38675
 Zero-point vibrational energy     411116.5 (Joules/Mol)
                                   98.25921 (Kcal/Mol)
 Warning -- explicit consideration of  11 degrees of freedom as
           vibrations may cause significant error
 Vibrational temperatures:    100.96   200.16   286.50   306.94   327.71
          (Kelvin)            359.39   374.81   445.66   566.50   643.14
                              821.79   903.15   971.00  1060.84  1195.93
                             1217.15  1242.76  1270.86  1350.83  1414.91
                             1443.82  1494.88  1518.58  1549.62  1622.77
                             1651.87  1710.50  1742.16  1790.05  1804.53
                             1843.14  1971.74  1990.96  2016.12  2030.12
                             2058.59  2135.06  2154.35  2156.20  2177.14
                             2619.93  4112.29  4363.65  4369.24  4433.26
                             4452.07  4457.88  4488.77  4509.66  4567.29
                             4594.58

 Zero-point correction=                           0.156586 (Hartree/Particle)
 Thermal correction to Energy=                    0.165628
 Thermal correction to Enthalpy=                  0.166572
 Thermal correction to Gibbs Free Energy=         0.122975
 Sum of electronic and zero-point Energies=           -422.999959
 Sum of electronic and thermal Energies=              -422.990917
 Sum of electronic and thermal Enthalpies=            -422.989973
 Sum of electronic and thermal Free Energies=         -423.033570

                     E (Thermal)             CV                S
                      KCal/Mol        Cal/Mol-Kelvin    Cal/Mol-Kelvin
 Total                  103.933             33.726             91.758
 Electronic               0.000              0.000              0.000
 Translational            0.889              2.981             40.409
 Rotational               0.889              2.981             28.650
 Vibrational            102.156             27.764             22.700
 Vibration     1          0.598              1.968              4.149
 Vibration     2          0.615              1.914              2.816
 Vibration     3          0.637              1.841              2.141
 Vibration     4          0.644              1.821              2.015
 Vibration     5          0.651              1.799              1.896
 Vibration     6          0.663              1.763              1.732
 Vibration     7          0.669              1.745              1.658
 Vibration     8          0.699              1.655              1.364
 Vibration     9          0.761              1.484              0.986
 Vibration    10          0.806              1.368              0.805
 Vibration    11          0.927              1.094              0.502

 Optimization completed.
    -- Stationary point found.
 Normal termination of Gaussian 09 at Mon Jan 27 23:55:15 2020.
