 Gaussian 09, Revision D.01,
 Gaussian 09:  ES64L-G09RevD.01 24-Apr-2013

 -----------------------------
 # b3lyp 6-31G(2df,p) opt Freq
 -----------------------------

 -----
 titel
 -----
 Symbolic Z-matrix:
 Charge =  0 Multiplicity = 1

 SCF Done:  E(RB3LYP) =  -423.164843375     A.U. after   12 cycles
 Optimization completed.
    -- Stationary point found.
 Normal termination of Gaussian 09 at Mon Jan 27 12:18:25 2020.

 ----------------------------------------------------------------------
 #N Geom=AllCheck Guess=TCheck SCRF=Check GenChk RB3LYP/6-31G(2df,p) Fr
 eq
 ----------------------------------------------------------------------

 Structure from the checkpoint file:  "/scratch/puck/g09_b3b53107-7ffd-4c6a-9333-37e5eec8fdd1/Gau-167161.chk"
 -----
 titel
 -----
 Charge =  0 Multiplicity = 1

                         Standard orientation:
 ---------------------------------------------------------------------
 Center     Atomic      Atomic             Coordinates (Angstroms)
 Number     Number       Type             X           Y           Z
 ---------------------------------------------------------------------
      1          6           0        2.272438    0.083327   -0.122529
      2          6           0        1.527728   -1.063808    0.642011
      3          6           0        0.205434   -0.521050    0.102605
      4          8           0       -0.826928   -1.383246   -0.246710
      5          6           0       -1.969217   -0.562971   -0.519132
      6          6           0       -1.900810    0.596289    0.496682
      7          6           0       -0.398646    0.769323    0.721008
      8          8           0        0.266939    1.612527   -0.252813
      9          6           0        0.946165    0.483647   -0.836099
     10          1           0        2.660100    0.885215    0.508778
     11          1           0        3.065550   -0.259538   -0.789818
     12          1           0        1.749490   -2.048173    0.222290
     13          1           0        1.638617   -1.111430    1.728445
     14          1           0       -1.919561   -0.182699   -1.549116
     15          1           0       -2.859687   -1.187381   -0.421466
     16          1           0       -2.370908    1.513135    0.134290
     17          1           0       -2.378541    0.305938    1.437660
     18          1           0       -0.133378    1.046990    1.745833
     19          1           0        0.929680    0.495153   -1.927982
 ---------------------------------------------------------------------

 SCF Done:  E(RB3LYP) =  -423.164843375     A.U. after    1 cycles

 The electronic state is 1-A.
 Alpha  occ. eigenvalues --  -19.14727 -19.13220 -10.23233 -10.23113 -10.23107
 Alpha  occ. eigenvalues --  -10.22506 -10.18701 -10.18536 -10.18382  -1.05910
 Alpha  occ. eigenvalues --   -1.02336  -0.82381  -0.77059  -0.70767  -0.64780
 Alpha  occ. eigenvalues --   -0.61828  -0.59892  -0.52447  -0.50696  -0.50231
 Alpha  occ. eigenvalues --   -0.47988  -0.45297  -0.42584  -0.41250  -0.38992
 Alpha  occ. eigenvalues --   -0.38778  -0.37479  -0.34815  -0.34576  -0.33613
 Alpha  occ. eigenvalues --   -0.31002  -0.28614  -0.25678  -0.23386
 Alpha virt. eigenvalues --    0.06758   0.09137   0.10295   0.11086   0.12486
 Alpha virt. eigenvalues --    0.14241   0.14516   0.16043   0.16611   0.17212
 Alpha virt. eigenvalues --    0.18464   0.18744   0.19875   0.20284   0.21766

 Mulliken charges:
               1
     1  C   -0.241891
     2  C   -0.333185
     3  C    0.408972
     4  O   -0.297795
     5  C   -0.104364
     6  C   -0.247764
     7  C    0.049166
     8  O   -0.310780
     9  C    0.033191
    10  H    0.115077
    11  H    0.107368
    12  H    0.117480
    13  H    0.101647
    14  H    0.106451
    15  H    0.112141
    16  H    0.118178
    17  H    0.109627
    18  H    0.076760
    19  H    0.079722
 Sum of Mulliken charges =   0.00000

 Dipole moment (field-independent basis, Debye):
    X=             -0.3077    Y=             -0.3625    Z=              0.3988  Tot=              0.6206
 Quadrupole moment (field-independent basis, Debye-Ang):
   XX=            -48.2956   YY=            -59.4316   ZZ=            -50.7024
   XY=             -1.8949   XZ=             -0.4832   YZ=              0.7294

  Exact polarizability:  87.705  -1.688  66.378  -1.162   0.004  68.451
 Approx polarizability: 111.846  -0.778 103.393  -2.441  -1.088 103.525

                      1                      2                      3
                      A                      A                      A
 Frequencies --    118.6505               189.5533               227.2690
 Red. masses --      2.8815                 2.1184                 2.1419
 Frc consts  --      0.0239                 0.0448                 0.0652
 IR Inten    --      2.6731                 1.3575                 1.7317

                      4                      5                      6
                      A                      A                      A
 Frequencies --    336.4913               385.1686               451.2190
 Red. masses --      2.6931                 3.4387                 2.6981
 Frc consts  --      0.1797                 0.3006                 0.3237
 IR Inten    --      2.6681                 4.5515                 3.4977

                      7                      8                      9
                      A                      A                      A
 Frequencies --    486.9608               622.0918               681.9165
 Red. masses --      4.4913                 2.8477                 3.3129
 Frc consts  --      0.6275                 0.6493                 0.9077
 IR Inten    --      2.0755                 2.5528                 3.2661

                     10                     11                     12
                      A                      A                      A
 Frequencies --    712.2759               784.9548               814.2857
 Red. masses --      1.7473                 2.3707                 2.2544
 Frc consts  --      0.5223                 0.8606                 0.8807
 IR Inten    --      2.0829                 3.2071                 7.3163

                     13                     14                     15
                      A                      A                      A
 Frequencies --    857.4244               889.0276               890.8599
 Red. masses --      2.5192                 2.0820                 2.5091
 Frc consts  --      1.0912                 0.9695                 1.1732
 IR Inten    --      5.6712                 3.7020                 0.3792

                     16                     17                     18
                      A                      A                      A
 Frequencies --    909.2142               929.1106               967.6276
 Red. masses --      2.1746                 2.9955                 2.2899
 Frc consts  --      1.0592                 1.5236                 1.2632
 IR Inten    --      8.0152                 1.9673                17.4748

                     19                     20                     21
                      A                      A                      A
 Frequencies --   1003.4696              1026.2368              1043.7850
 Red. masses --      2.7730                 2.8104                 3.1636
 Frc consts  --      1.6452                 1.7438                 2.0307
 IR Inten    --     78.0554                14.4885                16.0067

                     22                     23                     24
                      A                      A                      A
 Frequencies --   1086.6506              1103.9315              1113.4868
 Red. masses --      2.9588                 2.0841                 2.0675
 Frc consts  --      2.0585                 1.4964                 1.5103
 IR Inten    --      8.9817                14.7846                 4.1385

                     25                     26                     27
                      A                      A                      A
 Frequencies --   1134.2309              1174.2493              1200.2572
 Red. masses --      2.0107                 1.6629                 1.6033
 Frc consts  --      1.5240                 1.3509                 1.3609
 IR Inten    --     58.4529                20.5502                19.2661

                     28                     29                     30
                      A                      A                      A
 Frequencies --   1215.5598              1225.7821              1248.3095
 Red. masses --      1.5379                 1.1937                 1.4497
 Frc consts  --      1.3388                 1.0567                 1.3310
 IR Inten    --     10.9276                 0.1686                 2.3835

                     31                     32                     33
                      A                      A                      A
 Frequencies --   1265.7959              1289.8708              1299.3508
 Red. masses --      1.4483                 1.6022                 1.3916
 Frc consts  --      1.3673                 1.5706                 1.3843
 IR Inten    --     29.7237                20.7778                35.6548

                     34                     35                     36
                      A                      A                      A
 Frequencies --   1319.2513              1337.4229              1353.5180
 Red. masses --      2.2154                 1.6700                 1.3522
 Frc consts  --      2.2717                 1.7600                 1.4595
 IR Inten    --      9.6768                 7.6408                11.0052

                     37                     38                     39
                      A                      A                      A
 Frequencies --   1395.3514              1467.0422              1468.6461
 Red. masses --      1.4836                 1.0861                 1.0962
 Frc consts  --      1.7019                 1.3772                 1.3931
 IR Inten    --      5.7467                 1.7543                 4.3111

                     40                     41                     42
                      A                      A                      A
 Frequencies --   1489.5538              1516.4127              3008.6410
 Red. masses --      1.1339                 1.1017                 1.0696
 Frc consts  --      1.4823                 1.4927                 5.7046
 IR Inten    --      5.8684                 1.4971                45.9903

                     43                     44                     45
                      A                      A                      A
 Frequencies --   3051.7244              3060.6501              3066.8778
 Red. masses --      1.0738                 1.0584                 1.0758
 Frc consts  --      5.8918                 5.8417                 5.9616
 IR Inten    --      7.7659                31.4002                56.8818

                     46                     47                     48
                      A                      A                      A
 Frequencies --   3073.2952              3090.3997              3107.2460
 Red. masses --      1.0606                 1.0885                 1.0945
 Frc consts  --      5.9023                 6.1252                 6.2258
 IR Inten    --     28.6532                30.3435                29.0127

                     49                     50                     51
                      A                      A                      A
 Frequencies --   3110.7291              3121.6624              3134.8674
 Red. masses --      1.1081                 1.1035                 1.1079
 Frc consts  --      6.3177                 6.3357                 6.4148
 IR Inten    --      4.8118                19.1822                28.6385

 - Thermochemistry -
 -------------------
 Temperature   298.150 Kelvin.  Pressure   1.00000 Atm.
 Atom     1 has atomic number  6 and mass  12.00000

 Molecular mass:   126.06808 amu.
 Principal axes and moments of inertia in atomic units:
                           1         2         3
     Eigenvalues --   578.635321054.713241322.50978
           X            0.99953  -0.03046   0.00259
           Y            0.03044   0.99951   0.00744
           Z           -0.00281  -0.00736   0.99997
 This molecule is an asymmetric top.
 Rotational symmetry number  1.
 Warning -- assumption of classical behavior for rotation
           may cause significant error
 Rotational temperatures (Kelvin)      0.14969     0.08212     0.06549
 Rotational constants (GHZ):           3.11896     1.71112     1.36463
 Zero-point vibrational energy     423827.1 (Joules/Mol)
                                  101.29711 (Kcal/Mol)
 Warning -- explicit consideration of   7 degrees of freedom as
           vibrations may cause significant error
 Vibrational temperatures:    170.71   272.72   326.99   484.14   554.17
          (Kelvin)            649.20   700.63   895.05   981.12  1024.80
                             1129.37  1171.57  1233.64  1279.11  1281.75
                             1308.15  1336.78  1392.20  1443.77  1476.52
                             1501.77  1563.45  1588.31  1602.06  1631.90
                             1689.48  1726.90  1748.92  1763.62  1796.04
                             1821.20  1855.83  1869.47  1898.11  1924.25
                             1947.41  2007.60  2110.74  2113.05  2143.13
                             2181.78  4328.76  4390.75  4403.59  4412.55
                             4421.78  4446.39  4470.63  4475.64  4491.37
                             4510.37

 Zero-point correction=                           0.161427 (Hartree/Particle)
 Thermal correction to Energy=                    0.168474
 Thermal correction to Enthalpy=                  0.169419
 Thermal correction to Gibbs Free Energy=         0.130094
 Sum of electronic and zero-point Energies=           -423.003416
 Sum of electronic and thermal Energies=              -422.996369
 Sum of electronic and thermal Enthalpies=            -422.995425
 Sum of electronic and thermal Free Energies=         -423.034749

                     E (Thermal)             CV                S
                      KCal/Mol        Cal/Mol-Kelvin    Cal/Mol-Kelvin
 Total                  105.719             28.616             82.765
 Electronic               0.000              0.000              0.000
 Translational            0.889              2.981             40.409
 Rotational               0.889              2.981             28.181
 Vibrational            103.942             22.654             14.175
 Vibration     1          0.609              1.934              3.122
 Vibration     2          0.633              1.854              2.232
 Vibration     3          0.651              1.799              1.900
 Vibration     4          0.717              1.603              1.229
 Vibration     5          0.754              1.502              1.019
 Vibration     6          0.810              1.358              0.792
 Vibration     7          0.843              1.279              0.692

 Normal termination of Gaussian 09 at Mon Jan 27 13:05:46 2020.
