 Gaussian 09, Revision D.01,
 Gaussian 09:  ES64L-G09RevD.01 24-Apr-2013

 -----------------------------
 # b3lyp 6-31G(2df,p) opt Freq
 -----------------------------

 -----
 titel
 -----
 Symbolic Z-matrix:
 Charge =  0 Multiplicity = 1

 SCF Done:  E(RB3LYP) =  -423.149548315     A.U. after   14 cycles
 Optimization completed.
    -- Stationary point found.
 Normal termination of Gaussian 09 at Tue Jan 28 12:09:16 2020.

 ----------------------------------------------------------------------
 #N Geom=AllCheck Guess=TCheck SCRF=Check GenChk RB3LYP/6-31G(2df,p) Fr
 eq
 ----------------------------------------------------------------------

 Structure from the checkpoint file:  "/scratch/puck/g09_430e56e5-e8ef-4799-bb94-5ee1f48afef7/Gau-65839.chk"
 -----
 titel
 -----
 Charge =  0 Multiplicity = 1

                         Standard orientation:
 ---------------------------------------------------------------------
 Center     Atomic      Atomic             Coordinates (Angstroms)
 Number     Number       Type             X           Y           Z
 ---------------------------------------------------------------------
      1          8           0        2.504756   -0.844175   -0.047247
      2          6           0        1.373309   -0.514043   -0.830040
      3          6           0        0.231600   -0.065916    0.076499
      4          6           0       -0.517060   -1.198221    0.795249
      5          6           0       -1.860850   -1.261287   -0.010220
      6          6           0       -2.050350    0.187357   -0.468710
      7          6           0       -0.867713    0.790448   -0.463349
      8          6           0       -0.105151    2.006989   -0.002674
      9          8           0        0.719637    1.124282    0.827063
     10          1           0        2.650818   -0.078956    0.524156
     11          1           0        1.605119    0.276004   -1.561752
     12          1           0        1.092569   -1.413459   -1.388428
     13          1           0        0.030705   -2.143616    0.820049
     14          1           0       -0.726581   -0.891461    1.824227
     15          1           0       -1.796621   -1.967961   -0.848326
     16          1           0       -2.697676   -1.595805    0.611123
     17          1           0       -3.022577    0.636135   -0.634564
     18          1           0        0.503068    2.522999   -0.755649
     19          1           0       -0.656683    2.743313    0.590110
 ---------------------------------------------------------------------

 SCF Done:  E(RB3LYP) =  -423.149548315     A.U. after    1 cycles

 The electronic state is 1-A.
 Alpha  occ. eigenvalues --  -19.14403 -19.12897 -10.24618 -10.23140 -10.22423
 Alpha  occ. eigenvalues --  -10.19469 -10.19164 -10.18868 -10.18505  -1.04195
 Alpha  occ. eigenvalues --   -1.00737  -0.83954  -0.74077  -0.71734  -0.66800
 Alpha  occ. eigenvalues --   -0.64908  -0.57988  -0.52629  -0.50045  -0.48733
 Alpha  occ. eigenvalues --   -0.46491  -0.45489  -0.45086  -0.41403  -0.41080
 Alpha  occ. eigenvalues --   -0.36523  -0.36138  -0.35640  -0.34451  -0.33149
 Alpha  occ. eigenvalues --   -0.30612  -0.27721  -0.25805  -0.23749
 Alpha virt. eigenvalues --   -0.00141   0.06525   0.09066   0.11159   0.11597
 Alpha virt. eigenvalues --    0.13357   0.14338   0.15365   0.16108   0.16426
 Alpha virt. eigenvalues --    0.17355   0.17839   0.19506   0.20943   0.22255

 Mulliken charges:
               1
     1  O   -0.424308
     2  C   -0.108189
     3  C    0.396308
     4  C   -0.298338
     5  C   -0.250857
     6  C   -0.201376
     7  C    0.145546
     8  C   -0.170900
     9  O   -0.358359
    10  H    0.291946
    11  H    0.080815
    12  H    0.107594
    13  H    0.109359
    14  H    0.117486
    15  H    0.112865
    16  H    0.110539
    17  H    0.103105
    18  H    0.113010
    19  H    0.123754
 Sum of Mulliken charges =   0.00000

 Dipole moment (field-independent basis, Debye):
    X=             -2.0943    Y=              0.8981    Z=             -0.5781  Tot=              2.3509
 Quadrupole moment (field-independent basis, Debye-Ang):
   XX=            -55.0386   YY=            -51.0346   ZZ=            -53.9649
   XY=              2.9860   XZ=             -0.5318   YZ=             -0.9211

  Exact polarizability:  88.116   5.801  83.292   0.720  -1.004  60.143
 Approx polarizability: 130.736  12.158 120.295   4.673   0.232  94.321

                      1                      2                      3
                      A                      A                      A
 Frequencies --     94.8348               133.1021               199.2508
 Red. masses --      4.1396                 2.6329                 3.4102
 Frc consts  --      0.0219                 0.0275                 0.0798
 IR Inten    --      4.1072                 0.7515                 1.8160

                      4                      5                      6
                      A                      A                      A
 Frequencies --    252.5744               297.8433               354.5695
 Red. masses --      2.1986                 3.0794                 2.1007
 Frc consts  --      0.0826                 0.1610                 0.1556
 IR Inten    --      2.3789                 0.9276                 2.2763

                      7                      8                      9
                      A                      A                      A
 Frequencies --    376.3746               488.7233               504.9547
 Red. masses --      3.4493                 1.7403                 1.5855
 Frc consts  --      0.2879                 0.2449                 0.2382
 IR Inten    --      2.0551                65.3222                50.9702

                     10                     11                     12
                      A                      A                      A
 Frequencies --    606.1806               648.5958               710.2122
 Red. masses --      2.8822                 3.9650                 3.7012
 Frc consts  --      0.6240                 0.9828                 1.0999
 IR Inten    --     12.0565                 8.1226                 8.7371

                     13                     14                     15
                      A                      A                      A
 Frequencies --    775.2858               833.7171               865.9899
 Red. masses --      2.1429                 1.5445                 2.6903
 Frc consts  --      0.7589                 0.6325                 1.1887
 IR Inten    --     19.0261                10.6559                22.7122

                     16                     17                     18
                      A                      A                      A
 Frequencies --    890.4274               915.2506               926.1305
 Red. masses --      2.9686                 2.2309                 4.1663
 Frc consts  --      1.3867                 1.1011                 2.1054
 IR Inten    --     24.4385                 6.0161                58.6426

                     19                     20                     21
                      A                      A                      A
 Frequencies --    952.8705               965.1173               996.8988
 Red. masses --      1.9844                 2.1957                 2.4875
 Frc consts  --      1.0615                 1.2050                 1.4565
 IR Inten    --      6.9847                11.9661                 5.9462

                     22                     23                     24
                      A                      A                      A
 Frequencies --   1029.3723              1065.2486              1100.3244
 Red. masses --      1.7370                 3.7825                 1.8339
 Frc consts  --      1.0844                 2.5289                 1.3082
 IR Inten    --      6.3879                84.8727                21.6379

                     25                     26                     27
                      A                      A                      A
 Frequencies --   1125.3936              1139.9455              1187.2851
 Red. masses --      1.8225                 1.2215                 1.9947
 Frc consts  --      1.3600                 0.9352                 1.6567
 IR Inten    --      1.7959                 1.2699                 5.5531

                     28                     29                     30
                      A                      A                      A
 Frequencies --   1195.2512              1227.1049              1248.0543
 Red. masses --      1.5169                 1.5243                 1.6876
 Frc consts  --      1.2768                 1.3524                 1.5488
 IR Inten    --      3.7782                 2.4939                16.4833

                     31                     32                     33
                      A                      A                      A
 Frequencies --   1280.8907              1303.0326              1318.5692
 Red. masses --      1.2826                 1.5955                 1.5080
 Frc consts  --      1.2399                 1.5961                 1.5447
 IR Inten    --      0.2583                 8.4587                 4.1428

                     34                     35                     36
                      A                      A                      A
 Frequencies --   1336.9294              1385.2281              1432.4381
 Red. masses --      1.6944                 1.3574                 1.2776
 Frc consts  --      1.7844                 1.5346                 1.5446
 IR Inten    --      9.4858                 8.7124                79.3813

                     37                     38                     39
                      A                      A                      A
 Frequencies --   1479.4610              1491.2824              1501.4340
 Red. masses --      1.0863                 1.0922                 1.0956
 Frc consts  --      1.4009                 1.4311                 1.4552
 IR Inten    --      3.2550                 2.4802                 0.0482

                     40                     41                     42
                      A                      A                      A
 Frequencies --   1512.5314              1741.6912              2977.9349
 Red. masses --      1.0986                 8.6847                 1.0694
 Frc consts  --      1.4808                15.5220                 5.5876
 IR Inten    --      1.2281                 2.5568                50.2106

                     43                     44                     45
                      A                      A                      A
 Frequencies --   3019.4199              3022.8767              3059.8949
 Red. masses --      1.0683                 1.0600                 1.0637
 Frc consts  --      5.7385                 5.7069                 5.8681
 IR Inten    --     40.0908                69.2070                12.6419

                     46                     47                     48
                      A                      A                      A
 Frequencies --   3071.4680              3075.7856              3082.3234
 Red. masses --      1.0928                 1.0895                 1.1048
 Frc consts  --      6.0742                 6.0729                 6.1843
 IR Inten    --     27.8165                26.5750                28.4852

                     49                     50                     51
                      A                      A                      A
 Frequencies --   3115.3463              3202.0446              3770.6261
 Red. masses --      1.1059                 1.0952                 1.0652
 Frc consts  --      6.3241                 6.6162                 8.9230
 IR Inten    --     23.6061                11.1266                28.0910

 - Thermochemistry -
 -------------------
 Temperature   298.150 Kelvin.  Pressure   1.00000 Atm.
 Atom     1 has atomic number  8 and mass  15.99491

 Molecular mass:   126.06808 amu.
 Principal axes and moments of inertia in atomic units:
                           1         2         3
     Eigenvalues --   709.995851112.482271514.03424
           X            0.99908   0.04093  -0.01309
           Y           -0.04115   0.99901  -0.01705
           Z            0.01237   0.01757   0.99977
 This molecule is an asymmetric top.
 Rotational symmetry number  1.
 Warning -- assumption of classical behavior for rotation
           may cause significant error
 Rotational temperatures (Kelvin)      0.12199     0.07786     0.05721
 Rotational constants (GHZ):           2.54190     1.62227     1.19201
 Zero-point vibrational energy     420416.2 (Joules/Mol)
                                  100.48187 (Kcal/Mol)
 Warning -- explicit consideration of  10 degrees of freedom as
           vibrations may cause significant error
 Vibrational temperatures:    136.45   191.50   286.68   363.40   428.53
          (Kelvin)            510.15   541.52   703.16   726.52   872.16
                              933.18  1021.84  1115.46  1199.53  1245.96
                             1281.12  1316.84  1332.49  1370.97  1388.59
                             1434.31  1481.04  1532.65  1583.12  1619.19
                             1640.13  1708.24  1719.70  1765.53  1795.67
                             1842.91  1874.77  1897.12  1923.54  1993.03
                             2060.96  2128.61  2145.62  2160.23  2176.19
                             2505.90  4284.58  4344.27  4349.24  4402.50
                             4419.15  4425.36  4434.77  4482.28  4607.02
                             5425.08

 Zero-point correction=                           0.160128 (Hartree/Particle)
 Thermal correction to Energy=                    0.168158
 Thermal correction to Enthalpy=                  0.169102
 Thermal correction to Gibbs Free Energy=         0.127613
 Sum of electronic and zero-point Energies=           -422.989420
 Sum of electronic and thermal Energies=              -422.981391
 Sum of electronic and thermal Enthalpies=            -422.980446
 Sum of electronic and thermal Free Energies=         -423.021936

                     E (Thermal)             CV                S
                      KCal/Mol        Cal/Mol-Kelvin    Cal/Mol-Kelvin
 Total                  105.521             31.342             87.321
 Electronic               0.000              0.000              0.000
 Translational            0.889              2.981             40.409
 Rotational               0.889              2.981             28.571
 Vibrational            103.743             25.380             18.342
 Vibration     1          0.603              1.953              3.558
 Vibration     2          0.613              1.920              2.901
 Vibration     3          0.637              1.841              2.140
 Vibration     4          0.664              1.758              1.713
 Vibration     5          0.691              1.678              1.429
 Vibration     6          0.730              1.566              1.146
 Vibration     7          0.747              1.520              1.054
 Vibration     8          0.845              1.275              0.687
 Vibration     9          0.860              1.239              0.646
 Vibration    10          0.965              1.019              0.439

 Optimization completed.
    -- Stationary point found.
 Normal termination of Gaussian 09 at Tue Jan 28 12:56:59 2020.
