 Gaussian 09, Revision D.01,
 Gaussian 09:  ES64L-G09RevD.01 24-Apr-2013

 -----------------------------
 # b3lyp 6-31G(2df,p) opt Freq
 -----------------------------

 -----
 titel
 -----
 Symbolic Z-matrix:
 Charge =  0 Multiplicity = 1

 SCF Done:  E(RB3LYP) =  -423.109573893     A.U. after   13 cycles
 Optimization completed.
    -- Stationary point found.
 Normal termination of Gaussian 09 at Mon Jan 27 23:07:25 2020.

 ----------------------------------------------------------------------
 #N Geom=AllCheck Guess=TCheck SCRF=Check GenChk RB3LYP/6-31G(2df,p) Fr
 eq
 ----------------------------------------------------------------------

 Structure from the checkpoint file:  "/scratch/puck/g09_f36b9e07-6de0-436e-ae85-f0bbb4e4ee0b/Gau-196146.chk"
 -----
 titel
 -----
 Charge =  0 Multiplicity = 1

                         Standard orientation:
 ---------------------------------------------------------------------
 Center     Atomic      Atomic             Coordinates (Angstroms)
 Number     Number       Type             X           Y           Z
 ---------------------------------------------------------------------
      1          8           0        2.636183   -0.688310   -0.174681
      2          6           0        1.438431   -0.130265   -0.610254
      3          6           0        0.897012    1.260694   -0.028890
      4          6           0        0.517959    0.502250    1.262389
      5          6           0        0.060526   -0.410088    0.063287
      6          8           0       -0.902165   -1.402020    0.124376
      7          6           0       -2.176981   -0.711559   -0.003882
      8          6           0       -1.908351    0.834872   -0.129058
      9          6           0       -0.470296    0.830475   -0.653553
     10          1           0        2.621662   -0.777973    0.783516
     11          1           0        1.448935   -0.193456   -1.700938
     12          1           0        1.403746    2.220047   -0.107582
     13          1           0        1.333550    0.149564    1.899830
     14          1           0       -0.263749    0.936550    1.884846
     15          1           0       -2.677645   -1.101688   -0.897353
     16          1           0       -2.794285   -0.951778    0.867637
     17          1           0       -2.615824    1.298446   -0.820137
     18          1           0       -2.027592    1.325002    0.838766
     19          1           0       -0.450743    0.759656   -1.746382
 ---------------------------------------------------------------------

 SCF Done:  E(RB3LYP) =  -423.109573893     A.U. after    1 cycles

 The electronic state is 1-A.
 Alpha  occ. eigenvalues --  -19.14412 -19.14282 -10.24479 -10.23931 -10.23403
 Alpha  occ. eigenvalues --  -10.20696 -10.19449 -10.18953 -10.18941  -1.04421
 Alpha  occ. eigenvalues --   -1.02799  -0.90179  -0.76758  -0.68433  -0.66795
 Alpha  occ. eigenvalues --   -0.62026  -0.58829  -0.54854  -0.51547  -0.49291
 Alpha  occ. eigenvalues --   -0.47334  -0.45396  -0.44524  -0.40386  -0.38317
 Alpha  occ. eigenvalues --   -0.37297  -0.36802  -0.35395  -0.33730  -0.33345
 Alpha  occ. eigenvalues --   -0.32197  -0.27898  -0.25994  -0.24255
 Alpha virt. eigenvalues --    0.06905   0.08542   0.09518   0.10423   0.12461
 Alpha virt. eigenvalues --    0.14322   0.14536   0.15178   0.16172   0.17288
 Alpha virt. eigenvalues --    0.18455   0.18721   0.20249   0.22035   0.22853

 Mulliken charges:
               1
     1  O   -0.443018
     2  C    0.110445
     3  C   -0.149665
     4  C   -0.326358
     5  C    0.382773
     6  O   -0.325029
     7  C   -0.083297
     8  C   -0.323797
     9  C    0.000987
    10  H    0.287428
    11  H    0.091299
    12  H    0.083947
    13  H    0.075558
    14  H    0.100514
    15  H    0.111189
    16  H    0.111086
    17  H    0.107026
    18  H    0.116171
    19  H    0.072740
 Sum of Mulliken charges =   0.00000

 Dipole moment (field-independent basis, Debye):
    X=             -1.4602    Y=              1.6195    Z=              0.7320  Tot=              2.3001
 Quadrupole moment (field-independent basis, Debye-Ang):
   XX=            -53.2917   YY=            -56.9475   ZZ=            -50.5249
   XY=              0.1893   XZ=              3.4046   YZ=             -0.7173

  Exact polarizability:  88.898   0.574  65.135   1.776   0.077  70.434
 Approx polarizability: 120.554  -0.561 102.985   1.611  -0.492 109.489

                      1                      2                      3
                      A                      A                      A
 Frequencies --     87.6633               187.5736               259.7343
 Red. masses --      2.2368                 1.6877                 3.0134
 Frc consts  --      0.0101                 0.0350                 0.1198
 IR Inten    --      1.5865                34.1717                 2.2885

                      4                      5                      6
                      A                      A                      A
 Frequencies --    268.8589               390.3954               415.0509
 Red. masses --      2.1065                 3.8435                 2.9744
 Frc consts  --      0.0897                 0.3451                 0.3019
 IR Inten    --     42.8972                 7.4065                 1.1207

                      7                      8                      9
                      A                      A                      A
 Frequencies --    498.9964               518.1091               610.2450
 Red. masses --      3.8310                 3.2152                 3.4345
 Frc consts  --      0.5620                 0.5085                 0.7536
 IR Inten    --      1.9068                 7.5211                 6.6865

                     10                     11                     12
                      A                      A                      A
 Frequencies --    625.0729               717.0460               744.6942
 Red. masses --      2.0943                 3.5837                 3.2048
 Frc consts  --      0.4821                 1.0856                 1.0472
 IR Inten    --     13.2744                 2.3060                 5.1891

                     13                     14                     15
                      A                      A                      A
 Frequencies --    820.2681               828.0627               892.6390
 Red. masses --      3.6925                 1.6810                 2.5754
 Frc consts  --      1.4638                 0.6791                 1.2091
 IR Inten    --      6.5150                12.3362                 1.5903

                     16                     17                     18
                      A                      A                      A
 Frequencies --    906.8939               920.0786               939.4325
 Red. masses --      2.8780                 3.1819                 1.6397
 Frc consts  --      1.3946                 1.5870                 0.8526
 IR Inten    --      2.1879                 8.6913                 3.4938

                     19                     20                     21
                      A                      A                      A
 Frequencies --    954.2715               987.8365              1023.4764
 Red. masses --      2.1699                 3.8717                 1.4184
 Frc consts  --      1.1642                 2.2260                 0.8754
 IR Inten    --     25.7600                63.8967                22.0835

                     22                     23                     24
                      A                      A                      A
 Frequencies --   1060.9288              1082.5321              1107.7630
 Red. masses --      2.1719                 1.7604                 1.5013
 Frc consts  --      1.4403                 1.2155                 1.0854
 IR Inten    --      5.0951                21.2549                 4.6161

                     25                     26                     27
                      A                      A                      A
 Frequencies --   1117.2941              1150.9977              1154.0660
 Red. masses --      1.6079                 1.6700                 2.7370
 Frc consts  --      1.1826                 1.3035                 2.1478
 IR Inten    --      9.4868                 2.6025               145.0532

                     28                     29                     30
                      A                      A                      A
 Frequencies --   1193.4230              1204.8996              1213.4252
 Red. masses --      1.7063                 1.3651                 1.5838
 Frc consts  --      1.4319                 1.1676                 1.3739
 IR Inten    --     29.4672                 0.7498                28.0681

                     31                     32                     33
                      A                      A                      A
 Frequencies --   1223.6644              1227.9798              1267.4583
 Red. masses --      1.8841                 1.5512                 1.9431
 Frc consts  --      1.6622                 1.3781                 1.8392
 IR Inten    --     60.7948                10.7331                49.9637

                     34                     35                     36
                      A                      A                      A
 Frequencies --   1284.3607              1291.1110              1386.9082
 Red. masses --      1.6078                 1.4023                 1.4587
 Frc consts  --      1.5626                 1.3773                 1.6531
 IR Inten    --     20.8033                10.5513                26.4391

                     37                     38                     39
                      A                      A                      A
 Frequencies --   1399.7771              1461.1002              1491.0364
 Red. masses --      1.3142                 1.2516                 1.1032
 Frc consts  --      1.5172                 1.5743                 1.4451
 IR Inten    --     15.6441                57.1805                 3.0634

                     40                     41                     42
                      A                      A                      A
 Frequencies --   1518.8388              1543.8333              3034.4786
 Red. masses --      1.1043                 1.1339                 1.0590
 Frc consts  --      1.5010                 1.5923                 5.7452
 IR Inten    --      0.4035                 8.3853                62.5057

                     43                     44                     45
                      A                      A                      A
 Frequencies --   3043.7994              3060.1763              3074.2812
 Red. masses --      1.0838                 1.0635                 1.0824
 Frc consts  --      5.9163                 5.8679                 6.0274
 IR Inten    --     28.0463                48.9278                 8.8893

                     46                     47                     48
                      A                      A                      A
 Frequencies --   3080.1271              3092.4736              3119.7839
 Red. masses --      1.0854                 1.0865                 1.1061
 Frc consts  --      6.0672                 6.1221                 6.3431
 IR Inten    --     31.1760                36.1100                36.8606

                     49                     50                     51
                      A                      A                      A
 Frequencies --   3136.6919              3142.5630              3819.4251
 Red. masses --      1.0976                 1.0939                 1.0648
 Frc consts  --      6.3628                 6.3651                 9.1520
 IR Inten    --     39.2033                29.8783                14.8491

 - Thermochemistry -
 -------------------
 Temperature   298.150 Kelvin.  Pressure   1.00000 Atm.
 Atom     1 has atomic number  8 and mass  15.99491

 Molecular mass:   126.06808 amu.
 Principal axes and moments of inertia in atomic units:
                           1         2         3
     Eigenvalues --   518.272151252.546731438.93541
           X            0.99995  -0.00100   0.01019
           Y            0.00092   0.99996   0.00835
           Z           -0.01020  -0.00834   0.99991
 This molecule is an asymmetric top.
 Rotational symmetry number  1.
 Warning -- assumption of classical behavior for rotation
           may cause significant error
 Rotational temperatures (Kelvin)      0.16712     0.06915     0.06019
 Rotational constants (GHZ):           3.48223     1.44086     1.25422
 Zero-point vibrational energy     422171.7 (Joules/Mol)
                                  100.90146 (Kcal/Mol)
 Warning -- explicit consideration of   9 degrees of freedom as
           vibrations may cause significant error
 Vibrational temperatures:    126.13   269.88   373.70   386.83   561.69
          (Kelvin)            597.16   717.94   745.44   878.01   899.34
                             1031.67  1071.45  1180.18  1191.40  1284.31
                             1304.82  1323.79  1351.63  1372.98  1421.27
                             1472.55  1526.44  1557.52  1593.82  1607.53
                             1656.03  1660.44  1717.07  1733.58  1745.85
                             1760.58  1766.79  1823.59  1847.91  1857.62
                             1995.45  2013.96  2102.19  2145.27  2185.27
                             2221.23  4365.93  4379.34  4402.91  4423.20
                             4431.61  4449.37  4488.67  4512.99  4521.44
                             5495.29

 Zero-point correction=                           0.160797 (Hartree/Particle)
 Thermal correction to Energy=                    0.168213
 Thermal correction to Enthalpy=                  0.169158
 Thermal correction to Gibbs Free Energy=         0.129027
 Sum of electronic and zero-point Energies=           -422.948777
 Sum of electronic and thermal Energies=              -422.941361
 Sum of electronic and thermal Enthalpies=            -422.940416
 Sum of electronic and thermal Free Energies=         -422.980546

                     E (Thermal)             CV                S
                      KCal/Mol        Cal/Mol-Kelvin    Cal/Mol-Kelvin
 Total                  105.555             30.093             84.461
 Electronic               0.000              0.000              0.000
 Translational            0.889              2.981             40.409
 Rotational               0.889              2.981             28.326
 Vibrational            103.778             24.131             15.726
 Vibration     1          0.601              1.958              3.712
 Vibration     2          0.632              1.857              2.252
 Vibration     3          0.668              1.746              1.664
 Vibration     4          0.673              1.730              1.604
 Vibration     5          0.758              1.491              0.999
 Vibration     6          0.778              1.438              0.909
 Vibration     7          0.854              1.252              0.661
 Vibration     8          0.873              1.210              0.614
 Vibration     9          0.969              1.010              0.432

 Normal termination of Gaussian 09 at Mon Jan 27 23:57:05 2020.
