 Gaussian 09, Revision D.01,
 Gaussian 09:  ES64L-G09RevD.01 24-Apr-2013

 -----------------------------
 # b3lyp 6-31G(2df,p) opt Freq
 -----------------------------

 -----
 titel
 -----
 Symbolic Z-matrix:
 Charge =  0 Multiplicity = 1

 SCF Done:  E(RB3LYP) =  -423.166156479     A.U. after   14 cycles
 Optimization completed.
    -- Stationary point found.
 Normal termination of Gaussian 09 at Mon Jan 27 14:05:31 2020.

 ----------------------------------------------------------------------
 #N Geom=AllCheck Guess=TCheck SCRF=Check GenChk RB3LYP/6-31G(2df,p) Fr
 eq
 ----------------------------------------------------------------------

 Structure from the checkpoint file:  "/scratch/puck/g09_a0681465-fe4a-42ff-9087-2daaf6fd8918/Gau-77408.chk"
 -----
 titel
 -----
 Charge =  0 Multiplicity = 1

                         Standard orientation:
 ---------------------------------------------------------------------
 Center     Atomic      Atomic             Coordinates (Angstroms)
 Number     Number       Type             X           Y           Z
 ---------------------------------------------------------------------
      1          6           0        2.242264    1.230635    0.187928
      2          6           0        1.726428   -0.163309   -0.081595
      3          8           0        2.312062   -0.975642   -0.759634
      4          6           0        0.401226   -0.556691    0.570931
      5          8           0       -0.414604    0.577329    0.967111
      6          6           0       -1.417253    0.213721   -0.006044
      7          6           0       -2.090874    1.320312   -0.747305
      8          6           0       -1.986531   -1.127155    0.341321
      9          6           0       -0.665282   -1.043177   -0.400405
     10          1           0        1.550264    1.969173   -0.228381
     11          1           0        2.272957    1.422337    1.266118
     12          1           0        3.233781    1.348779   -0.250268
     13          1           0        0.626699   -1.214175    1.423667
     14          1           0       -2.679592    1.938722   -0.060310
     15          1           0       -1.361702    1.965995   -1.246790
     16          1           0       -2.770314    0.913964   -1.501822
     17          1           0       -2.017714   -1.452206    1.378060
     18          1           0       -2.823971   -1.452251   -0.268755
     19          1           0       -0.469937   -1.499844   -1.360324
 ---------------------------------------------------------------------

 SCF Done:  E(RB3LYP) =  -423.166156479     A.U. after    1 cycles

 The electronic state is 1-A.
 Alpha  occ. eigenvalues --  -19.14554 -19.13168 -10.27116 -10.25061 -10.24481
 Alpha  occ. eigenvalues --  -10.20064 -10.19359 -10.19110 -10.18632  -1.06115
 Alpha  occ. eigenvalues --   -1.03994  -0.84021  -0.76195  -0.74017  -0.69366
 Alpha  occ. eigenvalues --   -0.60798  -0.55179  -0.53231  -0.49691  -0.49037
 Alpha  occ. eigenvalues --   -0.47267  -0.43830  -0.43266  -0.42665  -0.41760
 Alpha  occ. eigenvalues --   -0.40515  -0.38841  -0.38041  -0.35762  -0.34357
 Alpha  occ. eigenvalues --   -0.31842  -0.28951  -0.25542  -0.23263
 Alpha virt. eigenvalues --   -0.01677   0.07534   0.09612   0.10771   0.11591
 Alpha virt. eigenvalues --    0.12893   0.13580   0.14957   0.15397   0.16470
 Alpha virt. eigenvalues --    0.16818   0.17051   0.19460   0.20365   0.21974

 Mulliken charges:
               1
     1  C   -0.474624
     2  C    0.349621
     3  O   -0.301552
     4  C    0.012647
     5  O   -0.331076
     6  C    0.464556
     7  C   -0.486987
     8  C   -0.345434
     9  C   -0.167340
    10  H    0.151806
    11  H    0.146348
    12  H    0.137060
    13  H    0.106236
    14  H    0.135309
    15  H    0.126641
    16  H    0.128565
    17  H    0.114706
    18  H    0.117345
    19  H    0.116173
 Sum of Mulliken charges =   0.00000

 Dipole moment (field-independent basis, Debye):
    X=             -1.8214    Y=              0.9612    Z=              0.1039  Tot=              2.0621
 Quadrupole moment (field-independent basis, Debye-Ang):
   XX=            -53.6674   YY=            -53.7733   ZZ=            -53.4990
   XY=              4.6183   XZ=              5.2051   YZ=             -3.0115

  Exact polarizability:  88.120   1.095  75.429  -0.582   0.237  64.218
 Approx polarizability: 114.989  -4.825 113.884  -4.694   7.625 101.467

                      1                      2                      3
                      A                      A                      A
 Frequencies --     22.8830               102.2481               127.6514
 Red. masses --      3.7281                 3.8422                 1.0928
 Frc consts  --      0.0012                 0.0237                 0.0105
 IR Inten    --      5.0930                 0.0807                 0.4368

                      4                      5                      6
                      A                      A                      A
 Frequencies --    175.3249               206.1200               287.9250
 Red. masses --      1.9213                 1.3572                 3.3080
 Frc consts  --      0.0348                 0.0340                 0.1616
 IR Inten    --      5.8546                 2.9360                 3.7857

                      7                      8                      9
                      A                      A                      A
 Frequencies --    311.4499               363.0604               446.1352
 Red. masses --      2.5151                 2.7879                 2.7409
 Frc consts  --      0.1437                 0.2165                 0.3214
 IR Inten    --      0.6595                 0.5551                 0.4505

                     10                     11                     12
                      A                      A                      A
 Frequencies --    471.9018               489.9982               583.9171
 Red. masses --      3.2052                 3.8193                 3.1194
 Frc consts  --      0.4205                 0.5403                 0.6266
 IR Inten    --      8.2350                 3.6650                11.9246

                     13                     14                     15
                      A                      A                      A
 Frequencies --    654.4460               771.1072               807.0519
 Red. masses --      3.3678                 2.5726                 2.7354
 Frc consts  --      0.8499                 0.9013                 1.0497
 IR Inten    --      4.2018                 4.7612                 0.6085

                     16                     17                     18
                      A                      A                      A
 Frequencies --    833.1556               886.9773               929.2294
 Red. masses --      3.3287                 1.6194                 2.0043
 Frc consts  --      1.3614                 0.7507                 1.0197
 IR Inten    --      5.9599                25.9470                27.6433

                     19                     20                     21
                      A                      A                      A
 Frequencies --    959.3721               974.2250               992.3019
 Red. masses --      1.5936                 1.6917                 1.9203
 Frc consts  --      0.8642                 0.9460                 1.1140
 IR Inten    --     13.8408                14.4139                 7.7815

                     22                     23                     24
                      A                      A                      A
 Frequencies --   1016.4145              1024.9871              1043.2953
 Red. masses --      2.9431                 1.9129                 1.4851
 Frc consts  --      1.7914                 1.1841                 0.9524
 IR Inten    --     57.6299                 1.7042                 3.1630

                     25                     26                     27
                      A                      A                      A
 Frequencies --   1073.8453              1102.3252              1124.2881
 Red. masses --      1.4812                 2.1989                 2.0620
 Frc consts  --      1.0063                 1.5742                 1.5357
 IR Inten    --      2.4214                 8.3831                15.7165

                     28                     29                     30
                      A                      A                      A
 Frequencies --   1191.5554              1219.3504              1249.1773
 Red. masses --      1.5712                 2.2217                 2.1798
 Frc consts  --      1.3143                 1.9463                 2.0041
 IR Inten    --     10.8706                85.7976                 4.6405

                     31                     32                     33
                      A                      A                      A
 Frequencies --   1274.6800              1341.5182              1380.1751
 Red. masses --      1.9270                 1.7997                 1.4139
 Frc consts  --      1.8448                 1.9083                 1.5869
 IR Inten    --     10.2088                 3.4189                36.5693

                     34                     35                     36
                      A                      A                      A
 Frequencies --   1384.0362              1426.3410              1451.6777
 Red. masses --      1.4345                 1.6008                 1.0543
 Frc consts  --      1.6190                 1.9188                 1.3091
 IR Inten    --      7.2125                 8.8863                13.5784

                     37                     38                     39
                      A                      A                      A
 Frequencies --   1465.8217              1473.8794              1487.9638
 Red. masses --      1.0540                 1.0475                 1.3592
 Frc consts  --      1.3343                 1.3407                 1.7730
 IR Inten    --      8.9238                 3.3811                 6.8391

                     40                     41                     42
                      A                      A                      A
 Frequencies --   1501.0998              1810.9596              3001.3333
 Red. masses --      1.2699                11.3207                 1.0823
 Frc consts  --      1.6859                21.8746                 5.7442
 IR Inten    --      5.7311               145.4400                40.6544

                     43                     44                     45
                      A                      A                      A
 Frequencies --   3033.4865              3045.4664              3096.9445
 Red. masses --      1.0358                 1.0358                 1.1007
 Frc consts  --      5.6156                 5.6604                 6.2200
 IR Inten    --     21.4686                 0.8566                17.2965

                     46                     47                     48
                      A                      A                      A
 Frequencies --   3107.4234              3111.5720              3117.7938
 Red. masses --      1.0962                 1.0559                 1.0993
 Frc consts  --      6.2363                 6.0231                 6.2961
 IR Inten    --      4.6958                10.0920                17.2945

                     49                     50                     51
                      A                      A                      A
 Frequencies --   3157.3862              3203.5367              3218.1073
 Red. masses --      1.1044                 1.1152                 1.0949
 Frc consts  --      6.4868                 6.7428                 6.6809
 IR Inten    --     11.2095                 5.9222                 4.5476

 - Thermochemistry -
 -------------------
 Temperature   298.150 Kelvin.  Pressure   1.00000 Atm.
 Atom     1 has atomic number  6 and mass  12.00000

 Molecular mass:   126.06808 amu.
 Principal axes and moments of inertia in atomic units:
                           1         2         3
     Eigenvalues --   594.404681475.493441715.06685
           X            0.99931   0.03015   0.02159
           Y           -0.02880   0.99776  -0.06045
           Z           -0.02336   0.05978   0.99794
 This molecule is an asymmetric top.
 Rotational symmetry number  1.
 Warning -- assumption of classical behavior for rotation
           may cause significant error
 Rotational temperatures (Kelvin)      0.14572     0.05870     0.05050
 Rotational constants (GHZ):           3.03622     1.22314     1.05229
 Zero-point vibrational energy     409917.9 (Joules/Mol)
                                   97.97273 (Kcal/Mol)
 Warning -- explicit consideration of  12 degrees of freedom as
           vibrations may cause significant error
 Vibrational temperatures:     32.92   147.11   183.66   252.25   296.56
          (Kelvin)            414.26   448.11   522.36   641.89   678.96
                              705.00   840.13   941.60  1109.45  1161.17
                             1198.72  1276.16  1336.95  1380.32  1401.69
                             1427.70  1462.39  1474.73  1501.07  1545.02
                             1586.00  1617.60  1714.38  1754.37  1797.29
                             1833.98  1930.14  1985.76  1991.32  2052.18
                             2088.64  2108.99  2120.58  2140.85  2159.75
                             2605.56  4318.24  4364.50  4381.74  4455.81
                             4470.88  4476.85  4485.80  4542.77  4609.17
                             4630.13

 Zero-point correction=                           0.156129 (Hartree/Particle)
 Thermal correction to Energy=                    0.165408
 Thermal correction to Enthalpy=                  0.166352
 Thermal correction to Gibbs Free Energy=         0.121041
 Sum of electronic and zero-point Energies=           -423.010027
 Sum of electronic and thermal Energies=              -423.000748
 Sum of electronic and thermal Enthalpies=            -422.999804
 Sum of electronic and thermal Free Energies=         -423.045115

                     E (Thermal)             CV                S
                      KCal/Mol        Cal/Mol-Kelvin    Cal/Mol-Kelvin
 Total                  103.795             33.997             95.365
 Electronic               0.000              0.000              0.000
 Translational            0.889              2.981             40.409
 Rotational               0.889              2.981             28.799
 Vibrational            102.018             28.035             26.158
 Vibration     1          0.593              1.985              6.367
 Vibration     2          0.604              1.947              3.411
 Vibration     3          0.611              1.926              2.981
 Vibration     4          0.627              1.873              2.378
 Vibration     5          0.641              1.831              2.078
 Vibration     6          0.685              1.696              1.486
 Vibration     7          0.700              1.652              1.355
 Vibration     8          0.737              1.548              1.109
 Vibration     9          0.805              1.369              0.808
 Vibration    10          0.829              1.312              0.732
 Vibration    11          0.846              1.272              0.684
 Vibration    12          0.941              1.066              0.478

 Normal termination of Gaussian 09 at Mon Jan 27 14:46:53 2020.
