 Gaussian 09, Revision D.01,
 Gaussian 09:  ES64L-G09RevD.01 24-Apr-2013

 -----------------------------
 # b3lyp 6-31G(2df,p) opt Freq
 -----------------------------

 -----
 titel
 -----
 Symbolic Z-matrix:
 Charge =  0 Multiplicity = 1

 SCF Done:  E(RB3LYP) =  -423.095420974     A.U. after   13 cycles
 Optimization completed.
    -- Stationary point found.
 Normal termination of Gaussian 09 at Tue Jan 28 12:42:19 2020.

 ----------------------------------------------------------------------
 #N Geom=AllCheck Guess=TCheck SCRF=Check GenChk RB3LYP/6-31G(2df,p) Fr
 eq
 ----------------------------------------------------------------------

 Structure from the checkpoint file:  "/scratch/puck/g09_0cdd2fc3-001e-445c-94b3-6cc87f5c0c29/Gau-3356.chk"
 -----
 titel
 -----
 Charge =  0 Multiplicity = 1

                         Standard orientation:
 ---------------------------------------------------------------------
 Center     Atomic      Atomic             Coordinates (Angstroms)
 Number     Number       Type             X           Y           Z
 ---------------------------------------------------------------------
      1          6           0        2.831728    0.146838   -0.148982
      2          8           0        1.764019   -0.769086   -0.285198
      3          6           0        0.684341   -0.484989    0.560478
      4          6           0       -0.596804   -1.266666    0.248986
      5          6           0       -1.520612   -0.156427    0.852716
      6          6           0       -2.402178   -0.100892   -0.412280
      7          6           0       -0.977255   -0.334064   -0.956074
      8          6           0       -0.337087    0.591748    0.125741
      9          8           0       -0.174812    1.953981   -0.054916
     10          1           0        3.227475    0.154523    0.879478
     11          1           0        3.625650   -0.176835   -0.826306
     12          1           0        2.527727    1.168620   -0.413310
     13          1           0        1.003194   -0.457241    1.617002
     14          1           0       -0.766364   -2.338798    0.307783
     15          1           0       -1.800180   -0.062440    1.903469
     16          1           0       -3.120115   -0.915709   -0.546517
     17          1           0       -2.862259    0.863156   -0.645796
     18          1           0       -0.631795   -0.447251   -1.981873
     19          1           0       -0.009792    2.359523    0.803467
 ---------------------------------------------------------------------

 SCF Done:  E(RB3LYP) =  -423.095420974     A.U. after    1 cycles

 The electronic state is 1-A.
 Alpha  occ. eigenvalues --  -19.15220 -19.13638 -10.24105 -10.22764 -10.21983
 Alpha  occ. eigenvalues --  -10.19621 -10.19551 -10.19354 -10.17992  -1.04208
 Alpha  occ. eigenvalues --   -1.02705  -0.92952  -0.74355  -0.67733  -0.63771
 Alpha  occ. eigenvalues --   -0.62435  -0.59125  -0.53947  -0.50364  -0.48816
 Alpha  occ. eigenvalues --   -0.47988  -0.45952  -0.42834  -0.42062  -0.41553
 Alpha  occ. eigenvalues --   -0.37140  -0.34279  -0.32902  -0.31433  -0.30487
 Alpha  occ. eigenvalues --   -0.30020  -0.29412  -0.27449  -0.23299
 Alpha virt. eigenvalues --    0.07163   0.10519   0.11965   0.12347   0.13203
 Alpha virt. eigenvalues --    0.13426   0.14832   0.15918   0.16258   0.17150
 Alpha virt. eigenvalues --    0.17736   0.18561   0.19497   0.19897   0.20847

 Mulliken charges:
               1
     1  C   -0.242887
     2  O   -0.256799
     3  C    0.065599
     4  C   -0.094076
     5  C   -0.122937
     6  C   -0.273329
     7  C   -0.072582
     8  C    0.366854
     9  O   -0.474727
    10  H    0.098520
    11  H    0.125783
    12  H    0.119893
    13  H    0.049405
    14  H    0.082908
    15  H    0.066540
    16  H    0.091189
    17  H    0.102059
    18  H    0.084508
    19  H    0.284078
 Sum of Mulliken charges =   0.00000

 Dipole moment (field-independent basis, Debye):
    X=              0.1449    Y=              0.6280    Z=              1.7704  Tot=              1.8840
 Quadrupole moment (field-independent basis, Debye-Ang):
   XX=            -51.4414   YY=            -53.3814   ZZ=            -51.5308
   XY=              2.9326   XZ=              0.4981   YZ=              2.9813

  Exact polarizability:  89.591   2.343  70.131   1.172   0.715  68.712
 Approx polarizability: 113.067   2.178 109.089  -0.223   1.302 108.118

                      1                      2                      3
                      A                      A                      A
 Frequencies --     90.2734               154.3873               176.7549
 Red. masses --      2.8767                 3.1149                 1.2644
 Frc consts  --      0.0138                 0.0437                 0.0233
 IR Inten    --      2.8322                 0.4195                 0.6448

                      4                      5                      6
                      A                      A                      A
 Frequencies --    243.4433               278.4509               312.1683
 Red. masses --      2.6664                 1.6655                 1.9359
 Frc consts  --      0.0931                 0.0761                 0.1112
 IR Inten    --      8.7182                28.7502                62.4767

                      7                      8                      9
                      A                      A                      A
 Frequencies --    359.3670               372.8146               499.3896
 Red. masses --      3.1541                 2.8031                 3.1684
 Frc consts  --      0.2400                 0.2295                 0.4655
 IR Inten    --     11.1646                 7.5419                 0.8480

                     10                     11                     12
                      A                      A                      A
 Frequencies --    571.5227               666.5117               751.0424
 Red. masses --      3.4031                 4.0022                 4.2103
 Frc consts  --      0.6549                 1.0475                 1.3993
 IR Inten    --      9.0249                 6.7167                 4.7218

                     13                     14                     15
                      A                      A                      A
 Frequencies --    811.3227               867.3273               886.8177
 Red. masses --      4.1447                 2.0873                 1.9794
 Frc consts  --      1.6074                 0.9251                 0.9172
 IR Inten    --      6.2069                 2.0510                 4.5112

                     16                     17                     18
                      A                      A                      A
 Frequencies --    898.1424               916.7342               947.9974
 Red. masses --      1.8426                 2.0314                 2.3186
 Frc consts  --      0.8757                 1.0059                 1.2277
 IR Inten    --     12.2122                 2.2477                 1.9019

                     19                     20                     21
                      A                      A                      A
 Frequencies --    985.0162              1009.8071              1018.8678
 Red. masses --      1.6803                 1.6333                 1.8155
 Frc consts  --      0.9606                 0.9813                 1.1104
 IR Inten    --      2.2088                19.8756                 6.7485

                     22                     23                     24
                      A                      A                      A
 Frequencies --   1058.4322              1075.3056              1091.9374
 Red. masses --      3.2718                 1.7214                 1.9379
 Frc consts  --      2.1595                 1.1727                 1.3613
 IR Inten    --     28.0586                 8.4418                 2.1580

                     25                     26                     27
                      A                      A                      A
 Frequencies --   1131.7838              1154.0238              1156.7846
 Red. masses --      2.0466                 2.2893                 1.4854
 Frc consts  --      1.5446                 1.7963                 1.1711
 IR Inten    --     67.0484                63.5712                 2.6135

                     28                     29                     30
                      A                      A                      A
 Frequencies --   1165.9553              1186.6472              1218.7820
 Red. masses --      1.7230                 1.3190                 1.7758
 Frc consts  --      1.3800                 1.0943                 1.5542
 IR Inten    --     27.0157                 5.0745                29.3340

                     31                     32                     33
                      A                      A                      A
 Frequencies --   1228.5910              1235.9937              1238.8945
 Red. masses --      1.6972                 1.7043                 1.8291
 Frc consts  --      1.5094                 1.5340                 1.6541
 IR Inten    --     69.7291                27.2251                15.7379

                     34                     35                     36
                      A                      A                      A
 Frequencies --   1282.1284              1311.3418              1357.0033
 Red. masses --      2.2214                 1.9787                 1.7679
 Frc consts  --      2.1515                 2.0048                 1.9181
 IR Inten    --     25.1093               102.2523                10.3801

                     37                     38                     39
                      A                      A                      A
 Frequencies --   1419.1567              1482.5025              1488.9627
 Red. masses --      1.8400                 1.1517                 1.0739
 Frc consts  --      2.1833                 1.4914                 1.4028
 IR Inten    --     75.4827                 3.7392                 2.3067

                     40                     41                     42
                      A                      A                      A
 Frequencies --   1507.1468              1513.9475              2954.0697
 Red. masses --      1.1335                 1.0578                 1.0807
 Frc consts  --      1.5170                 1.4285                 5.5566
 IR Inten    --      0.6444                 4.6628                53.1219

                     43                     44                     45
                      A                      A                      A
 Frequencies --   2976.2550              3040.5467              3047.1437
 Red. masses --      1.0453                 1.0941                 1.0549
 Frc consts  --      5.4554                 5.9597                 5.7708
 IR Inten    --     89.3025                38.7406                58.7970

                     46                     47                     48
                      A                      A                      A
 Frequencies --   3097.5988              3106.5460              3116.0718
 Red. masses --      1.0900                 1.1093                 1.0982
 Frc consts  --      6.1620                 6.3075                 6.2828
 IR Inten    --     55.3150                30.1947                30.1310

                     49                     50                     51
                      A                      A                      A
 Frequencies --   3135.3926              3154.4901              3802.0257
 Red. masses --      1.0904                 1.0944                 1.0658
 Frc consts  --      6.3154                 6.4163                 9.0773
 IR Inten    --     31.8008                24.2520                28.5423

 - Thermochemistry -
 -------------------
 Temperature   298.150 Kelvin.  Pressure   1.00000 Atm.
 Atom     1 has atomic number  6 and mass  12.00000

 Molecular mass:   126.06808 amu.
 Principal axes and moments of inertia in atomic units:
                           1         2         3
     Eigenvalues --   552.310631289.904121546.71326
           X            0.99971   0.02342   0.00581
           Y           -0.02350   0.99963   0.01345
           Z           -0.00549  -0.01358   0.99989
 This molecule is an asymmetric top.
 Rotational symmetry number  1.
 Warning -- assumption of classical behavior for rotation
           may cause significant error
 Rotational temperatures (Kelvin)      0.15682     0.06715     0.05600
 Rotational constants (GHZ):           3.26762     1.39913     1.16682
 Zero-point vibrational energy     416023.0 (Joules/Mol)
                                   99.43189 (Kcal/Mol)
 Warning -- explicit consideration of  10 degrees of freedom as
           vibrations may cause significant error
 Vibrational temperatures:    129.88   222.13   254.31   350.26   400.63
          (Kelvin)            449.14   517.05   536.40   718.51   822.29
                              958.96  1080.58  1167.31  1247.89  1275.93
                             1292.23  1318.97  1363.96  1417.22  1452.89
                             1465.92  1522.85  1547.12  1571.05  1628.38
                             1660.38  1664.35  1677.55  1707.32  1753.55
                             1767.67  1778.32  1782.49  1844.69  1886.73
                             1952.42  2041.85  2132.99  2142.28  2168.45
                             2178.23  4250.24  4282.16  4374.66  4384.15
                             4456.75  4469.62  4483.33  4511.12  4538.60
                             5470.26

 Zero-point correction=                           0.158455 (Hartree/Particle)
 Thermal correction to Energy=                    0.166684
 Thermal correction to Enthalpy=                  0.167628
 Thermal correction to Gibbs Free Energy=         0.125786
 Sum of electronic and zero-point Energies=           -422.936966
 Sum of electronic and thermal Energies=              -422.928737
 Sum of electronic and thermal Enthalpies=            -422.927793
 Sum of electronic and thermal Free Energies=         -422.969635

                     E (Thermal)             CV                S
                      KCal/Mol        Cal/Mol-Kelvin    Cal/Mol-Kelvin
 Total                  104.596             31.755             88.064
 Electronic               0.000              0.000              0.000
 Translational            0.889              2.981             40.409
 Rotational               0.889              2.981             28.490
 Vibrational            102.818             25.794             19.166
 Vibration     1          0.602              1.956              3.654
 Vibration     2          0.620              1.898              2.617
 Vibration     3          0.628              1.871              2.362
 Vibration     4          0.659              1.774              1.778
 Vibration     5          0.679              1.713              1.543
 Vibration     6          0.701              1.650              1.351
 Vibration     7          0.734              1.556              1.125
 Vibration     8          0.744              1.528              1.068
 Vibration     9          0.855              1.251              0.660
 Vibration    10          0.928              1.093              0.501

 Optimization completed.
    -- Stationary point found.
 Normal termination of Gaussian 09 at Tue Jan 28 13:29:18 2020.
