 Gaussian 09, Revision D.01,
 Gaussian 09:  ES64L-G09RevD.01 24-Apr-2013

 -----------------------------
 # b3lyp 6-31G(2df,p) opt Freq
 -----------------------------

 -----
 titel
 -----
 Symbolic Z-matrix:
 Charge =  0 Multiplicity = 1

 SCF Done:  E(RB3LYP) =  -423.116320253     A.U. after   13 cycles
 Optimization completed.
    -- Stationary point found.
 Normal termination of Gaussian 09 at Tue Jan 28 09:27:28 2020.

 ----------------------------------------------------------------------
 #N Geom=AllCheck Guess=TCheck SCRF=Check GenChk RB3LYP/6-31G(2df,p) Fr
 eq
 ----------------------------------------------------------------------

 Structure from the checkpoint file:  "/scratch/puck/g09_d1d65796-6a47-4d83-8ba4-06489f495fd9/Gau-189069.chk"
 -----
 titel
 -----
 Charge =  0 Multiplicity = 1

                         Standard orientation:
 ---------------------------------------------------------------------
 Center     Atomic      Atomic             Coordinates (Angstroms)
 Number     Number       Type             X           Y           Z
 ---------------------------------------------------------------------
      1          6           0        3.056429   -0.474241   -0.184796
      2          8           0        1.972257   -0.244671    0.701341
      3          6           0        0.801523    0.079137    0.057569
      4          6           0        0.506481    1.458705   -0.453960
      5          6           0       -0.360506    0.870488    0.649307
      6          6           0       -1.313056   -0.132026    0.047134
      7          6           0       -2.600754   -0.603499    0.548851
      8          8           0       -2.511084    0.206155   -0.634503
      9          6           0       -0.158762   -0.953619   -0.566571
     10          1           0        3.264388    0.411212   -0.801058
     11          1           0        3.929181   -0.697889    0.432253
     12          1           0        2.862586   -1.326978   -0.850565
     13          1           0        1.196454    2.219908   -0.103907
     14          1           0        0.096146    1.631147   -1.445533
     15          1           0       -0.451873    1.346863    1.617369
     16          1           0       -2.899139   -1.639052    0.387029
     17          1           0       -3.059205   -0.118854    1.410546
     18          1           0       -0.061441   -1.941800   -0.109443
     19          1           0       -0.154606   -1.046099   -1.656592
 ---------------------------------------------------------------------

 SCF Done:  E(RB3LYP) =  -423.116320253     A.U. after    1 cycles

 The electronic state is 1-A.
 Alpha  occ. eigenvalues --  -19.15249 -19.14485 -10.24530 -10.24363 -10.22991
 Alpha  occ. eigenvalues --  -10.22910 -10.19308 -10.18952 -10.18754  -1.06669
 Alpha  occ. eigenvalues --   -1.04812  -0.89176  -0.72892  -0.70050  -0.66307
 Alpha  occ. eigenvalues --   -0.63012  -0.57288  -0.53281  -0.52257  -0.49616
 Alpha  occ. eigenvalues --   -0.46682  -0.45577  -0.45147  -0.43373  -0.41554
 Alpha  occ. eigenvalues --   -0.39175  -0.37893  -0.35062  -0.34623  -0.32649
 Alpha  occ. eigenvalues --   -0.29292  -0.26438  -0.25670  -0.25059
 Alpha virt. eigenvalues --    0.08350   0.09331   0.10544   0.11500   0.12399
 Alpha virt. eigenvalues --    0.13367   0.13964   0.14715   0.15525   0.15745
 Alpha virt. eigenvalues --    0.16551   0.16980   0.18189   0.19216   0.21103

 Mulliken charges:
               1
     1  C   -0.258183
     2  O   -0.280575
     3  C    0.449888
     4  C   -0.342965
     5  C   -0.241048
     6  C    0.481396
     7  C   -0.273254
     8  O   -0.275699
     9  C   -0.405556
    10  H    0.114095
    11  H    0.129329
    12  H    0.114311
    13  H    0.118499
    14  H    0.118275
    15  H    0.099551
    16  H    0.113963
    17  H    0.115584
    18  H    0.115237
    19  H    0.107151
 Sum of Mulliken charges =   0.00000

 Dipole moment (field-independent basis, Debye):
    X=              1.3873    Y=             -0.7069    Z=              0.2738  Tot=              1.5809
 Quadrupole moment (field-independent basis, Debye-Ang):
   XX=            -52.9251   YY=            -51.3036   ZZ=            -53.6660
   XY=              2.4772   XZ=             -6.3099   YZ=              1.1219

  Exact polarizability:  93.603   3.025  71.862  -5.895   0.749  64.675
 Approx polarizability: 118.400   1.192 104.964  -4.802  -1.763 102.754

                      1                      2                      3
                      A                      A                      A
 Frequencies --     75.6755                94.4999               173.0114
 Red. masses --      3.0032                 3.5102                 1.1662
 Frc consts  --      0.0101                 0.0185                 0.0206
 IR Inten    --      1.5490                 4.0872                 0.2198

                      4                      5                      6
                      A                      A                      A
 Frequencies --    220.1821               278.6128               316.7676
 Red. masses --      2.6737                 2.7141                 3.2536
 Frc consts  --      0.0764                 0.1241                 0.1923
 IR Inten    --      3.0540                 2.5750                 3.4908

                      7                      8                      9
                      A                      A                      A
 Frequencies --    380.9443               395.8368               429.5187
 Red. masses --      3.5066                 2.4272                 3.0032
 Frc consts  --      0.2998                 0.2241                 0.3264
 IR Inten    --      3.7950                 0.7755                 3.9030

                     10                     11                     12
                      A                      A                      A
 Frequencies --    489.4252               576.2261               682.1115
 Red. masses --      3.2518                 2.8398                 3.0660
 Frc consts  --      0.4589                 0.5556                 0.8405
 IR Inten    --      3.9494                 1.7287                 9.2903

                     13                     14                     15
                      A                      A                      A
 Frequencies --    774.1595               824.8510               857.1142
 Red. masses --      2.9643                 3.0075                 2.3255
 Frc consts  --      1.0467                 1.2056                 1.0066
 IR Inten    --      1.5262                50.9040                 7.0846

                     16                     17                     18
                      A                      A                      A
 Frequencies --    897.2263               927.7508               936.5173
 Red. masses --      2.2431                 1.9279                 1.5526
 Frc consts  --      1.0639                 0.9777                 0.8023
 IR Inten    --     20.2228                 6.7306                10.9551

                     19                     20                     21
                      A                      A                      A
 Frequencies --    979.0399               994.7971              1010.5641
 Red. masses --      2.3345                 1.9397                 1.7369
 Frc consts  --      1.3184                 1.1310                 1.0451
 IR Inten    --      3.4890                11.7302                 2.1616

                     22                     23                     24
                      A                      A                      A
 Frequencies --   1068.0095              1087.1022              1095.9011
 Red. masses --      1.4710                 2.9355                 2.6403
 Frc consts  --      0.9886                 2.0440                 1.8683
 IR Inten    --      5.5948                42.4143                12.0741

                     25                     26                     27
                      A                      A                      A
 Frequencies --   1121.2777              1141.1020              1156.1865
 Red. masses --      1.2974                 1.5708                 1.4350
 Frc consts  --      0.9610                 1.2051                 1.1302
 IR Inten    --      7.6033                32.7720                18.4175

                     28                     29                     30
                      A                      A                      A
 Frequencies --   1169.2722              1180.4038              1206.7065
 Red. masses --      1.8845                 1.2873                 1.4970
 Frc consts  --      1.5180                 1.0568                 1.2843
 IR Inten    --      6.1718                 2.5372                 6.3145

                     31                     32                     33
                      A                      A                      A
 Frequencies --   1228.3864              1246.7530              1271.9273
 Red. masses --      1.5275                 2.2042                 3.4166
 Frc consts  --      1.3580                 2.0186                 3.2566
 IR Inten    --      4.2325                43.4371                24.8475

                     34                     35                     36
                      A                      A                      A
 Frequencies --   1377.3459              1441.9743              1470.2426
 Red. masses --      2.4643                 1.9570                 1.1671
 Frc consts  --      2.7544                 2.3975                 1.4864
 IR Inten    --    127.4828                33.7216                 6.5428

                     37                     38                     39
                      A                      A                      A
 Frequencies --   1477.5426              1487.3814              1502.4035
 Red. masses --      1.1454                 1.0541                 1.3027
 Frc consts  --      1.4732                 1.3739                 1.7325
 IR Inten    --      1.4639                 3.7901                29.2914

                     40                     41                     42
                      A                      A                      A
 Frequencies --   1506.9614              1540.3061              2993.8701
 Red. masses --      1.1191                 1.7667                 1.0349
 Frc consts  --      1.4974                 2.4697                 5.4651
 IR Inten    --      0.3034                 5.0896                51.0729

                     43                     44                     45
                      A                      A                      A
 Frequencies --   3048.0997              3052.9116              3075.2128
 Red. masses --      1.0996                 1.0621                 1.0504
 Frc consts  --      6.0194                 5.8324                 5.8527
 IR Inten    --     27.0156                39.7860                29.4499

                     46                     47                     48
                      A                      A                      A
 Frequencies --   3111.1589              3112.8620              3124.6405
 Red. masses --      1.1067                 1.0559                 1.0986
 Frc consts  --      6.3114                 6.0285                 6.3195
 IR Inten    --     10.6477                16.0989                28.7757

                     49                     50                     51
                      A                      A                      A
 Frequencies --   3160.4553              3193.4699              3208.2320
 Red. masses --      1.1192                 1.0960                 1.1129
 Frc consts  --      6.5866                 6.5857                 6.7490
 IR Inten    --     22.0462                 5.6078                 9.0110

 - Thermochemistry -
 -------------------
 Temperature   298.150 Kelvin.  Pressure   1.00000 Atm.
 Atom     1 has atomic number  6 and mass  12.00000

 Molecular mass:   126.06808 amu.
 Principal axes and moments of inertia in atomic units:
                           1         2         3
     Eigenvalues --   410.111361730.717171849.71781
           X            0.99970   0.00722  -0.02328
           Y           -0.00639   0.99936   0.03527
           Z            0.02352  -0.03511   0.99911
 This molecule is an asymmetric top.
 Rotational symmetry number  1.
 Rotational temperatures (Kelvin)      0.21120     0.05005     0.04683
 Rotational constants (GHZ):           4.40061     1.04277     0.97568
 Zero-point vibrational energy     413746.0 (Joules/Mol)
                                   98.88767 (Kcal/Mol)
 Warning -- explicit consideration of  11 degrees of freedom as
           vibrations may cause significant error
 Vibrational temperatures:    108.88   135.96   248.92   316.79   400.86
          (Kelvin)            455.76   548.09   569.52   617.98   704.17
                              829.06   981.41  1113.84  1186.78  1233.19
                             1290.91  1334.82  1347.44  1408.62  1431.29
                             1453.97  1536.63  1564.10  1576.76  1613.27
                             1641.79  1663.49  1682.32  1698.34  1736.18
                             1767.37  1793.80  1830.02  1981.69  2074.68
                             2115.35  2125.85  2140.01  2161.62  2168.18
                             2216.15  4307.51  4385.53  4392.45  4424.54
                             4476.26  4478.71  4495.66  4547.18  4594.69
                             4615.92

 Zero-point correction=                           0.157588 (Hartree/Particle)
 Thermal correction to Energy=                    0.166145
 Thermal correction to Enthalpy=                  0.167089
 Thermal correction to Gibbs Free Energy=         0.124231
 Sum of electronic and zero-point Energies=           -422.958733
 Sum of electronic and thermal Energies=              -422.950175
 Sum of electronic and thermal Enthalpies=            -422.949231
 Sum of electronic and thermal Free Energies=         -422.992089

                     E (Thermal)             CV                S
                      KCal/Mol        Cal/Mol-Kelvin    Cal/Mol-Kelvin
 Total                  104.258             32.431             90.202
 Electronic               0.000              0.000              0.000
 Translational            0.889              2.981             40.409
 Rotational               0.889              2.981             28.664
 Vibrational            102.480             26.469             21.129
 Vibration     1          0.599              1.965              4.000
 Vibration     2          0.603              1.953              3.565
 Vibration     3          0.627              1.876              2.403
 Vibration     4          0.647              1.810              1.958
 Vibration     5          0.679              1.713              1.542
 Vibration     6          0.704              1.642              1.327
 Vibration     7          0.751              1.511              1.035
 Vibration     8          0.763              1.479              0.978
 Vibration     9          0.791              1.406              0.860
 Vibration    10          0.845              1.273              0.685
 Vibration    11          0.933              1.083              0.492

 Normal termination of Gaussian 09 at Tue Jan 28 10:01:22 2020.
