 Gaussian 09, Revision D.01,
 Gaussian 09:  ES64L-G09RevD.01 24-Apr-2013

 -----------------------------
 # b3lyp 6-31G(2df,p) opt Freq
 -----------------------------

 -----
 titel
 -----
 Symbolic Z-matrix:
 Charge =  0 Multiplicity = 1

 SCF Done:  E(RB3LYP) =  -423.141899981     A.U. after   13 cycles
 Optimization completed.
    -- Stationary point found.
 Normal termination of Gaussian 09 at Mon Jan 27 12:14:25 2020.

 ----------------------------------------------------------------------
 #N Geom=AllCheck Guess=TCheck SCRF=Check GenChk RB3LYP/6-31G(2df,p) Fr
 eq
 ----------------------------------------------------------------------

 Structure from the checkpoint file:  "/scratch/puck/g09_f2a31e66-3649-4f7b-a3e0-57ad4aa4e5ac/Gau-153129.chk"
 -----
 titel
 -----
 Charge =  0 Multiplicity = 1

                         Standard orientation:
 ---------------------------------------------------------------------
 Center     Atomic      Atomic             Coordinates (Angstroms)
 Number     Number       Type             X           Y           Z
 ---------------------------------------------------------------------
      1          6           0        2.482844   -0.098866    0.014556
      2          6           0        1.368319   -1.162997    0.013994
      3          6           0        0.423038    0.041860   -0.027788
      4          8           0        1.516722    0.973988   -0.078073
      5          6           0       -0.748028    0.301858   -1.026195
      6          6           0       -1.209893    1.395938   -0.009940
      7          6           0       -0.702208    0.338488    0.997577
      8          8           0       -1.582999   -0.779722    0.813339
      9          6           0       -1.670592   -0.854220   -0.634146
     10          1           0        3.074164   -0.031386    0.935093
     11          1           0        3.160123   -0.106814   -0.846559
     12          1           0        1.339548   -1.803753   -0.870308
     13          1           0        1.287711   -1.783145    0.907951
     14          1           0       -0.577892    0.497289   -2.084026
     15          1           0       -0.581564    2.285402   -0.044402
     16          1           0       -2.271273    1.651259    0.027488
     17          1           0       -0.532505    0.515863    2.058279
     18          1           0       -1.319308   -1.834432   -0.978125
     19          1           0       -2.709675   -0.716773   -0.955870
 ---------------------------------------------------------------------

 SCF Done:  E(RB3LYP) =  -423.141899981     A.U. after    1 cycles

 The electronic state is 1-A.
 Alpha  occ. eigenvalues --  -19.13551 -19.13480 -10.23841 -10.23326 -10.22918
 Alpha  occ. eigenvalues --  -10.22718 -10.19434 -10.18850 -10.18228  -1.04971
 Alpha  occ. eigenvalues --   -1.03047  -0.82663  -0.74526  -0.72319  -0.66832
 Alpha  occ. eigenvalues --   -0.59989  -0.57756  -0.53982  -0.50713  -0.49493
 Alpha  occ. eigenvalues --   -0.48261  -0.46596  -0.41803  -0.40195  -0.39642
 Alpha  occ. eigenvalues --   -0.38571  -0.37022  -0.35830  -0.34471  -0.32061
 Alpha  occ. eigenvalues --   -0.31182  -0.29771  -0.26145  -0.22286
 Alpha virt. eigenvalues --    0.07733   0.09197   0.10733   0.11464   0.12490
 Alpha virt. eigenvalues --    0.13507   0.14622   0.15221   0.15931   0.17543
 Alpha virt. eigenvalues --    0.18145   0.18478   0.19048   0.20205   0.21225

 Mulliken charges:
               1
     1  C   -0.086263
     2  C   -0.382622
     3  C    0.520951
     4  O   -0.342547
     5  C   -0.153952
     6  C   -0.256845
     7  C    0.033474
     8  O   -0.284926
     9  C   -0.081401
    10  H    0.106640
    11  H    0.106405
    12  H    0.111719
    13  H    0.123367
    14  H    0.075505
    15  H    0.128982
    16  H    0.097656
    17  H    0.080726
    18  H    0.100294
    19  H    0.102837
 Sum of Mulliken charges =   0.00000

 Dipole moment (field-independent basis, Debye):
    X=              0.6956    Y=             -0.6686    Z=             -0.9583  Tot=              1.3599
 Quadrupole moment (field-independent basis, Debye-Ang):
   XX=            -52.3364   YY=            -54.7388   ZZ=            -51.7218
   XY=             -4.1940   XZ=              2.9204   YZ=              2.1529

  Exact polarizability:  85.460  -2.133  70.257   2.703   2.486  67.441
 Approx polarizability: 111.692   0.438 105.528   1.748   1.945 104.086

                      1                      2                      3
                      A                      A                      A
 Frequencies --     80.8031               181.5234               208.4614
 Red. masses --      2.2176                 3.8519                 2.8276
 Frc consts  --      0.0085                 0.0748                 0.0724
 IR Inten    --      1.1278                 2.7638                 2.4885

                      4                      5                      6
                      A                      A                      A
 Frequencies --    320.5747               391.6620               411.3516
 Red. masses --      3.4540                 2.4863                 3.0071
 Frc consts  --      0.2091                 0.2247                 0.2998
 IR Inten    --      5.2000                 2.4762                 1.5049

                      7                      8                      9
                      A                      A                      A
 Frequencies --    516.0275               565.9329               658.7397
 Red. masses --      2.6300                 3.8162                 3.7615
 Frc consts  --      0.4126                 0.7201                 0.9617
 IR Inten    --      0.7179                 2.5501                 1.7759

                     10                     11                     12
                      A                      A                      A
 Frequencies --    785.9625               823.3648               848.3246
 Red. masses --      1.1830                 2.6139                 2.6266
 Frc consts  --      0.4306                 1.0441                 1.1137
 IR Inten    --      0.9563                 2.7902                 0.7770

                     13                     14                     15
                      A                      A                      A
 Frequencies --    864.6868               898.0190               915.4196
 Red. masses --      4.8115                 2.0023                 3.4676
 Frc consts  --      2.1196                 0.9514                 1.7121
 IR Inten    --     10.0189                 4.3594                25.1151

                     16                     17                     18
                      A                      A                      A
 Frequencies --    940.6467               955.6376               969.1140
 Red. masses --      1.7149                 2.2953                 2.0266
 Frc consts  --      0.8940                 1.2350                 1.1214
 IR Inten    --      2.6500                30.2234                 2.3702

                     19                     20                     21
                      A                      A                      A
 Frequencies --    996.1917              1018.5141              1032.4327
 Red. masses --      2.2231                 6.9761                 2.4556
 Frc consts  --      1.2999                 4.2638                 1.5422
 IR Inten    --     29.7036                97.7409                 7.4575

                     22                     23                     24
                      A                      A                      A
 Frequencies --   1067.4723              1079.0088              1102.5327
 Red. masses --      2.0395                 1.5027                 3.5402
 Frc consts  --      1.3692                 1.0308                 2.5355
 IR Inten    --     31.8219                 5.5920                45.2661

                     25                     26                     27
                      A                      A                      A
 Frequencies --   1132.4406              1154.9243              1172.6642
 Red. masses --      1.6182                 1.4824                 1.3350
 Frc consts  --      1.2227                 1.1650                 1.0817
 IR Inten    --      8.1263                 3.0992                 1.2629

                     28                     29                     30
                      A                      A                      A
 Frequencies --   1186.7117              1198.9650              1211.4834
 Red. masses --      1.8799                 1.4125                 1.2377
 Frc consts  --      1.5599                 1.1964                 1.0703
 IR Inten    --      1.1545                 7.5993                 0.3901

                     31                     32                     33
                      A                      A                      A
 Frequencies --   1240.2290              1247.3714              1259.3320
 Red. masses --      1.5630                 1.5591                 1.6357
 Frc consts  --      1.4165                 1.4292                 1.5284
 IR Inten    --      2.9257                 3.7148                 8.3332

                     34                     35                     36
                      A                      A                      A
 Frequencies --   1285.8430              1320.0991              1353.5535
 Red. masses --      1.5735                 2.5204                 1.4681
 Frc consts  --      1.5328                 2.5878                 1.5847
 IR Inten    --      6.1235                36.3029                 2.2121

                     37                     38                     39
                      A                      A                      A
 Frequencies --   1372.0402              1483.0459              1485.0727
 Red. masses --      1.5410                 1.1126                 1.1159
 Frc consts  --      1.7091                 1.4418                 1.4500
 IR Inten    --      3.1828                 1.2996                 7.8970

                     40                     41                     42
                      A                      A                      A
 Frequencies --   1525.5829              1530.2725              3020.1619
 Red. masses --      1.0976                 1.1159                 1.0556
 Frc consts  --      1.5050                 1.5396                 5.6732
 IR Inten    --      0.8911                 0.9203                73.2928

                     43                     44                     45
                      A                      A                      A
 Frequencies --   3025.8906              3058.5828              3067.3166
 Red. masses --      1.0555                 1.1103                 1.1054
 Frc consts  --      5.6937                 6.1197                 6.1275
 IR Inten    --     81.4385                32.0743                25.2960

                     46                     47                     48
                      A                      A                      A
 Frequencies --   3074.5886              3076.6350              3129.9507
 Red. masses --      1.0663                 1.0594                 1.1063
 Frc consts  --      5.9388                 5.9084                 6.3853
 IR Inten    --     37.2681                24.6963                 8.1284

                     49                     50                     51
                      A                      A                      A
 Frequencies --   3131.3941              3140.8651              3155.5739
 Red. masses --      1.0903                 1.0929                 1.1069
 Frc consts  --      6.2992                 6.3520                 6.4938
 IR Inten    --     44.9248                21.4833                12.2698

 - Thermochemistry -
 -------------------
 Temperature   298.150 Kelvin.  Pressure   1.00000 Atm.
 Atom     1 has atomic number  6 and mass  12.00000

 Molecular mass:   126.06808 amu.
 Principal axes and moments of inertia in atomic units:
                           1         2         3
     Eigenvalues --   529.589661183.553621330.35843
           X            0.99921  -0.03603   0.01667
           Y            0.03503   0.99776   0.05695
           Z           -0.01868  -0.05632   0.99824
 This molecule is an asymmetric top.
 Rotational symmetry number  1.
 Warning -- assumption of classical behavior for rotation
           may cause significant error
 Rotational temperatures (Kelvin)      0.16355     0.07318     0.06511
 Rotational constants (GHZ):           3.40781     1.52485     1.35658
 Zero-point vibrational energy     422718.4 (Joules/Mol)
                                  101.03212 (Kcal/Mol)
 Warning -- explicit consideration of   8 degrees of freedom as
           vibrations may cause significant error
 Vibrational temperatures:    116.26   261.17   299.93   461.23   563.51
          (Kelvin)            591.84   742.45   814.25   947.78  1130.82
                             1184.64  1220.55  1244.09  1292.05  1317.08
                             1353.38  1374.95  1394.34  1433.30  1465.41
                             1485.44  1535.85  1552.45  1586.30  1629.33
                             1661.68  1687.20  1707.41  1725.04  1743.05
                             1784.41  1794.69  1811.90  1850.04  1899.33
                             1947.46  1974.06  2133.77  2136.69  2194.97
                             2201.72  4345.33  4353.58  4400.61  4413.18
                             4423.64  4426.59  4503.30  4505.37  4519.00
                             4540.16

 Zero-point correction=                           0.161005 (Hartree/Particle)
 Thermal correction to Energy=                    0.168195
 Thermal correction to Enthalpy=                  0.169139
 Thermal correction to Gibbs Free Energy=         0.129272
 Sum of electronic and zero-point Energies=           -422.980895
 Sum of electronic and thermal Energies=              -422.973705
 Sum of electronic and thermal Enthalpies=            -422.972761
 Sum of electronic and thermal Free Energies=         -423.012628

                     E (Thermal)             CV                S
                      KCal/Mol        Cal/Mol-Kelvin    Cal/Mol-Kelvin
 Total                  105.544             28.747             83.908
 Electronic               0.000              0.000              0.000
 Translational            0.889              2.981             40.409
 Rotational               0.889              2.981             28.213
 Vibrational            103.767             22.785             15.287
 Vibration     1          0.600              1.962              3.871
 Vibration     2          0.630              1.865              2.313
 Vibration     3          0.642              1.828              2.057
 Vibration     4          0.706              1.634              1.307
 Vibration     5          0.759              1.488              0.994
 Vibration     6          0.775              1.446              0.922
 Vibration     7          0.871              1.214              0.619
 Vibration     8          0.922              1.105              0.512

 Optimization completed.
    -- Stationary point found.
 Normal termination of Gaussian 09 at Mon Jan 27 13:00:19 2020.
