 Gaussian 09, Revision D.01,
 Gaussian 09:  ES64L-G09RevD.01 24-Apr-2013

 -----------------------------
 # b3lyp 6-31G(2df,p) opt Freq
 -----------------------------

 -----
 titel
 -----
 Symbolic Z-matrix:
 Charge =  0 Multiplicity = 1

 SCF Done:  E(RB3LYP) =  -423.142150684     A.U. after   13 cycles
 Optimization completed.
    -- Stationary point found.
 Normal termination of Gaussian 09 at Tue Jan 28 08:11:16 2020.

 ----------------------------------------------------------------------
 #N Geom=AllCheck Guess=TCheck SCRF=Check GenChk RB3LYP/6-31G(2df,p) Fr
 eq
 ----------------------------------------------------------------------

 Structure from the checkpoint file:  "/scratch/puck/g09_a8b15b1c-acfb-48a0-ba4d-df62edcb6c14/Gau-8166.chk"
 -----
 titel
 -----
 Charge =  0 Multiplicity = 1

                         Standard orientation:
 ---------------------------------------------------------------------
 Center     Atomic      Atomic             Coordinates (Angstroms)
 Number     Number       Type             X           Y           Z
 ---------------------------------------------------------------------
      1          6           0       -2.581407   -0.360787   -0.045384
      2          6           0       -1.220822    0.100891    0.484532
      3          6           0       -0.708928    1.297162   -0.338341
      4          8           0        0.635229    1.682075   -0.056129
      5          6           0        1.551374    0.655282    0.165233
      6          6           0        1.619729   -0.682540   -0.531670
      7          8           0        0.340957   -1.160850   -0.944994
      8          6           0       -0.167266   -1.004749    0.420666
      9          6           0        1.215485   -0.585880    0.937239
     10          1           0       -3.304568    0.461572   -0.059315
     11          1           0       -2.486569   -0.745044   -1.066302
     12          1           0       -2.995938   -1.158919    0.578672
     13          1           0       -1.317340    0.399080    1.537348
     14          1           0       -0.806978    1.056203   -1.404068
     15          1           0       -1.314585    2.184760   -0.131278
     16          1           0        2.525660    1.083144    0.383692
     17          1           0        2.490658   -1.087714   -1.036003
     18          1           0       -0.530426   -1.966896    0.794600
     19          1           0        1.681611   -0.912268    1.857979
 ---------------------------------------------------------------------

 SCF Done:  E(RB3LYP) =  -423.142150684     A.U. after    1 cycles

 The electronic state is 1-A.
 Alpha  occ. eigenvalues --  -19.14117 -19.13961 -10.24015 -10.23957 -10.23785
 Alpha  occ. eigenvalues --  -10.22364 -10.19127 -10.19093 -10.17857  -1.06206
 Alpha  occ. eigenvalues --   -1.02309  -0.82979  -0.80100  -0.69372  -0.68452
 Alpha  occ. eigenvalues --   -0.61250  -0.56936  -0.53816  -0.53568  -0.48827
 Alpha  occ. eigenvalues --   -0.47901  -0.44025  -0.42775  -0.41430  -0.40276
 Alpha  occ. eigenvalues --   -0.39037  -0.37928  -0.35997  -0.35678  -0.31868
 Alpha  occ. eigenvalues --   -0.31488  -0.29082  -0.25150  -0.21562
 Alpha virt. eigenvalues --    0.06858   0.08769   0.10784   0.11496   0.13569
 Alpha virt. eigenvalues --    0.14105   0.14504   0.15609   0.16320   0.16660
 Alpha virt. eigenvalues --    0.18294   0.18564   0.19832   0.21214   0.22268

 Mulliken charges:
               1
     1  C   -0.411776
     2  C   -0.015199
     3  C   -0.063091
     4  O   -0.277020
     5  C    0.109271
     6  C    0.036822
     7  O   -0.303852
     8  C    0.089514
     9  C   -0.212984
    10  H    0.115392
    11  H    0.136088
    12  H    0.114743
    13  H    0.082237
    14  H    0.111235
    15  H    0.102532
    16  H    0.108065
    17  H    0.103712
    18  H    0.078964
    19  H    0.095346
 Sum of Mulliken charges =   0.00000

 Dipole moment (field-independent basis, Debye):
    X=             -0.1011    Y=             -0.6664    Z=              1.3814  Tot=              1.5370
 Quadrupole moment (field-independent basis, Debye-Ang):
   XX=            -47.7396   YY=            -56.5241   ZZ=            -53.6131
   XY=             -1.8840   XZ=              0.0357   YZ=             -2.0349

  Exact polarizability:  85.498  -0.781  69.951  -0.663  -1.312  64.650
 Approx polarizability: 110.955   1.079 105.484  -2.023   0.952 105.457

                      1                      2                      3
                      A                      A                      A
 Frequencies --    135.5521               207.9086               222.8988
 Red. masses --      3.0427                 2.5572                 1.1403
 Frc consts  --      0.0329                 0.0651                 0.0334
 IR Inten    --      1.2416                 5.4752                 0.9160

                      4                      5                      6
                      A                      A                      A
 Frequencies --    267.0381               339.9943               415.0961
 Red. masses --      2.9808                 3.4115                 4.3721
 Frc consts  --      0.1252                 0.2323                 0.4438
 IR Inten    --      1.0263                 3.6899                 1.5323

                      7                      8                      9
                      A                      A                      A
 Frequencies --    488.7207               534.2343               608.4162
 Red. masses --      5.3435                 2.9336                 3.0663
 Frc consts  --      0.7520                 0.4933                 0.6687
 IR Inten    --      2.7578                 1.1729                 5.4996

                     10                     11                     12
                      A                      A                      A
 Frequencies --    681.5862               732.9365               793.1035
 Red. masses --      3.5622                 2.9479                 2.2124
 Frc consts  --      0.9750                 0.9330                 0.8199
 IR Inten    --     15.3667                 7.9905                 9.6387

                     13                     14                     15
                      A                      A                      A
 Frequencies --    818.9584               862.4510               903.0855
 Red. masses --      2.8026                 2.1420                 2.3210
 Frc consts  --      1.1075                 0.9387                 1.1153
 IR Inten    --      7.3502                 5.1515                25.6156

                     16                     17                     18
                      A                      A                      A
 Frequencies --    926.6123               944.1673               980.2583
 Red. masses --      2.3489                 1.7100                 2.8578
 Frc consts  --      1.1882                 0.8981                 1.6180
 IR Inten    --     11.4472                 8.8847                10.3935

                     19                     20                     21
                      A                      A                      A
 Frequencies --    990.3507              1005.2133              1053.6528
 Red. masses --      1.9541                 1.5350                 2.8088
 Frc consts  --      1.1292                 0.9138                 1.8373
 IR Inten    --     24.3022                17.6338                16.8702

                     22                     23                     24
                      A                      A                      A
 Frequencies --   1056.2710              1062.2489              1102.2184
 Red. masses --      1.4287                 2.5239                 2.6821
 Frc consts  --      0.9392                 1.6779                 1.9198
 IR Inten    --      1.0412                 4.6636                42.7370

                     25                     26                     27
                      A                      A                      A
 Frequencies --   1115.3083              1126.2091              1161.1075
 Red. masses --      2.0519                 2.4116                 1.9528
 Frc consts  --      1.5038                 1.8022                 1.5511
 IR Inten    --      5.3972                11.6739                 3.4150

                     28                     29                     30
                      A                      A                      A
 Frequencies --   1204.0136              1245.7584              1274.6962
 Red. masses --      2.5646                 1.2714                 1.5706
 Frc consts  --      2.1905                 1.1625                 1.5036
 IR Inten    --    104.6992                 0.1584                11.7636

                     31                     32                     33
                      A                      A                      A
 Frequencies --   1280.3277              1310.8700              1335.8046
 Red. masses --      1.6608                 1.2084                 1.4318
 Frc consts  --      1.6040                 1.2234                 1.5052
 IR Inten    --      9.5433                 4.2323                12.3674

                     34                     35                     36
                      A                      A                      A
 Frequencies --   1347.3503              1370.5485              1404.7211
 Red. masses --      1.5209                 1.4134                 1.3012
 Frc consts  --      1.6267                 1.5642                 1.5127
 IR Inten    --      1.3798                 1.5682                 0.9313

                     37                     38                     39
                      A                      A                      A
 Frequencies --   1419.9014              1447.5019              1494.5894
 Red. masses --      1.4868                 1.8154                 1.0612
 Frc consts  --      1.7661                 2.2411                 1.3966
 IR Inten    --     21.4102                13.7920                 3.3981

                     40                     41                     42
                      A                      A                      A
 Frequencies --   1501.2468              1504.1276              3016.9452
 Red. masses --      1.0753                 1.0642                 1.0795
 Frc consts  --      1.4278                 1.4185                 5.7888
 IR Inten    --      3.2968                 6.3032                 6.6351

                     43                     44                     45
                      A                      A                      A
 Frequencies --   3027.6312              3032.9765              3058.3469
 Red. masses --      1.0598                 1.0396                 1.0880
 Frc consts  --      5.7238                 5.6344                 5.9957
 IR Inten    --     32.5257                42.5575                44.2063

                     46                     47                     48
                      A                      A                      A
 Frequencies --   3082.1777              3100.1996              3107.3904
 Red. masses --      1.1031                 1.1014                 1.1017
 Frc consts  --      6.1742                 6.2369                 6.2678
 IR Inten    --     27.2887                29.0004                27.3108

                     49                     50                     51
                      A                      A                      A
 Frequencies --   3158.4409              3168.8037              3191.6769
 Red. masses --      1.0880                 1.0905                 1.0978
 Frc consts  --      6.3947                 6.4518                 6.5889
 IR Inten    --      6.5844                33.7158                16.5865

 - Thermochemistry -
 -------------------
 Temperature   298.150 Kelvin.  Pressure   1.00000 Atm.
 Atom     1 has atomic number  6 and mass  12.00000

 Molecular mass:   126.06808 amu.
 Principal axes and moments of inertia in atomic units:
                           1         2         3
     Eigenvalues --   632.481301009.298741312.98561
           X            0.99994  -0.00783   0.00751
           Y            0.00807   0.99944  -0.03250
           Z           -0.00725   0.03256   0.99944
 This molecule is an asymmetric top.
 Rotational symmetry number  1.
 Warning -- assumption of classical behavior for rotation
           may cause significant error
 Rotational temperatures (Kelvin)      0.13694     0.08582     0.06597
 Rotational constants (GHZ):           2.85343     1.78811     1.37453
 Zero-point vibrational energy     422411.2 (Joules/Mol)
                                  100.95871 (Kcal/Mol)
 Warning -- explicit consideration of   9 degrees of freedom as
           vibrations may cause significant error
 Vibrational temperatures:    195.03   299.13   320.70   384.21   489.18
          (Kelvin)            597.23   703.16   768.64   875.37   980.65
                             1054.53  1141.10  1178.30  1240.87  1299.34
                             1333.19  1358.44  1410.37  1424.89  1446.28
                             1515.97  1519.74  1528.34  1585.84  1604.68
                             1620.36  1670.57  1732.30  1792.37  1834.00
                             1842.10  1886.05  1921.92  1938.53  1971.91
                             2021.08  2042.92  2082.63  2150.38  2159.96
                             2164.10  4340.71  4356.08  4363.77  4400.27
                             4434.56  4460.49  4470.84  4544.29  4559.20
                             4592.11

 Zero-point correction=                           0.160888 (Hartree/Particle)
 Thermal correction to Energy=                    0.168187
 Thermal correction to Enthalpy=                  0.169131
 Thermal correction to Gibbs Free Energy=         0.129447
 Sum of electronic and zero-point Energies=           -422.981263
 Sum of electronic and thermal Energies=              -422.973964
 Sum of electronic and thermal Enthalpies=            -422.973020
 Sum of electronic and thermal Free Energies=         -423.012704

                     E (Thermal)             CV                S
                      KCal/Mol        Cal/Mol-Kelvin    Cal/Mol-Kelvin
 Total                  105.539             29.499             83.521
 Electronic               0.000              0.000              0.000
 Translational            0.889              2.981             40.409
 Rotational               0.889              2.981             28.218
 Vibrational            103.761             23.538             14.895
 Vibration     1          0.613              1.918              2.866
 Vibration     2          0.641              1.829              2.062
 Vibration     3          0.649              1.806              1.935
 Vibration     4          0.672              1.734              1.615
 Vibration     5          0.720              1.596              1.212
 Vibration     6          0.778              1.437              0.909
 Vibration     7          0.845              1.275              0.687
 Vibration     8          0.889              1.174              0.578
 Vibration     9          0.967              1.014              0.435

 Optimization completed.
    -- Stationary point found.
 Normal termination of Gaussian 09 at Tue Jan 28 09:02:50 2020.
