 Gaussian 09, Revision D.01,
 Gaussian 09:  ES64L-G09RevD.01 24-Apr-2013

 -----------------------------
 # b3lyp 6-31G(2df,p) opt Freq
 -----------------------------

 -----
 titel
 -----
 Symbolic Z-matrix:
 Charge =  0 Multiplicity = 1

 SCF Done:  E(RB3LYP) =  -423.131269142     A.U. after   13 cycles
 Optimization completed.
    -- Stationary point found.
 Normal termination of Gaussian 09 at Mon Jan 27 23:06:17 2020.

 ----------------------------------------------------------------------
 #N Geom=AllCheck Guess=TCheck SCRF=Check GenChk RB3LYP/6-31G(2df,p) Fr
 eq
 ----------------------------------------------------------------------

 Structure from the checkpoint file:  "/scratch/puck/g09_7554e9eb-2a9f-4833-a3ba-83e80e5c13e8/Gau-67602.chk"
 -----
 titel
 -----
 Charge =  0 Multiplicity = 1

                         Standard orientation:
 ---------------------------------------------------------------------
 Center     Atomic      Atomic             Coordinates (Angstroms)
 Number     Number       Type             X           Y           Z
 ---------------------------------------------------------------------
      1          6           0        1.989693   -1.262306   -0.549794
      2          6           0        0.826792   -0.962328    0.388324
      3          6           0       -0.562844   -1.421713   -0.104380
      4          6           0       -1.632809   -0.948238    0.858534
      5          6           0       -1.067358    0.041760   -0.098692
      6          8           0       -1.865980    0.774796   -0.942194
      7          6           0        0.309712    0.495402    0.314195
      8          6           0        0.761412    1.771151    0.865930
      9          8           0        0.952784    1.450195   -0.528700
     10          1           0        2.900806   -0.750823   -0.225435
     11          1           0        2.193328   -2.337730   -0.572578
     12          1           0        1.769866   -0.932047   -1.569044
     13          1           0        1.063562   -1.295786    1.406504
     14          1           0       -0.738661   -2.223430   -0.810879
     15          1           0       -2.639951   -1.263446    0.602171
     16          1           0       -1.440418   -0.888490    1.928711
     17          1           0       -1.268897    1.228510   -1.552388
     18          1           0        0.039986    2.562456    1.063916
     19          1           0        1.678370    1.818490    1.451466
 ---------------------------------------------------------------------

 SCF Done:  E(RB3LYP) =  -423.131269142     A.U. after    1 cycles

 The electronic state is 1-A.
 Alpha  occ. eigenvalues --  -19.15690 -19.15081 -10.24167 -10.24132 -10.23429
 Alpha  occ. eigenvalues --  -10.19637 -10.18973 -10.18900 -10.17603  -1.07575
 Alpha  occ. eigenvalues --   -1.03607  -0.88856  -0.75834  -0.68239  -0.66146
 Alpha  occ. eigenvalues --   -0.61787  -0.58073  -0.54975  -0.52546  -0.50041
 Alpha  occ. eigenvalues --   -0.47413  -0.44126  -0.42834  -0.41075  -0.39398
 Alpha  occ. eigenvalues --   -0.38536  -0.37551  -0.37017  -0.34596  -0.32154
 Alpha  occ. eigenvalues --   -0.30387  -0.29460  -0.26505  -0.23031
 Alpha virt. eigenvalues --    0.07558   0.09059   0.10540   0.11158   0.12135
 Alpha virt. eigenvalues --    0.12673   0.13405   0.15150   0.15638   0.16805
 Alpha virt. eigenvalues --    0.17931   0.18248   0.18878   0.20249   0.21838

 Mulliken charges:
               1
     1  C   -0.396198
     2  C   -0.086612
     3  C   -0.153484
     4  C   -0.343167
     5  C    0.366937
     6  O   -0.454448
     7  C    0.337987
     8  C   -0.271572
     9  O   -0.285759
    10  H    0.120121
    11  H    0.113802
    12  H    0.124031
    13  H    0.072531
    14  H    0.093263
    15  H    0.124289
    16  H    0.104792
    17  H    0.294376
    18  H    0.120946
    19  H    0.118162
 Sum of Mulliken charges =   0.00000

 Dipole moment (field-independent basis, Debye):
    X=              0.7035    Y=             -0.5130    Z=              0.9795  Tot=              1.3105
 Quadrupole moment (field-independent basis, Debye-Ang):
   XX=            -56.3311   YY=            -51.8259   ZZ=            -51.0110
   XY=              0.3783   XZ=              1.0856   YZ=              1.8404

  Exact polarizability:  79.348   1.655  80.850  -0.162   2.365  66.786
 Approx polarizability: 108.259   2.047 116.467  -0.204  -0.151 105.361

                      1                      2                      3
                      A                      A                      A
 Frequencies --     99.2946               184.0704               202.1452
 Red. masses --      3.6297                 3.4630                 1.4364
 Frc consts  --      0.0211                 0.0691                 0.0346
 IR Inten    --      0.4312                11.4557                 0.3980

                      4                      5                      6
                      A                      A                      A
 Frequencies --    217.2020               255.4565               274.5860
 Red. masses --      1.7052                 3.3435                 2.5774
 Frc consts  --      0.0474                 0.1286                 0.1145
 IR Inten    --      0.5485                 9.1066                 2.7690

                      7                      8                      9
                      A                      A                      A
 Frequencies --    385.8844               413.7084               461.7292
 Red. masses --      2.2259                 1.5134                 2.1908
 Frc consts  --      0.1953                 0.1526                 0.2752
 IR Inten    --      6.1246                56.6957                29.1644

                     10                     11                     12
                      A                      A                      A
 Frequencies --    499.4727               518.5294               597.9391
 Red. masses --      4.7993                 3.7879                 3.4647
 Frc consts  --      0.7054                 0.6001                 0.7298
 IR Inten    --      1.5747                12.8295                 3.2928

                     13                     14                     15
                      A                      A                      A
 Frequencies --    682.9014               776.8695               828.1394
 Red. masses --      3.3921                 2.5662                 2.0715
 Frc consts  --      0.9320                 0.9125                 0.8370
 IR Inten    --     13.8573                 5.5803                 8.0565

                     16                     17                     18
                      A                      A                      A
 Frequencies --    835.9435               876.2633               923.6120
 Red. masses --      2.3062                 3.1641                 1.8958
 Frc consts  --      0.9495                 1.4314                 0.9528
 IR Inten    --     10.3699                 7.7608                 4.8441

                     19                     20                     21
                      A                      A                      A
 Frequencies --    938.5151               966.5086               998.1759
 Red. masses --      1.6427                 3.6625                 1.3309
 Frc consts  --      0.8525                 2.0158                 0.7813
 IR Inten    --      5.9077                41.1821                 2.3926

                     22                     23                     24
                      A                      A                      A
 Frequencies --   1015.2831              1041.6295              1098.5074
 Red. masses --      2.1630                 1.6336                 1.6668
 Frc consts  --      1.3136                 1.0443                 1.1850
 IR Inten    --     22.2171                 1.2436                 9.9546

                     25                     26                     27
                      A                      A                      A
 Frequencies --   1104.0849              1108.4665              1124.7522
 Red. masses --      1.4892                 1.4616                 1.5277
 Frc consts  --      1.0695                 1.0581                 1.1387
 IR Inten    --      1.8159                 4.0626                 2.3457

                     28                     29                     30
                      A                      A                      A
 Frequencies --   1162.4109              1166.7364              1215.2490
 Red. masses --      1.4423                 2.1321                 2.0375
 Frc consts  --      1.1482                 1.7100                 1.7728
 IR Inten    --      0.9560                10.1590                63.2432

                     31                     32                     33
                      A                      A                      A
 Frequencies --   1251.4680              1252.5214              1345.1533
 Red. masses --      1.7190                 1.5703                 2.1394
 Frc consts  --      1.5862                 1.4514                 2.2808
 IR Inten    --      1.1587                 5.2920                89.6388

                     34                     35                     36
                      A                      A                      A
 Frequencies --   1362.4420              1410.9424              1427.7820
 Red. masses --      1.7956                 1.2502                 1.6628
 Frc consts  --      1.9638                 1.4664                 1.9972
 IR Inten    --     38.0794                 4.2008                12.5286

                     37                     38                     39
                      A                      A                      A
 Frequencies --   1451.2955              1491.8635              1492.8176
 Red. masses --      2.1043                 1.0540                 1.0739
 Frc consts  --      2.6114                 1.3822                 1.4100
 IR Inten    --     32.1945                 5.1708                 3.3331

                     40                     41                     42
                      A                      A                      A
 Frequencies --   1505.5195              1531.6383              3022.2861
 Red. masses --      1.5406                 1.7504                 1.0838
 Frc consts  --      2.0574                 2.4194                 5.8326
 IR Inten    --     19.3361                19.1967                33.8054

                     43                     44                     45
                      A                      A                      A
 Frequencies --   3039.1970              3084.3405              3093.8083
 Red. masses --      1.0353                 1.0504                 1.0589
 Frc consts  --      5.6344                 5.8877                 5.9716
 IR Inten    --     24.1430                23.2857                24.5655

                     46                     47                     48
                      A                      A                      A
 Frequencies --   3107.1704              3116.1068              3172.3534
 Red. masses --      1.1016                 1.1015                 1.1193
 Frc consts  --      6.2662                 6.3016                 6.6369
 IR Inten    --     20.8279                23.5524                16.2370

                     49                     50                     51
                      A                      A                      A
 Frequencies --   3188.7460              3197.1811              3761.0784
 Red. masses --      1.1010                 1.1025                 1.0651
 Frc consts  --      6.5961                 6.6401                 8.8771
 IR Inten    --      3.2813                12.9008                32.3241

 - Thermochemistry -
 -------------------
 Temperature   298.150 Kelvin.  Pressure   1.00000 Atm.
 Atom     1 has atomic number  6 and mass  12.00000

 Molecular mass:   126.06808 amu.
 Principal axes and moments of inertia in atomic units:
                           1         2         3
     Eigenvalues --   839.14993 978.013731399.20650
           X            0.99781  -0.06422  -0.01609
           Y            0.06472   0.99736   0.03289
           Z            0.01394  -0.03386   0.99933
 This molecule is an asymmetric top.
 Rotational symmetry number  1.
 Warning -- assumption of classical behavior for rotation
           may cause significant error
 Rotational temperatures (Kelvin)      0.10322     0.08856     0.06190
 Rotational constants (GHZ):           2.15068     1.84531     1.28983
 Zero-point vibrational energy     414385.1 (Joules/Mol)
                                   99.04041 (Kcal/Mol)
 Warning -- explicit consideration of  12 degrees of freedom as
           vibrations may cause significant error
 Vibrational temperatures:    142.86   264.84   290.84   312.50   367.54
          (Kelvin)            395.07   555.20   595.23   664.32   718.63
                              746.05   860.30   982.54  1117.74  1191.51
                             1202.73  1260.75  1328.87  1350.31  1390.59
                             1436.15  1460.76  1498.67  1580.51  1588.53
                             1594.83  1618.27  1672.45  1678.67  1748.47
                             1800.58  1802.10  1935.37  1960.25  2030.03
                             2054.26  2088.09  2146.46  2147.83  2166.10
                             2203.68  4348.39  4372.72  4437.67  4451.29
                             4470.52  4483.38  4564.30  4587.89  4600.02
                             5411.35

 Zero-point correction=                           0.157831 (Hartree/Particle)
 Thermal correction to Energy=                    0.166358
 Thermal correction to Enthalpy=                  0.167303
 Thermal correction to Gibbs Free Energy=         0.125142
 Sum of electronic and zero-point Energies=           -422.973438
 Sum of electronic and thermal Energies=              -422.964911
 Sum of electronic and thermal Enthalpies=            -422.963967
 Sum of electronic and thermal Free Energies=         -423.006127

                     E (Thermal)             CV                S
                      KCal/Mol        Cal/Mol-Kelvin    Cal/Mol-Kelvin
 Total                  104.391             33.282             88.734
 Electronic               0.000              0.000              0.000
 Translational            0.889              2.981             40.409
 Rotational               0.889              2.981             28.531
 Vibrational            102.614             27.320             19.795
 Vibration     1          0.604              1.950              3.468
 Vibration     2          0.631              1.862              2.287
 Vibration     3          0.639              1.837              2.113
 Vibration     4          0.646              1.815              1.982
 Vibration     5          0.666              1.754              1.693
 Vibration     6          0.677              1.720              1.567
 Vibration     7          0.755              1.500              1.016
 Vibration     8          0.777              1.440              0.914
 Vibration     9          0.819              1.335              0.761
 Vibration    10          0.855              1.251              0.659
 Vibration    11          0.874              1.209              0.613
 Vibration    12          0.956              1.036              0.453

 Normal termination of Gaussian 09 at Mon Jan 27 23:49:18 2020.
