 Gaussian 09, Revision D.01,
 Gaussian 09:  ES64L-G09RevD.01 24-Apr-2013

 -----------------------------
 # b3lyp 6-31G(2df,p) opt Freq
 -----------------------------

 -----
 titel
 -----
 Symbolic Z-matrix:
 Charge =  0 Multiplicity = 1

 SCF Done:  E(RB3LYP) =  -423.131447707     A.U. after   14 cycles
 Optimization completed.
    -- Stationary point found.
 Normal termination of Gaussian 09 at Tue Jan 28 08:58:09 2020.

 ----------------------------------------------------------------------
 #N Geom=AllCheck Guess=TCheck SCRF=Check GenChk RB3LYP/6-31G(2df,p) Fr
 eq
 ----------------------------------------------------------------------

 Structure from the checkpoint file:  "/scratch/puck/g09_42353388-8fd2-458b-9e08-774b7f424b10/Gau-93550.chk"
 -----
 titel
 -----
 Charge =  0 Multiplicity = 1

                         Standard orientation:
 ---------------------------------------------------------------------
 Center     Atomic      Atomic             Coordinates (Angstroms)
 Number     Number       Type             X           Y           Z
 ---------------------------------------------------------------------
      1          8           0       -2.136900   -1.181556   -0.802606
      2          6           0       -1.888750    0.096999   -0.262802
      3          6           0       -0.498012    0.166948    0.367550
      4          8           0       -0.386939   -0.858119    1.338826
      5          6           0       -0.053796    1.599605    0.752338
      6          6           0        0.748232    1.675480   -0.573916
      7          6           0        0.635942    0.115928   -0.716317
      8          6           0        1.836829   -0.599627   -0.336391
      9          6           0        2.852978   -1.170171   -0.040579
     10          1           0       -1.796835   -1.807612   -0.149617
     11          1           0       -1.989426    0.822575   -1.077389
     12          1           0       -2.633759    0.367331    0.508993
     13          1           0       -0.943942   -0.618376    2.088991
     14          1           0       -0.842838    2.338983    0.917273
     15          1           0        0.605936    1.573915    1.622995
     16          1           0        0.210408    2.194634   -1.369889
     17          1           0        1.762364    2.068966   -0.512933
     18          1           0        0.278552   -0.245198   -1.684680
     19          1           0        3.739713   -1.688785    0.227198
 ---------------------------------------------------------------------

 SCF Done:  E(RB3LYP) =  -423.131447707     A.U. after    1 cycles

 The electronic state is 1-A.
 Alpha  occ. eigenvalues --  -19.15354 -19.13334 -10.24586 -10.22980 -10.20804
 Alpha  occ. eigenvalues --  -10.19389 -10.18939 -10.17415 -10.16396  -1.04333
 Alpha  occ. eigenvalues --   -1.01048  -0.85505  -0.74628  -0.70728  -0.67664
 Alpha  occ. eigenvalues --   -0.63377  -0.57489  -0.53248  -0.51809  -0.49889
 Alpha  occ. eigenvalues --   -0.48516  -0.44619  -0.43333  -0.42423  -0.41602
 Alpha  occ. eigenvalues --   -0.36667  -0.35661  -0.35004  -0.32913  -0.32465
 Alpha  occ. eigenvalues --   -0.28908  -0.26530  -0.25335  -0.25083
 Alpha virt. eigenvalues --    0.04935   0.05348   0.06661   0.09646   0.10477
 Alpha virt. eigenvalues --    0.11822   0.13533   0.14422   0.14623   0.15422
 Alpha virt. eigenvalues --    0.16596   0.18944   0.19451   0.20310   0.22310

 Mulliken charges:
               1
     1  O   -0.421429
     2  C   -0.093071
     3  C    0.368538
     4  O   -0.468867
     5  C   -0.292113
     6  C   -0.224456
     7  C   -0.261162
     8  C    0.361721
     9  C   -0.470642
    10  H    0.287394
    11  H    0.107180
    12  H    0.071534
    13  H    0.282386
    14  H    0.097055
    15  H    0.118409
    16  H    0.110413
    17  H    0.118706
    18  H    0.116314
    19  H    0.192090
 Sum of Mulliken charges =   0.00000

 Dipole moment (field-independent basis, Debye):
    X=             -0.4281    Y=              1.6784    Z=              1.6587  Tot=              2.3983
 Quadrupole moment (field-independent basis, Debye-Ang):
   XX=            -53.5263   YY=            -52.3886   ZZ=            -51.4366
   XY=             -2.6069   XZ=             -3.7428   YZ=             -2.1259

  Exact polarizability:  91.205 -11.051  76.003   1.450  -2.409  64.953
 Approx polarizability: 129.850 -21.018 110.650   7.790  -6.125  99.041

                      1                      2                      3
                      A                      A                      A
 Frequencies --     69.7866               126.8233               139.9216
 Red. masses --      3.8009                 4.0903                 4.0130
 Frc consts  --      0.0109                 0.0388                 0.0463
 IR Inten    --      0.5122                 8.7469                 0.9259

                      4                      5                      6
                      A                      A                      A
 Frequencies --    199.0327               228.7258               270.8172
 Red. masses --      2.7066                 3.4154                 1.1470
 Frc consts  --      0.0632                 0.1053                 0.0496
 IR Inten    --      4.9580                 1.4636                35.6626

                      7                      8                      9
                      A                      A                      A
 Frequencies --    337.7075               341.1033               380.6506
 Red. masses --      2.9032                 2.8868                 3.7224
 Frc consts  --      0.1951                 0.1979                 0.3178
 IR Inten    --     11.3915                12.5981                 4.8756

                     10                     11                     12
                      A                      A                      A
 Frequencies --    468.1091               506.7300               529.0707
 Red. masses --      2.4763                 1.6340                 2.7023
 Frc consts  --      0.3197                 0.2472                 0.4457
 IR Inten    --     21.2908                72.3722                45.6557

                     13                     14                     15
                      A                      A                      A
 Frequencies --    569.2686               621.6425               625.9441
 Red. masses --      4.5177                 1.2212                 1.2300
 Frc consts  --      0.8626                 0.2780                 0.2839
 IR Inten    --     34.0525                44.2070                45.0448

                     16                     17                     18
                      A                      A                      A
 Frequencies --    677.9650               742.4798               810.6301
 Red. masses --      2.8274                 1.5454                 2.5114
 Frc consts  --      0.7657                 0.5019                 0.9723
 IR Inten    --      1.9077                 7.6849                 2.5335

                     19                     20                     21
                      A                      A                      A
 Frequencies --    886.3264               905.4944               937.4761
 Red. masses --      2.2620                 2.0960                 2.7005
 Frc consts  --      1.0470                 1.0125                 1.3984
 IR Inten    --      2.9844                20.5192                 6.6044

                     22                     23                     24
                      A                      A                      A
 Frequencies --    965.1137              1028.5047              1042.2427
 Red. masses --      2.1198                 2.4718                 2.1627
 Frc consts  --      1.1633                 1.5406                 1.3842
 IR Inten    --     11.4487                 0.8848                25.0615

                     25                     26                     27
                      A                      A                      A
 Frequencies --   1094.1864              1116.6986              1140.1720
 Red. masses --      3.7966                 1.6515                 1.8764
 Frc consts  --      2.6781                 1.2134                 1.4372
 IR Inten    --     83.6723                 5.6220                13.8836

                     28                     29                     30
                      A                      A                      A
 Frequencies --   1174.4741              1207.0597              1227.5795
 Red. masses --      1.6192                 1.4463                 1.3528
 Frc consts  --      1.3159                 1.2416                 1.2011
 IR Inten    --      9.0094                12.9776                59.9170

                     31                     32                     33
                      A                      A                      A
 Frequencies --   1255.2652              1268.2259              1276.6021
 Red. masses --      1.2980                 1.7044                 1.6635
 Frc consts  --      1.2051                 1.6152                 1.5973
 IR Inten    --      9.1597                 5.5604                33.0075

                     34                     35                     36
                      A                      A                      A
 Frequencies --   1326.7946              1354.1962              1378.4942
 Red. masses --      1.4563                 1.6307                 1.4164
 Frc consts  --      1.5104                 1.7620                 1.5858
 IR Inten    --     17.0819                 7.8203                 7.9611

                     37                     38                     39
                      A                      A                      A
 Frequencies --   1440.1879              1472.4532              1489.9973
 Red. masses --      1.2908                 1.0894                 1.1124
 Frc consts  --      1.5774                 1.3916                 1.4550
 IR Inten    --     63.9001                 2.4379                 5.5023

                     40                     41                     42
                      A                      A                      A
 Frequencies --   1505.3122              2235.9572              2929.4096
 Red. masses --      1.0936                 5.9720                 1.0727
 Frc consts  --      1.4601                17.5914                 5.4236
 IR Inten    --      0.3827                 4.6690                76.5460

                     43                     44                     45
                      A                      A                      A
 Frequencies --   3055.3362              3066.2597              3068.7099
 Red. masses --      1.0589                 1.0859                 1.0831
 Frc consts  --      5.8238                 6.0154                 6.0093
 IR Inten    --     31.3723                14.0141                 8.3589

                     46                     47                     48
                      A                      A                      A
 Frequencies --   3080.6163              3113.0551              3144.6320
 Red. masses --      1.0655                 1.1060                 1.1070
 Frc consts  --      5.9579                 6.3150                 6.4498
 IR Inten    --     34.5410                14.6424                21.0185

                     49                     50                     51
                      A                      A                      A
 Frequencies --   3505.4999              3763.3262              3789.4151
 Red. masses --      1.1611                 1.0650                 1.0658
 Frc consts  --      8.4065                 8.8865                 9.0172
 IR Inten    --     68.5351                33.3505                18.3847

 - Thermochemistry -
 -------------------
 Temperature   298.150 Kelvin.  Pressure   1.00000 Atm.
 Atom     1 has atomic number  8 and mass  15.99491

 Molecular mass:   126.06808 amu.
 Principal axes and moments of inertia in atomic units:
                           1         2         3
     Eigenvalues --   779.763521352.242751602.77847
           X            0.99989  -0.01322  -0.00634
           Y            0.01313   0.99981  -0.01448
           Z            0.00653   0.01439   0.99988
 This molecule is an asymmetric top.
 Rotational symmetry number  1.
 Warning -- assumption of classical behavior for rotation
           may cause significant error
 Rotational temperatures (Kelvin)      0.11108     0.06405     0.05404
 Rotational constants (GHZ):           2.31447     1.33463     1.12601
 Zero-point vibrational energy     412062.6 (Joules/Mol)
                                   98.48532 (Kcal/Mol)
 Warning -- explicit consideration of  13 degrees of freedom as
           vibrations may cause significant error
 Vibrational temperatures:    100.41   182.47   201.32   286.36   329.09
          (Kelvin)            389.65   485.89   490.77   547.67   673.50
                              729.07   761.21   819.05   894.40   900.59
                              975.44  1068.26  1166.31  1275.22  1302.80
                             1348.82  1388.58  1479.79  1499.55  1574.29
                             1606.68  1640.45  1689.80  1736.69  1766.21
                             1806.04  1824.69  1836.74  1908.96  1948.38
                             1983.34  2072.11  2118.53  2143.77  2165.81
                             3217.04  4214.76  4395.94  4411.66  4415.18
                             4432.31  4478.99  4524.42  5043.63  5414.58
                             5452.12

 Zero-point correction=                           0.156946 (Hartree/Particle)
 Thermal correction to Energy=                    0.166439
 Thermal correction to Enthalpy=                  0.167383
 Thermal correction to Gibbs Free Energy=         0.122889
 Sum of electronic and zero-point Energies=           -422.974501
 Sum of electronic and thermal Energies=              -422.965009
 Sum of electronic and thermal Enthalpies=            -422.964064
 Sum of electronic and thermal Free Energies=         -423.008559

                     E (Thermal)             CV                S
                      KCal/Mol        Cal/Mol-Kelvin    Cal/Mol-Kelvin
 Total                  104.442             36.067             93.647
 Electronic               0.000              0.000              0.000
 Translational            0.889              2.981             40.409
 Rotational               0.889              2.981             28.915
 Vibrational            102.665             30.105             24.323
 Vibration     1          0.598              1.969              4.159
 Vibration     2          0.611              1.926              2.994
 Vibration     3          0.615              1.913              2.805
 Vibration     4          0.637              1.841              2.142
 Vibration     5          0.651              1.797              1.889
 Vibration     6          0.675              1.727              1.591
 Vibration     7          0.718              1.600              1.223
 Vibration     8          0.721              1.593              1.207
 Vibration     9          0.750              1.511              1.037
 Vibration    10          0.825              1.321              0.743
 Vibration    11          0.862              1.235              0.642
 Vibration    12          0.884              1.186              0.589
 Vibration    13          0.925              1.098              0.506

 Optimization completed.
    -- Stationary point found.
 Normal termination of Gaussian 09 at Tue Jan 28 09:40:52 2020.
