 Gaussian 09, Revision D.01,
 Gaussian 09:  ES64L-G09RevD.01 24-Apr-2013

 -----------------------------
 # b3lyp 6-31G(2df,p) opt Freq
 -----------------------------

 -----
 titel
 -----
 Symbolic Z-matrix:
 Charge =  0 Multiplicity = 1

 SCF Done:  E(RB3LYP) =  -423.091956549     A.U. after   13 cycles
 Optimization completed.
    -- Stationary point found.
 Normal termination of Gaussian 09 at Tue Jan 28 00:02:18 2020.

 ----------------------------------------------------------------------
 #N Geom=AllCheck Guess=TCheck SCRF=Check GenChk RB3LYP/6-31G(2df,p) Fr
 eq
 ----------------------------------------------------------------------

 Structure from the checkpoint file:  "/scratch/puck/g09_fdf8b20e-1394-4baa-a2d5-26a703809a48/Gau-164422.chk"
 -----
 titel
 -----
 Charge =  0 Multiplicity = 1

                         Standard orientation:
 ---------------------------------------------------------------------
 Center     Atomic      Atomic             Coordinates (Angstroms)
 Number     Number       Type             X           Y           Z
 ---------------------------------------------------------------------
      1          6           0        1.468576    1.718321   -0.247720
      2          6           0        0.100622    1.069923   -0.402461
      3          6           0       -0.730146    0.765353    0.875635
      4          6           0       -2.015205    0.210723    0.153601
      5          8           0       -1.452095   -0.613931   -0.935315
      6          6           0       -0.098366   -0.494402   -0.551211
      7          6           0        1.167053   -1.338149   -0.597516
      8          8           0        1.395947   -0.934061    0.797871
      9          6           0       -0.028355   -0.617916    0.961362
     10          1           0        2.055946    1.279009    0.557699
     11          1           0        2.044152    1.635542   -1.176950
     12          1           0        1.342867    2.787877   -0.044011
     13          1           0       -0.464745    1.594061   -1.179622
     14          1           0       -0.909615    1.472088    1.689003
     15          1           0       -2.644516   -0.422600    0.788566
     16          1           0       -2.617459    1.015951   -0.275291
     17          1           0        1.002562   -2.419834   -0.672640
     18          1           0        1.984353   -1.024383   -1.252946
     19          1           0       -0.529432   -1.416892    1.515599
 ---------------------------------------------------------------------

 SCF Done:  E(RB3LYP) =  -423.091956549     A.U. after    1 cycles

 The electronic state is 1-A.
 Alpha  occ. eigenvalues --  -19.14697 -19.14554 -10.24288 -10.24061 -10.24009
 Alpha  occ. eigenvalues --  -10.22622 -10.20799 -10.19205 -10.17153  -1.06209
 Alpha  occ. eigenvalues --   -1.02471  -0.83249  -0.73985  -0.71840  -0.67975
 Alpha  occ. eigenvalues --   -0.62670  -0.57818  -0.52645  -0.51091  -0.49956
 Alpha  occ. eigenvalues --   -0.47152  -0.45848  -0.43423  -0.40480  -0.39942
 Alpha  occ. eigenvalues --   -0.38478  -0.36225  -0.35450  -0.34423  -0.33322
 Alpha  occ. eigenvalues --   -0.33007  -0.27623  -0.25528  -0.23559
 Alpha virt. eigenvalues --    0.04793   0.09156   0.09567   0.12452   0.12662
 Alpha virt. eigenvalues --    0.13558   0.14167   0.14796   0.15520   0.15803
 Alpha virt. eigenvalues --    0.17069   0.18576   0.19321   0.20321   0.21593

 Mulliken charges:
               1
     1  C   -0.440062
     2  C    0.001203
     3  C   -0.154423
     4  C   -0.098298
     5  O   -0.346128
     6  C    0.375354
     7  C   -0.188825
     8  O   -0.304164
     9  C    0.095433
    10  H    0.146388
    11  H    0.112670
    12  H    0.110026
    13  H    0.075663
    14  H    0.072117
    15  H    0.110654
    16  H    0.117949
    17  H    0.117550
    18  H    0.116016
    19  H    0.080876
 Sum of Mulliken charges =   0.00000

 Dipole moment (field-independent basis, Debye):
    X=             -0.6414    Y=              0.8305    Z=              0.1162  Tot=              1.0557
 Quadrupole moment (field-independent basis, Debye-Ang):
   XX=            -54.1974   YY=            -51.7906   ZZ=            -54.4221
   XY=             -1.6028   XZ=             -5.7790   YZ=              0.3931

  Exact polarizability:  81.667  -2.445  76.657  -6.701   0.074  65.116
 Approx polarizability: 116.604  -5.185 108.955  -4.725   1.422 105.781

                      1                      2                      3
                      A                      A                      A
 Frequencies --    178.8857               229.5223               274.8283
 Red. masses --      1.1572                 2.4044                 2.5601
 Frc consts  --      0.0218                 0.0746                 0.1139
 IR Inten    --      0.1408                 0.2830                 0.0158

                      4                      5                      6
                      A                      A                      A
 Frequencies --    321.8922               331.4394               386.5114
 Red. masses --      2.1665                 3.3376                 3.5530
 Frc consts  --      0.1323                 0.2160                 0.3127
 IR Inten    --      1.0555                10.5514                 9.9807

                      7                      8                      9
                      A                      A                      A
 Frequencies --    450.7025               488.0667               599.2108
 Red. masses --      3.2937                 3.5280                 5.1356
 Frc consts  --      0.3942                 0.4952                 1.0864
 IR Inten    --      4.1756                 0.5660                 0.6233

                     10                     11                     12
                      A                      A                      A
 Frequencies --    671.0583               727.8141               794.0539
 Red. masses --      3.7875                 4.1789                 2.3211
 Frc consts  --      1.0049                 1.3042                 0.8623
 IR Inten    --      4.4695                 3.7256                12.2353

                     13                     14                     15
                      A                      A                      A
 Frequencies --    829.1028               859.7622               880.3252
 Red. masses --      3.0087                 4.5048                 2.6527
 Frc consts  --      1.2186                 1.9619                 1.2112
 IR Inten    --      7.8781                42.9002                10.8890

                     16                     17                     18
                      A                      A                      A
 Frequencies --    893.9146               921.6981               948.6729
 Red. masses --      3.6375                 2.7952                 2.9879
 Frc consts  --      1.7125                 1.3991                 1.5843
 IR Inten    --     30.5906                14.0215                25.6793

                     19                     20                     21
                      A                      A                      A
 Frequencies --    990.3910              1004.9139              1047.7688
 Red. masses --      2.4482                 1.5378                 1.5118
 Frc consts  --      1.4148                 0.9150                 0.9778
 IR Inten    --     15.7356                 1.1047                13.2578

                     22                     23                     24
                      A                      A                      A
 Frequencies --   1066.9845              1092.7489              1110.8862
 Red. masses --      2.4192                 1.7260                 2.1513
 Frc consts  --      1.6227                 1.2143                 1.5642
 IR Inten    --     11.4194                 0.3440                 0.8453

                     25                     26                     27
                      A                      A                      A
 Frequencies --   1123.6735              1145.3363              1173.0081
 Red. masses --      2.0379                 1.2929                 1.2987
 Frc consts  --      1.5160                 0.9993                 1.0528
 IR Inten    --      4.2424                 2.7284                 7.7551

                     28                     29                     30
                      A                      A                      A
 Frequencies --   1180.6200              1206.8544              1248.6952
 Red. masses --      1.7179                 1.6704                 1.6976
 Frc consts  --      1.4108                 1.4334                 1.5595
 IR Inten    --     21.7098                 1.6829                21.3801

                     31                     32                     33
                      A                      A                      A
 Frequencies --   1265.5166              1282.2239              1329.5455
 Red. masses --      1.7824                 2.5809                 1.7236
 Frc consts  --      1.6818                 2.5001                 1.7952
 IR Inten    --      2.7122                 6.3718                 1.3577

                     34                     35                     36
                      A                      A                      A
 Frequencies --   1334.4761              1349.5207              1407.9050
 Red. masses --      1.4106                 1.3844                 1.3264
 Frc consts  --      1.4800                 1.4855                 1.5490
 IR Inten    --     23.8048                 8.8521                 2.0697

                     37                     38                     39
                      A                      A                      A
 Frequencies --   1411.9696              1491.2795              1506.3319
 Red. masses --      1.3369                 1.0553                 1.0592
 Frc consts  --      1.5704                 1.3828                 1.4160
 IR Inten    --      2.9067                 4.8128                 4.1438

                     40                     41                     42
                      A                      A                      A
 Frequencies --   1510.6165              1512.2884              3028.5731
 Red. masses --      1.0958                 1.1004                 1.0557
 Frc consts  --      1.4733                 1.4828                 5.7051
 IR Inten    --      1.4407                 0.5933                61.0037

                     43                     44                     45
                      A                      A                      A
 Frequencies --   3031.4796              3039.3484              3051.6478
 Red. masses --      1.0451                 1.0600                 1.0827
 Frc consts  --      5.6590                 5.7691                 5.9404
 IR Inten    --     34.3100                41.2538                38.1133

                     46                     47                     48
                      A                      A                      A
 Frequencies --   3062.8202              3082.0000              3090.9987
 Red. masses --      1.0851                 1.1001                 1.0910
 Frc consts  --      5.9975                 6.1570                 6.1414
 IR Inten    --     42.8201                20.1559                53.5675

                     49                     50                     51
                      A                      A                      A
 Frequencies --   3097.7052              3100.8267              3155.3210
 Red. masses --      1.1080                 1.1072                 1.0960
 Frc consts  --      6.2645                 6.2721                 6.4290
 IR Inten    --     26.3708                32.8967                 8.0045

 - Thermochemistry -
 -------------------
 Temperature   298.150 Kelvin.  Pressure   1.00000 Atm.
 Atom     1 has atomic number  6 and mass  12.00000

 Molecular mass:   126.06808 amu.
 Principal axes and moments of inertia in atomic units:
                           1         2         3
     Eigenvalues --   709.02407 926.803751164.82413
           X            0.99749   0.03821  -0.05960
           Y           -0.03892   0.99918  -0.01076
           Z            0.05914   0.01306   0.99816
 This molecule is an asymmetric top.
 Rotational symmetry number  1.
 Warning -- assumption of classical behavior for rotation
           may cause significant error
 Rotational temperatures (Kelvin)      0.12216     0.09345     0.07436
 Rotational constants (GHZ):           2.54539     1.94727     1.54937
 Zero-point vibrational energy     420617.4 (Joules/Mol)
                                  100.52997 (Kcal/Mol)
 Warning -- explicit consideration of   9 degrees of freedom as
           vibrations may cause significant error
 Vibrational temperatures:    257.38   330.23   395.42   463.13   476.87
          (Kelvin)            556.10   648.46   702.22   862.13   965.50
                             1047.16  1142.47  1192.89  1237.00  1266.59
                             1286.14  1326.12  1364.93  1424.95  1445.85
                             1507.50  1535.15  1572.22  1598.32  1616.71
                             1647.88  1687.69  1698.65  1736.39  1796.59
                             1820.79  1844.83  1912.92  1920.01  1941.66
                             2025.66  2031.51  2145.62  2167.27  2173.44
                             2175.84  4357.44  4361.62  4372.94  4390.64
                             4406.71  4434.31  4447.25  4456.90  4461.39
                             4539.80

 Zero-point correction=                           0.160205 (Hartree/Particle)
 Thermal correction to Energy=                    0.167384
 Thermal correction to Enthalpy=                  0.168328
 Thermal correction to Gibbs Free Energy=         0.129136
 Sum of electronic and zero-point Energies=           -422.931752
 Sum of electronic and thermal Energies=              -422.924572
 Sum of electronic and thermal Enthalpies=            -422.923628
 Sum of electronic and thermal Free Energies=         -422.962820

                     E (Thermal)             CV                S
                      KCal/Mol        Cal/Mol-Kelvin    Cal/Mol-Kelvin
 Total                  105.035             29.676             82.487
 Electronic               0.000              0.000              0.000
 Translational            0.889              2.981             40.409
 Rotational               0.889              2.981             28.128
 Vibrational            103.258             23.714             13.950
 Vibration     1          0.629              1.868              2.340
 Vibration     2          0.652              1.796              1.883
 Vibration     3          0.677              1.720              1.566
 Vibration     4          0.707              1.632              1.300
 Vibration     5          0.714              1.613              1.253
 Vibration     6          0.755              1.499              1.014
 Vibration     7          0.809              1.359              0.794
 Vibration     8          0.844              1.277              0.689
 Vibration     9          0.957              1.033              0.451

 Normal termination of Gaussian 09 at Tue Jan 28 00:40:49 2020.
