 Gaussian 09, Revision D.01,
 Gaussian 09:  ES64L-G09RevD.01 24-Apr-2013

 -----------------------------
 # b3lyp 6-31G(2df,p) opt Freq
 -----------------------------

 -----
 titel
 -----
 Symbolic Z-matrix:
 Charge =  0 Multiplicity = 1

 SCF Done:  E(RB3LYP) =  -423.149217642     A.U. after   14 cycles
 Optimization completed.
    -- Stationary point found.
 Normal termination of Gaussian 09 at Mon Jan 27 22:14:42 2020.

 ----------------------------------------------------------------------
 #N Geom=AllCheck Guess=TCheck SCRF=Check GenChk RB3LYP/6-31G(2df,p) Fr
 eq
 ----------------------------------------------------------------------

 Structure from the checkpoint file:  "/scratch/puck/g09_aea780c8-9862-4d44-8bc2-e18508c8a820/Gau-28324.chk"
 -----
 titel
 -----
 Charge =  0 Multiplicity = 1

                         Standard orientation:
 ---------------------------------------------------------------------
 Center     Atomic      Atomic             Coordinates (Angstroms)
 Number     Number       Type             X           Y           Z
 ---------------------------------------------------------------------
      1          6           0       -2.012201   -1.301106   -0.000003
      2          6           0       -1.095336   -0.075003   -0.000004
      3          6           0       -1.957025    1.190320   -0.000025
      4          6           0        0.146114   -0.061406    0.980323
      5          6           0        0.834695   -1.083467    0.000002
      6          8           0        2.218404   -1.254413    0.000053
      7          6           0        0.146153   -0.061407   -0.980311
      8          6           0        0.744524    0.961411    0.000033
      9          8           0        1.430817    1.938924    0.000027
     10          1           0       -1.498742   -2.262805   -0.000560
     11          1           0       -2.661792   -1.276700    0.881633
     12          1           0       -2.662522   -1.276135   -0.881089
     13          1           0       -2.605374    1.213486   -0.882832
     14          1           0       -2.605829    1.213205    0.882455
     15          1           0       -1.360265    2.106869    0.000276
     16          1           0        0.147400   -0.067110    2.068828
     17          1           0        0.406853   -2.081130    0.000017
     18          1           0        2.657506   -0.394745   -0.000639
     19          1           0        0.147448   -0.067071   -2.068818
 ---------------------------------------------------------------------

 SCF Done:  E(RB3LYP) =  -423.149217642     A.U. after    1 cycles

 The electronic state is 1-A.
 Alpha  occ. eigenvalues --  -19.15103 -19.14362 -10.28081 -10.25944 -10.22753
 Alpha  occ. eigenvalues --  -10.20771 -10.20770 -10.18864 -10.18502  -1.05919
 Alpha  occ. eigenvalues --   -1.03677  -0.91944  -0.76918  -0.70487  -0.65559
 Alpha  occ. eigenvalues --   -0.64747  -0.58036  -0.52663  -0.51805  -0.48303
 Alpha  occ. eigenvalues --   -0.46391  -0.45155  -0.42509  -0.40909  -0.40010
 Alpha  occ. eigenvalues --   -0.39592  -0.38901  -0.38400  -0.36840  -0.34581
 Alpha  occ. eigenvalues --   -0.31748  -0.31593  -0.26982  -0.24628
 Alpha virt. eigenvalues --    0.00093   0.07901   0.09089   0.11681   0.11714
 Alpha virt. eigenvalues --    0.12720   0.13502   0.14238   0.14968   0.16574
 Alpha virt. eigenvalues --    0.16656   0.17527   0.17701   0.19972   0.21461

 Mulliken charges:
               1
     1  C   -0.474066
     2  C    0.330836
     3  C   -0.462862
     4  C   -0.257313
     5  C    0.181486
     6  O   -0.456873
     7  C   -0.257349
     8  C    0.404395
     9  O   -0.340934
    10  H    0.126366
    11  H    0.124847
    12  H    0.124838
    13  H    0.121338
    14  H    0.121334
    15  H    0.138809
    16  H    0.090410
    17  H    0.099554
    18  H    0.294778
    19  H    0.090408
 Sum of Mulliken charges =   0.00000

 Dipole moment (field-independent basis, Debye):
    X=             -2.4281    Y=             -1.1597    Z=             -0.0010  Tot=              2.6908
 Quadrupole moment (field-independent basis, Debye-Ang):
   XX=            -54.6276   YY=            -59.8221   ZZ=            -51.6951
   XY=             -0.2544   XZ=             -0.0032   YZ=              0.0002

  Exact polarizability:  85.062   3.278  76.165  -0.001  -0.001  65.715
 Approx polarizability: 119.100   8.766 118.749  -0.002  -0.001 105.047

                      1                      2                      3
                      A                      A                      A
 Frequencies --    136.5890               152.1314               180.7000
 Red. masses --      9.2755                 1.0656                 2.6688
 Frc consts  --      0.1020                 0.0145                 0.0513
 IR Inten    --      3.4454                 0.1561                 0.8361

                      4                      5                      6
                      A                      A                      A
 Frequencies --    224.1904               234.4273               278.4460
 Red. masses --      1.1412                 4.2873                 1.6824
 Frc consts  --      0.0338                 0.1388                 0.0769
 IR Inten    --      0.0184                 0.9404                11.0472

                      7                      8                      9
                      A                      A                      A
 Frequencies --    353.3269               391.6864               426.5092
 Red. masses --      1.4512                 2.5188                 2.6396
 Frc consts  --      0.1067                 0.2277                 0.2829
 IR Inten    --     55.3538                 0.0360                12.4504

                     10                     11                     12
                      A                      A                      A
 Frequencies --    445.8558               489.3316               523.9765
 Red. masses --      3.8201                 3.0524                 4.7282
 Frc consts  --      0.4474                 0.4306                 0.7648
 IR Inten    --      0.1322                 4.5243                 1.1490

                     13                     14                     15
                      A                      A                      A
 Frequencies --    619.7135               709.0831               712.2819
 Red. masses --      4.3890                 3.8250                 3.0642
 Frc consts  --      0.9931                 1.1331                 0.9160
 IR Inten    --      1.1499                 3.3983                 2.9595

                     16                     17                     18
                      A                      A                      A
 Frequencies --    781.6683               803.6231               898.6802
 Red. masses --      6.6814                 3.0381                 3.2770
 Frc consts  --      2.4053                 1.1560                 1.5593
 IR Inten    --      5.4515                 3.4190                18.0455

                     19                     20                     21
                      A                      A                      A
 Frequencies --    938.0923               954.6526               969.2289
 Red. masses --      1.4012                 1.6288                 1.6070
 Frc consts  --      0.7265                 0.8746                 0.8895
 IR Inten    --     13.9219                 0.3229                 0.6708

                     22                     23                     24
                      A                      A                      A
 Frequencies --   1015.9886              1035.1822              1078.6492
 Red. masses --      1.3569                 1.4951                 1.5544
 Frc consts  --      0.8252                 0.9440                 1.0655
 IR Inten    --      2.5888                 0.4280                 3.5770

                     25                     26                     27
                      A                      A                      A
 Frequencies --   1094.4926              1107.8976              1149.5769
 Red. masses --      2.4379                 5.5138                 1.4753
 Frc consts  --      1.7206                 3.9875                 1.1487
 IR Inten    --    125.6340                 5.5477                 2.4752

                     28                     29                     30
                      A                      A                      A
 Frequencies --   1153.2979              1221.0537              1221.6856
 Red. masses --      1.5149                 2.5227                 2.3346
 Frc consts  --      1.1872                 2.2161                 2.0530
 IR Inten    --      0.5303                47.4469                 4.1407

                     31                     32                     33
                      A                      A                      A
 Frequencies --   1237.2903              1294.3774              1308.5754
 Red. masses --      2.7636                 2.3417                 1.5613
 Frc consts  --      2.4927                 2.3115                 1.5752
 IR Inten    --     91.3889                 5.5134                21.5402

                     34                     35                     36
                      A                      A                      A
 Frequencies --   1409.9438              1430.1911              1457.4249
 Red. masses --      1.2421                 1.2153                 1.1635
 Frc consts  --      1.4549                 1.4646                 1.4561
 IR Inten    --     21.4508                 2.5547                48.5977

                     37                     38                     39
                      A                      A                      A
 Frequencies --   1480.0608              1495.4829              1505.7112
 Red. masses --      1.0434                 1.0566                 1.0463
 Frc consts  --      1.3467                 1.3923                 1.3976
 IR Inten    --      0.0860                 4.8627                 9.3744

                     40                     41                     42
                      A                      A                      A
 Frequencies --   1515.4407              1898.0560              3030.3779
 Red. masses --      1.0733                12.1344                 1.0364
 Frc consts  --      1.4523                25.7565                 5.6076
 IR Inten    --      1.5919               338.8025                16.5332

                     43                     44                     45
                      A                      A                      A
 Frequencies --   3040.6713              3090.6284              3096.3102
 Red. masses --      1.0398                 1.1010                 1.1003
 Frc consts  --      5.6642                 6.1961                 6.2153
 IR Inten    --     27.7937                 0.5588                34.4210

                     46                     47                     48
                      A                      A                      A
 Frequencies --   3110.2014              3132.6568              3139.1679
 Red. masses --      1.1011                 1.0963                 1.0915
 Frc consts  --      6.2753                 6.3388                 6.3374
 IR Inten    --     19.3629                17.6711                38.6447

                     49                     50                     51
                      A                      A                      A
 Frequencies --   3142.4237              3174.2132              3777.5024
 Red. masses --      1.0939                 1.0865                 1.0657
 Frc consts  --      6.3642                 6.4497                 8.9599
 IR Inten    --      1.0485                18.1411                26.1963

 - Thermochemistry -
 -------------------
 Temperature   298.150 Kelvin.  Pressure   1.00000 Atm.
 Atom     1 has atomic number  6 and mass  12.00000

 Molecular mass:   126.06808 amu.
 Principal axes and moments of inertia in atomic units:
                           1         2         3
     Eigenvalues --   725.385231104.906411581.54831
           X            0.99998  -0.00644  -0.00001
           Y            0.00644   0.99998   0.00000
           Z            0.00001   0.00000   1.00000
 This molecule is an asymmetric top.
 Rotational symmetry number  1.
 Warning -- assumption of classical behavior for rotation
           may cause significant error
 Rotational temperatures (Kelvin)      0.11940     0.07839     0.05477
 Rotational constants (GHZ):           2.48798     1.63339     1.14112
 Zero-point vibrational energy     413122.7 (Joules/Mol)
                                   98.73870 (Kcal/Mol)
 Warning -- explicit consideration of  13 degrees of freedom as
           vibrations may cause significant error
 Vibrational temperatures:    196.52   218.88   259.99   322.56   337.29
          (Kelvin)            400.62   508.36   563.55   613.65   641.49
                              704.04   753.88   891.63  1020.21  1024.81
                             1124.64  1156.23  1293.00  1349.70  1373.53
                             1394.50  1461.78  1489.39  1551.93  1574.73
                             1594.02  1653.98  1659.34  1756.82  1757.73
                             1780.18  1862.32  1882.75  2028.59  2057.72
                             2096.91  2129.47  2151.66  2166.38  2180.38
                             2730.88  4360.03  4374.84  4446.72  4454.89
                             4474.88  4507.19  4516.56  4521.24  4566.98
                             5434.98

 Zero-point correction=                           0.157350 (Hartree/Particle)
 Thermal correction to Energy=                    0.166233
 Thermal correction to Enthalpy=                  0.167177
 Thermal correction to Gibbs Free Energy=         0.124457
 Sum of electronic and zero-point Energies=           -422.991868
 Sum of electronic and thermal Energies=              -422.982985
 Sum of electronic and thermal Enthalpies=            -422.982040
 Sum of electronic and thermal Free Energies=         -423.024761

                     E (Thermal)             CV                S
                      KCal/Mol        Cal/Mol-Kelvin    Cal/Mol-Kelvin
 Total                  104.313             34.486             89.912
 Electronic               0.000              0.000              0.000
 Translational            0.889              2.981             40.409
 Rotational               0.889              2.981             28.629
 Vibrational            102.535             28.524             20.874
 Vibration     1          0.614              1.917              2.851
 Vibration     2          0.619              1.900              2.645
 Vibration     3          0.630              1.866              2.321
 Vibration     4          0.649              1.804              1.925
 Vibration     5          0.654              1.788              1.845
 Vibration     6          0.679              1.713              1.543
 Vibration     7          0.730              1.568              1.151
 Vibration     8          0.759              1.488              0.994
 Vibration     9          0.788              1.413              0.870
 Vibration    10          0.805              1.370              0.808
 Vibration    11          0.845              1.274              0.685
 Vibration    12          0.879              1.197              0.601
 Vibration    13          0.980              0.990              0.417

 Optimization completed.
    -- Stationary point found.
 Normal termination of Gaussian 09 at Tue Jan 28 00:28:49 2020.
