 Gaussian 09, Revision D.01,
 Gaussian 09:  ES64L-G09RevD.01 24-Apr-2013

 -----------------------------
 # b3lyp 6-31G(2df,p) opt Freq
 -----------------------------

 -----
 titel
 -----
 Symbolic Z-matrix:
 Charge =  0 Multiplicity = 1

 SCF Done:  E(RB3LYP) =  -423.147687669     A.U. after   14 cycles
 Optimization completed.
    -- Stationary point found.
 Normal termination of Gaussian 09 at Mon Jan 27 17:14:52 2020.

 ----------------------------------------------------------------------
 #N Geom=AllCheck Guess=TCheck SCRF=Check GenChk RB3LYP/6-31G(2df,p) Fr
 eq
 ----------------------------------------------------------------------

 Structure from the checkpoint file:  "/scratch/puck/g09_520acf64-2b93-4cc9-992a-10136f534d48/Gau-39507.chk"
 -----
 titel
 -----
 Charge =  0 Multiplicity = 1

                         Standard orientation:
 ---------------------------------------------------------------------
 Center     Atomic      Atomic             Coordinates (Angstroms)
 Number     Number       Type             X           Y           Z
 ---------------------------------------------------------------------
      1          8           0        0.035389    2.107168   -0.132022
      2          6           0        0.392550    0.775209    0.014873
      3          6           0        0.808022    0.116909    1.380212
      4          6           0        0.337666   -1.186825    0.662567
      5          6           0        1.375821   -1.324804   -0.473144
      6          6           0        1.414400    0.160654   -0.966717
      7          6           0       -0.715076   -0.288399   -0.005236
      8          6           0       -1.894435   -0.498113   -0.833432
      9          8           0       -1.992167   -0.061495    0.542320
     10          1           0        0.836758    2.632166   -0.229036
     11          1           0        1.857245    0.178861    1.684079
     12          1           0        0.142127    0.417145    2.190037
     13          1           0        0.050307   -2.077719    1.217111
     14          1           0        2.345174   -1.667758   -0.101371
     15          1           0        1.049801   -2.015568   -1.255379
     16          1           0        2.404249    0.617986   -0.861073
     17          1           0        1.094690    0.276601   -2.006145
     18          1           0       -2.178835    0.251012   -1.570752
     19          1           0       -2.260980   -1.505900   -1.024600
 ---------------------------------------------------------------------

 SCF Done:  E(RB3LYP) =  -423.147687669     A.U. after    1 cycles

 The electronic state is 1-A.
 Alpha  occ. eigenvalues --  -19.14518 -19.14476 -10.23943 -10.23440 -10.22659
 Alpha  occ. eigenvalues --  -10.19312 -10.18900 -10.18679 -10.18083  -1.06783
 Alpha  occ. eigenvalues --   -1.03021  -0.88186  -0.72626  -0.68594  -0.66634
 Alpha  occ. eigenvalues --   -0.62749  -0.57800  -0.53430  -0.52379  -0.48545
 Alpha  occ. eigenvalues --   -0.47606  -0.45408  -0.43185  -0.40160  -0.39049
 Alpha  occ. eigenvalues --   -0.36539  -0.36386  -0.35538  -0.34286  -0.33428
 Alpha  occ. eigenvalues --   -0.31323  -0.28937  -0.25760  -0.24730
 Alpha virt. eigenvalues --    0.07059   0.09167   0.10468   0.11507   0.12203
 Alpha virt. eigenvalues --    0.13767   0.14371   0.15460   0.16419   0.17130
 Alpha virt. eigenvalues --    0.17677   0.18663   0.20588   0.21239   0.22358

 Mulliken charges:
               1
     1  O   -0.482590
     2  C    0.326082
     3  C   -0.304512
     4  C   -0.127018
     5  C   -0.218022
     6  C   -0.276391
     7  C    0.506663
     8  C   -0.317186
     9  O   -0.305745
    10  H    0.281505
    11  H    0.082795
    12  H    0.123014
    13  H    0.076427
    14  H    0.102036
    15  H    0.102064
    16  H    0.090880
    17  H    0.104304
    18  H    0.122262
    19  H    0.113434
 Sum of Mulliken charges =   0.00000

 Dipole moment (field-independent basis, Debye):
    X=              2.4918    Y=             -0.6390    Z=             -1.2702  Tot=              2.8689
 Quadrupole moment (field-independent basis, Debye-Ang):
   XX=            -53.9637   YY=            -50.9983   ZZ=            -52.5514
   XY=              4.6625   XZ=              3.1508   YZ=             -0.2315

  Exact polarizability:  79.973   2.097  73.219   4.583   0.160  70.689
 Approx polarizability: 113.204   1.665 105.968   4.495   1.127 107.052

                      1                      2                      3
                      A                      A                      A
 Frequencies --    161.8886               205.1602               218.7721
 Red. masses --      3.7582                 3.5907                 1.1384
 Frc consts  --      0.0580                 0.0890                 0.0321
 IR Inten    --      1.4419                 6.6142                74.5667

                      4                      5                      6
                      A                      A                      A
 Frequencies --    245.9401               278.0780               384.7275
 Red. masses --      2.0366                 2.9949                 3.5216
 Frc consts  --      0.0726                 0.1364                 0.3071
 IR Inten    --      7.8216                 5.7042                 7.1700

                      7                      8                      9
                      A                      A                      A
 Frequencies --    406.4572               444.4474               584.2491
 Red. masses --      2.6913                 2.5621                 3.9341
 Frc consts  --      0.2620                 0.2982                 0.7912
 IR Inten    --      3.8924                 3.3521                12.7491

                     10                     11                     12
                      A                      A                      A
 Frequencies --    605.0329               618.1697               688.9222
 Red. masses --      4.8804                 3.1264                 3.5371
 Frc consts  --      1.0526                 0.7039                 0.9891
 IR Inten    --      4.1384                 8.5309                 4.3092

                     13                     14                     15
                      A                      A                      A
 Frequencies --    798.9495               838.5350               866.9466
 Red. masses --      2.4929                 1.2453                 2.8433
 Frc consts  --      0.9376                 0.5159                 1.2591
 IR Inten    --      2.7625                 3.1882                 7.6232

                     16                     17                     18
                      A                      A                      A
 Frequencies --    889.2495               907.8267               930.7393
 Red. masses --      2.7350                 3.5782                 2.0033
 Frc consts  --      1.2743                 1.7375                 1.0225
 IR Inten    --      7.0210                10.7272                 0.9898

                     19                     20                     21
                      A                      A                      A
 Frequencies --    960.7425               970.6302              1006.0138
 Red. masses --      1.6520                 2.1855                 2.5341
 Frc consts  --      0.8984                 1.2132                 1.5110
 IR Inten    --      5.6886                 3.0337                27.2560

                     22                     23                     24
                      A                      A                      A
 Frequencies --   1048.1568              1069.0014              1102.9627
 Red. masses --      2.0082                 1.2969                 2.0592
 Frc consts  --      1.2999                 0.8732                 1.4760
 IR Inten    --     23.8836                 8.4005                10.3090

                     25                     26                     27
                      A                      A                      A
 Frequencies --   1117.1865              1131.1728              1146.0643
 Red. masses --      1.4574                 1.5042                 1.4884
 Frc consts  --      1.0717                 1.1340                 1.1519
 IR Inten    --      7.1841                19.1787                 0.1336

                     28                     29                     30
                      A                      A                      A
 Frequencies --   1171.9461              1186.2178              1215.3620
 Red. masses --      1.5139                 1.5946                 1.5796
 Frc consts  --      1.2251                 1.3220                 1.3747
 IR Inten    --      3.1499                 3.6667                20.7106

                     31                     32                     33
                      A                      A                      A
 Frequencies --   1227.3931              1253.2297              1267.2025
 Red. masses --      1.4648                 1.3158                 2.0616
 Frc consts  --      1.3002                 1.2176                 1.9505
 IR Inten    --      1.2382                 3.2903                28.0589

                     34                     35                     36
                      A                      A                      A
 Frequencies --   1307.3868              1322.2262              1373.7643
 Red. masses --      1.7722                 1.7128                 2.2632
 Frc consts  --      1.7847                 1.7643                 2.5166
 IR Inten    --     67.7066                62.4972                14.3851

                     37                     38                     39
                      A                      A                      A
 Frequencies --   1462.6426              1488.3588              1489.9709
 Red. masses --      1.5204                 1.1066                 1.0953
 Frc consts  --      1.9163                 1.4443                 1.4326
 IR Inten    --      7.4427                 2.3653                 0.3050

                     40                     41                     42
                      A                      A                      A
 Frequencies --   1513.3355              1555.4038              3039.2977
 Red. masses --      1.1338                 2.3895                 1.0609
 Frc consts  --      1.5298                 3.4060                 5.7738
 IR Inten    --      1.9745                19.2279                37.1370

                     43                     44                     45
                      A                      A                      A
 Frequencies --   3055.5928              3059.0552              3082.9926
 Red. masses --      1.0600                 1.0599                 1.0506
 Frc consts  --      5.8311                 5.8436                 5.8835
 IR Inten    --     35.7066                44.8131                20.1939

                     46                     47                     48
                      A                      A                      A
 Frequencies --   3086.2278              3106.4141              3138.8280
 Red. masses --      1.1043                 1.1061                 1.1011
 Frc consts  --      6.1974                 6.2887                 6.3914
 IR Inten    --      3.4222                44.3445                16.8666

                     49                     50                     51
                      A                      A                      A
 Frequencies --   3142.7283              3170.1469              3811.6137
 Red. masses --      1.0954                 1.1188                 1.0660
 Frc consts  --      6.3745                 6.6249                 9.1247
 IR Inten    --     24.7419                18.1549                22.9613

 - Thermochemistry -
 -------------------
 Temperature   298.150 Kelvin.  Pressure   1.00000 Atm.
 Atom     1 has atomic number  8 and mass  15.99491

 Molecular mass:   126.06808 amu.
 Principal axes and moments of inertia in atomic units:
                           1         2         3
     Eigenvalues --   772.41877 973.438871214.38180
           X            0.99954   0.01669   0.02527
           Y           -0.01703   0.99977   0.01340
           Z           -0.02504  -0.01383   0.99959
 This molecule is an asymmetric top.
 Rotational symmetry number  1.
 Warning -- assumption of classical behavior for rotation
           may cause significant error
 Rotational temperatures (Kelvin)      0.11213     0.08898     0.07132
 Rotational constants (GHZ):           2.33648     1.85399     1.48614
 Zero-point vibrational energy     419610.3 (Joules/Mol)
                                  100.28926 (Kcal/Mol)
 Warning -- explicit consideration of  11 degrees of freedom as
           vibrations may cause significant error
 Vibrational temperatures:    232.92   295.18   314.76   353.85   400.09
          (Kelvin)            553.54   584.80   639.46   840.60   870.51
                              889.41   991.20  1149.51  1206.46  1247.34
                             1279.43  1306.16  1339.12  1382.29  1396.52
                             1447.43  1508.06  1538.05  1586.92  1607.38
                             1627.50  1648.93  1686.17  1706.70  1748.63
                             1765.94  1803.12  1823.22  1881.04  1902.39
                             1976.54  2104.41  2141.41  2143.73  2177.35
                             2237.88  4372.87  4396.31  4401.29  4435.73
                             4440.39  4469.43  4516.07  4521.68  4561.13
                             5484.06

 Zero-point correction=                           0.159821 (Hartree/Particle)
 Thermal correction to Energy=                    0.167573
 Thermal correction to Enthalpy=                  0.168517
 Thermal correction to Gibbs Free Energy=         0.128121
 Sum of electronic and zero-point Energies=           -422.987867
 Sum of electronic and thermal Energies=              -422.980115
 Sum of electronic and thermal Enthalpies=            -422.979170
 Sum of electronic and thermal Free Energies=         -423.019567

                     E (Thermal)             CV                S
                      KCal/Mol        Cal/Mol-Kelvin    Cal/Mol-Kelvin
 Total                  105.154             31.304             85.021
 Electronic               0.000              0.000              0.000
 Translational            0.889              2.981             40.409
 Rotational               0.889              2.981             28.303
 Vibrational            103.376             25.343             16.309
 Vibration     1          0.622              1.889              2.528
 Vibration     2          0.640              1.833              2.086
 Vibration     3          0.647              1.812              1.969
 Vibration     4          0.660              1.770              1.760
 Vibration     5          0.679              1.714              1.545
 Vibration     6          0.754              1.503              1.021
 Vibration     7          0.771              1.456              0.939
 Vibration     8          0.804              1.373              0.813
 Vibration     9          0.941              1.065              0.478
 Vibration    10          0.964              1.021              0.441
 Vibration    11          0.978              0.994              0.419

 Optimization completed.
    -- Stationary point found.
 Normal termination of Gaussian 09 at Mon Jan 27 18:04:08 2020.
