 Gaussian 09, Revision D.01,
 Gaussian 09:  ES64L-G09RevD.01 24-Apr-2013

 -----------------------------
 # b3lyp 6-31G(2df,p) opt Freq
 -----------------------------

 -----
 titel
 -----
 Symbolic Z-matrix:
 Charge =  0 Multiplicity = 1

 SCF Done:  E(RB3LYP) =  -423.153049800     A.U. after   14 cycles
 SCF Done:  E(RB3LYP) =  -423.153049747     A.U. after    7 cycles
 SCF Done:  E(RB3LYP) =  -423.153049833     A.U. after    6 cycles
 Optimization completed.
    -- Stationary point found.
 Normal termination of Gaussian 09 at Tue Jan 28 08:25:48 2020.

 ----------------------------------------------------------------------
 #N Geom=AllCheck Guess=TCheck SCRF=Check GenChk RB3LYP/6-31G(2df,p) Fr
 eq
 ----------------------------------------------------------------------

 Structure from the checkpoint file:  "/scratch/puck/g09_b3e6feed-2d5d-408a-ba1d-10ca7a8f61c3/Gau-74487.chk"
 -----
 titel
 -----
 Charge =  0 Multiplicity = 1

                         Standard orientation:
 ---------------------------------------------------------------------
 Center     Atomic      Atomic             Coordinates (Angstroms)
 Number     Number       Type             X           Y           Z
 ---------------------------------------------------------------------
      1          8           0        3.238193   -0.928507   -0.243749
      2          6           0        1.959958   -1.160767    0.300488
      3          6           0        0.877259   -0.229274   -0.296269
      4          6           0       -0.515905   -0.552288    0.285283
      5          6           0       -1.648331    0.265455   -0.355636
      6          6           0       -2.972345    0.026341    0.332327
      7          8           0       -3.983617   -0.328584   -0.215187
      8          6           0        1.256969    1.164446   -0.070996
      9          6           0        1.610820    2.293355    0.150395
     10          1           0        3.456922   -0.004056   -0.075350
     11          1           0        1.705859   -2.198291    0.061367
     12          1           0        1.954726   -1.056139    1.397180
     13          1           0        0.859419   -0.410306   -1.379467
     14          1           0       -0.708077   -1.621984    0.140957
     15          1           0       -0.499123   -0.374767    1.367799
     16          1           0       -1.410609    1.334041   -0.255315
     17          1           0       -1.759705    0.038511   -1.419942
     18          1           0       -2.951540    0.207244    1.433801
     19          1           0        1.904964    3.298859    0.326901
 ---------------------------------------------------------------------

 SCF Done:  E(RB3LYP) =  -423.153049833     A.U. after    1 cycles

 The electronic state is 1-A.
 Alpha  occ. eigenvalues --  -19.14200 -19.14076 -10.27447 -10.24089 -10.22499
 Alpha  occ. eigenvalues --  -10.21159 -10.20064 -10.19845 -10.19078  -1.04889
 Alpha  occ. eigenvalues --   -1.02548  -0.83890  -0.77425  -0.73718  -0.66427
 Alpha  occ. eigenvalues --   -0.63146  -0.58006  -0.54135  -0.51905  -0.50201
 Alpha  occ. eigenvalues --   -0.47552  -0.45449  -0.45004  -0.42698  -0.40752
 Alpha  occ. eigenvalues --   -0.40440  -0.39078  -0.36503  -0.35707  -0.33655
 Alpha  occ. eigenvalues --   -0.29299  -0.28394  -0.27030  -0.25250
 Alpha virt. eigenvalues --   -0.02494   0.03431   0.03678   0.09138   0.09825
 Alpha virt. eigenvalues --    0.10316   0.11390   0.12051   0.13874   0.15164
 Alpha virt. eigenvalues --    0.15607   0.16453   0.17843   0.19552   0.21767

 Mulliken charges:
               1
     1  O   -0.418958
     2  C   -0.064688
     3  C   -0.164978
     4  C   -0.211872
     5  C   -0.280934
     6  C    0.160360
     7  O   -0.236106
     8  C    0.317093
     9  C   -0.480432
    10  H    0.287120
    11  H    0.114008
    12  H    0.094449
    13  H    0.119292
    14  H    0.116513
    15  H    0.114071
    16  H    0.134690
    17  H    0.122834
    18  H    0.070892
    19  H    0.206645
 Sum of Mulliken charges =   0.00000

 Dipole moment (field-independent basis, Debye):
    X=              1.5714    Y=              1.4182    Z=              1.2572  Tot=              2.4619
 Quadrupole moment (field-independent basis, Debye-Ang):
   XX=            -72.5518   YY=            -49.1662   ZZ=            -53.1622
   XY=              3.2473   XZ=             -0.5626   YZ=              0.2177

  Exact polarizability:  91.273   8.466  84.036   1.559   3.376  62.059
 Approx polarizability: 117.421  17.827 133.094   6.199  10.656  96.507

                      1                      2                      3
                      A                      A                      A
 Frequencies --     50.6483                65.0559                91.7777
 Red. masses --      6.0291                 3.2764                 2.6275
 Frc consts  --      0.0091                 0.0082                 0.0130
 IR Inten    --      4.9197                 4.0321                 0.5656

                      4                      5                      6
                      A                      A                      A
 Frequencies --    112.3563               141.9835               174.6236
 Red. masses --      3.8224                 3.6365                 2.3199
 Frc consts  --      0.0284                 0.0432                 0.0417
 IR Inten    --      1.7569                 3.0829                 0.7597

                      7                      8                      9
                      A                      A                      A
 Frequencies --    231.2060               291.3208               315.8337
 Red. masses --      3.0263                 3.2483                 4.8760
 Frc consts  --      0.0953                 0.1624                 0.2866
 IR Inten    --      0.5708                 1.7969                 0.7503

                     10                     11                     12
                      A                      A                      A
 Frequencies --    396.9329               427.7107               511.8176
 Red. masses --      1.2011                 3.9609                 2.8835
 Frc consts  --      0.1115                 0.4269                 0.4450
 IR Inten    --    109.3252                21.8060                 8.9502

                     13                     14                     15
                      A                      A                      A
 Frequencies --    546.2016               608.1374               632.6298
 Red. masses --      2.9734                 3.6665                 1.2120
 Frc consts  --      0.5227                 0.7989                 0.2858
 IR Inten    --      8.6033                 8.3774                46.7464

                     16                     17                     18
                      A                      A                      A
 Frequencies --    662.9190               756.2148               802.4094
 Red. masses --      1.2205                 1.5237                 2.0469
 Frc consts  --      0.3160                 0.5134                 0.7765
 IR Inten    --     44.1358                 1.3984                 1.1481

                     19                     20                     21
                      A                      A                      A
 Frequencies --    860.9509               979.5767               999.8690
 Red. masses --      1.6357                 1.6209                 3.2260
 Frc consts  --      0.7143                 0.9164                 1.9002
 IR Inten    --      1.7306                13.4276                19.8826

                     22                     23                     24
                      A                      A                      A
 Frequencies --   1024.4009              1071.5187              1089.9276
 Red. masses --      3.0255                 2.2682                 4.3670
 Frc consts  --      1.8707                 1.5344                 3.0565
 IR Inten    --     13.9527                10.2652                84.1583

                     25                     26                     27
                      A                      A                      A
 Frequencies --   1112.0606              1122.5827              1191.7093
 Red. masses --      2.1024                 3.4392                 1.3776
 Frc consts  --      1.5319                 2.5535                 1.1527
 IR Inten    --      0.2220                31.1163                21.6636

                     28                     29                     30
                      A                      A                      A
 Frequencies --   1214.5829              1254.5654              1303.3304
 Red. masses --      1.1530                 1.2603                 1.3249
 Frc consts  --      1.0021                 1.1687                 1.3260
 IR Inten    --      3.4539                14.0145                 0.6762

                     31                     32                     33
                      A                      A                      A
 Frequencies --   1306.4159              1369.5663              1373.5456
 Red. masses --      1.1584                 1.4125                 1.4216
 Frc consts  --      1.1649                 1.5610                 1.5802
 IR Inten    --      2.2458                 7.6615                21.6361

                     34                     35                     36
                      A                      A                      A
 Frequencies --   1389.5433              1428.8507              1431.2546
 Red. masses --      1.2319                 1.2088                 1.2102
 Frc consts  --      1.4014                 1.4540                 1.4606
 IR Inten    --      3.9484                59.0549                 7.1576

                     37                     38                     39
                      A                      A                      A
 Frequencies --   1464.4531              1490.3696              1506.6374
 Red. masses --      1.0844                 1.0919                 1.0881
 Frc consts  --      1.3702                 1.4290                 1.4553
 IR Inten    --      2.1073                 3.6275                 0.5648

                     40                     41                     42
                      A                      A                      A
 Frequencies --   1837.7236              2224.3196              2846.7537
 Red. masses --     10.1081                 5.9330                 1.0815
 Frc consts  --     20.1132                17.2949                 5.1637
 IR Inten    --    200.3047                 0.5546               108.8250

                     43                     44                     45
                      A                      A                      A
 Frequencies --   2978.7772              3019.1985              3021.1247
 Red. masses --      1.0690                 1.0622                 1.0766
 Frc consts  --      5.5887                 5.7048                 5.7897
 IR Inten    --     44.2507                 2.7308                 5.2746

                     46                     47                     48
                      A                      A                      A
 Frequencies --   3031.6616              3068.5257              3081.8748
 Red. masses --      1.0641                 1.1007                 1.0950
 Frc consts  --      5.7623                 6.1061                 6.1279
 IR Inten    --     34.8550                 4.6551                36.7974

                     49                     50                     51
                      A                      A                      A
 Frequencies --   3101.5054              3499.8586              3784.5547
 Red. masses --      1.0995                 1.1614                 1.0656
 Frc consts  --      6.2315                 8.3816                 8.9920
 IR Inten    --     23.0543                70.6222                23.7663

 - Thermochemistry -
 -------------------
 Temperature   298.150 Kelvin.  Pressure   1.00000 Atm.
 Atom     1 has atomic number  8 and mass  15.99491

 Molecular mass:   126.06808 amu.
 Principal axes and moments of inertia in atomic units:
                           1         2         3
     Eigenvalues --   557.114342587.831663016.16222
           X            1.00000  -0.00200  -0.00015
           Y            0.00200   0.99998  -0.00673
           Z            0.00016   0.00673   0.99998
 This molecule is an asymmetric top.
 Rotational symmetry number  1.
 Warning -- assumption of classical behavior for rotation
           may cause significant error
 Rotational temperatures (Kelvin)      0.15547     0.03347     0.02872
 Rotational constants (GHZ):           3.23944     0.69740     0.59836
 Zero-point vibrational energy     408532.9 (Joules/Mol)
                                   97.64171 (Kcal/Mol)
 Warning -- explicit consideration of  14 degrees of freedom as
           vibrations may cause significant error
 Vibrational temperatures:     72.87    93.60   132.05   161.66   204.28
          (Kelvin)            251.24   332.65   419.15   454.41   571.10
                              615.38   736.39   785.86   874.97   910.21
                              953.79  1088.02  1154.49  1238.71  1409.39
                             1438.59  1473.88  1541.67  1568.16  1600.01
                             1615.14  1714.60  1747.51  1805.04  1875.20
                             1879.64  1970.50  1976.22  1999.24  2055.79
                             2059.25  2107.02  2144.31  2167.71  2644.07
                             3200.30  4095.84  4285.79  4343.95  4346.72
                             4361.88  4414.92  4434.12  4462.37  5035.51
                             5445.12

 Zero-point correction=                           0.155602 (Hartree/Particle)
 Thermal correction to Energy=                    0.166134
 Thermal correction to Enthalpy=                  0.167078
 Thermal correction to Gibbs Free Energy=         0.118765
 Sum of electronic and zero-point Energies=           -422.997448
 Sum of electronic and thermal Energies=              -422.986916
 Sum of electronic and thermal Enthalpies=            -422.985972
 Sum of electronic and thermal Free Energies=         -423.034285

                     E (Thermal)             CV                S
                      KCal/Mol        Cal/Mol-Kelvin    Cal/Mol-Kelvin
 Total                  104.251             36.703            101.684
 Electronic               0.000              0.000              0.000
 Translational            0.889              2.981             40.409
 Rotational               0.889              2.981             29.854
 Vibrational            102.473             30.741             31.422
 Vibration     1          0.595              1.977              4.792
 Vibration     2          0.597              1.971              4.298
 Vibration     3          0.602              1.955              3.622
 Vibration     4          0.607              1.939              3.228
 Vibration     5          0.615              1.911              2.777
 Vibration     6          0.627              1.874              2.385
 Vibration     7          0.653              1.793              1.870
 Vibration     8          0.687              1.690              1.466
 Vibration     9          0.703              1.643              1.332
 Vibration    10          0.763              1.477              0.974
 Vibration    11          0.789              1.410              0.866
 Vibration    12          0.867              1.224              0.629
 Vibration    13          0.901              1.148              0.552
 Vibration    14          0.967              1.015              0.436

 Optimization completed.
    -- Stationary point found.
 Normal termination of Gaussian 09 at Tue Jan 28 09:04:46 2020.
