 Gaussian 09, Revision D.01,
 Gaussian 09:  ES64L-G09RevD.01 24-Apr-2013

 -----------------------------
 # b3lyp 6-31G(2df,p) opt Freq
 -----------------------------

 -----
 titel
 -----
 Symbolic Z-matrix:
 Charge =  0 Multiplicity = 1

 SCF Done:  E(RB3LYP) =  -423.163201106     A.U. after   14 cycles
 Optimization completed.
    -- Stationary point found.
 Normal termination of Gaussian 09 at Mon Jan 27 22:07:21 2020.

 ----------------------------------------------------------------------
 #N Geom=AllCheck Guess=TCheck SCRF=Check GenChk RB3LYP/6-31G(2df,p) Fr
 eq
 ----------------------------------------------------------------------

 Structure from the checkpoint file:  "/scratch/puck/g09_4be362dc-8a61-4cdf-a3e3-e0516049ec19/Gau-85636.chk"
 -----
 titel
 -----
 Charge =  0 Multiplicity = 1

                         Standard orientation:
 ---------------------------------------------------------------------
 Center     Atomic      Atomic             Coordinates (Angstroms)
 Number     Number       Type             X           Y           Z
 ---------------------------------------------------------------------
      1          6           0       -2.617157   -0.821184    0.223984
      2          6           0       -1.147835   -0.617150    0.517465
      3          6           0       -0.131607   -0.731057   -0.609516
      4          6           0        1.260746   -1.094679   -0.195729
      5          8           0        2.264134   -0.201698   -0.700260
      6          6           0        1.804170   -0.012175    0.641154
      7          6           0        0.785909    1.113969    0.782253
      8          6           0       -0.433163    0.616639   -0.002831
      9          8           0       -1.138220    1.543071   -0.773272
     10          1           0       -2.891247   -0.360102   -0.727994
     11          1           0       -2.866287   -1.886398    0.174439
     12          1           0       -3.241965   -0.372465    1.004949
     13          1           0       -0.820265   -0.984326    1.488981
     14          1           0       -0.485618   -0.970451   -1.606563
     15          1           0        1.569684   -2.132515   -0.091969
     16          1           0        2.548128   -0.185214    1.415106
     17          1           0        0.560739    1.314202    1.837174
     18          1           0        1.165654    2.037540    0.333217
     19          1           0       -1.672516    2.082562   -0.179756
 ---------------------------------------------------------------------

 SCF Done:  E(RB3LYP) =  -423.163201106     A.U. after    1 cycles

 The electronic state is 1-A.
 Alpha  occ. eigenvalues --  -19.14657 -19.14401 -10.23867 -10.23445 -10.23363
 Alpha  occ. eigenvalues --  -10.19357 -10.18703 -10.18701 -10.17976  -1.06768
 Alpha  occ. eigenvalues --   -1.03160  -0.86589  -0.75262  -0.71257  -0.66414
 Alpha  occ. eigenvalues --   -0.60407  -0.57387  -0.56187  -0.52672  -0.48786
 Alpha  occ. eigenvalues --   -0.45542  -0.43316  -0.43065  -0.41930  -0.40121
 Alpha  occ. eigenvalues --   -0.38728  -0.37917  -0.37275  -0.35166  -0.32033
 Alpha  occ. eigenvalues --   -0.29864  -0.26803  -0.26536  -0.24489
 Alpha virt. eigenvalues --    0.07047   0.09510   0.10413   0.11954   0.12524
 Alpha virt. eigenvalues --    0.12956   0.13903   0.14362   0.16725   0.17210
 Alpha virt. eigenvalues --    0.17308   0.18063   0.19426   0.20603   0.22362

 Mulliken charges:
               1
     1  C   -0.429094
     2  C   -0.078718
     3  C   -0.144168
     4  C    0.025448
     5  O   -0.256811
     6  C    0.055157
     7  C   -0.329809
     8  C    0.402780
     9  O   -0.469324
    10  H    0.133267
    11  H    0.119514
    12  H    0.111389
    13  H    0.076672
    14  H    0.099679
    15  H    0.093718
    16  H    0.092873
    17  H    0.093968
    18  H    0.120383
    19  H    0.283075
 Sum of Mulliken charges =   0.00000

 Dipole moment (field-independent basis, Debye):
    X=             -1.5959    Y=             -0.2407    Z=              2.5182  Tot=              2.9910
 Quadrupole moment (field-independent basis, Debye-Ang):
   XX=            -54.7755   YY=            -49.6836   ZZ=            -54.0600
   XY=             -1.9388   XZ=              2.3866   YZ=              2.8773

  Exact polarizability:  84.248   1.216  74.055   1.140   3.500  65.373
 Approx polarizability: 110.082   1.606 110.838  -2.900   4.627 106.282

                      1                      2                      3
                      A                      A                      A
 Frequencies --    153.0919               186.0349               195.4835
 Red. masses --      3.5580                 1.1715                 2.8801
 Frc consts  --      0.0491                 0.0239                 0.0648
 IR Inten    --      0.9520                 3.2584                 0.2700

                      4                      5                      6
                      A                      A                      A
 Frequencies --    225.9505               291.1286               352.5324
 Red. masses --      2.4893                 1.1105                 2.8735
 Frc consts  --      0.0749                 0.0555                 0.2104
 IR Inten    --      0.0941                96.1324                 0.8657

                      7                      8                      9
                      A                      A                      A
 Frequencies --    386.3790               398.7751               428.9590
 Red. masses --      3.1272                 2.6511                 5.2460
 Frc consts  --      0.2751                 0.2484                 0.5687
 IR Inten    --     13.9529                 4.1025                 4.5760

                     10                     11                     12
                      A                      A                      A
 Frequencies --    515.9251               645.9815               688.8958
 Red. masses --      3.9888                 4.0598                 3.6907
 Frc consts  --      0.6256                 0.9982                 1.0320
 IR Inten    --     22.1570                 3.2390                 2.1164

                     13                     14                     15
                      A                      A                      A
 Frequencies --    756.8221               802.7388               843.1804
 Red. masses --      4.4757                 3.7260                 2.9069
 Frc consts  --      1.5104                 1.4146                 1.2177
 IR Inten    --      1.1155                10.7188                17.9674

                     16                     17                     18
                      A                      A                      A
 Frequencies --    860.5815               917.8733               943.1789
 Red. masses --      2.4906                 1.8867                 2.7615
 Frc consts  --      1.0868                 0.9365                 1.4474
 IR Inten    --     21.7932                 2.4633                 7.3738

                     19                     20                     21
                      A                      A                      A
 Frequencies --    968.5816              1001.0453              1007.5380
 Red. masses --      1.9388                 1.2647                 1.5145
 Frc consts  --      1.0717                 0.7467                 0.9058
 IR Inten    --      5.5608                 5.2868                 6.1071

                     22                     23                     24
                      A                      A                      A
 Frequencies --   1046.2503              1056.7913              1083.9781
 Red. masses --      1.5168                 1.8214                 2.6811
 Frc consts  --      0.9783                 1.1985                 1.8561
 IR Inten    --     24.9437                 3.7830                 6.0358

                     25                     26                     27
                      A                      A                      A
 Frequencies --   1123.6137              1132.4569              1144.1381
 Red. masses --      1.5031                 1.9792                 1.7871
 Frc consts  --      1.1181                 1.4955                 1.3783
 IR Inten    --      4.5143                 2.1768                 3.9723

                     28                     29                     30
                      A                      A                      A
 Frequencies --   1181.1202              1223.1691              1250.5137
 Red. masses --      1.4096                 1.7586                 1.6123
 Frc consts  --      1.1586                 1.5502                 1.4855
 IR Inten    --     32.8837                 7.6899                20.3495

                     31                     32                     33
                      A                      A                      A
 Frequencies --   1260.7766              1291.5402              1301.9548
 Red. masses --      1.5334                 1.6713                 1.2890
 Frc consts  --      1.4361                 1.6426                 1.2873
 IR Inten    --      9.3705                19.2341                31.7644

                     34                     35                     36
                      A                      A                      A
 Frequencies --   1346.9126              1371.0419              1414.9697
 Red. masses --      1.7370                 1.6516                 1.2908
 Frc consts  --      1.8566                 1.8291                 1.5226
 IR Inten    --     34.9668                 0.9897                 0.7871

                     37                     38                     39
                      A                      A                      A
 Frequencies --   1425.4805              1449.9797              1481.4279
 Red. masses --      3.6244                 2.4862                 1.1273
 Frc consts  --      4.3392                 3.0797                 1.4576
 IR Inten    --     27.9646                 5.8990                 0.4920

                     40                     41                     42
                      A                      A                      A
 Frequencies --   1497.9207              1505.4406              3028.4920
 Red. masses --      1.0517                 1.0885                 1.0612
 Frc consts  --      1.3903                 1.4534                 5.7345
 IR Inten    --      3.2273                 6.4025                38.2369

                     43                     44                     45
                      A                      A                      A
 Frequencies --   3031.0133              3081.7134              3087.0552
 Red. masses --      1.0388                 1.1005                 1.1000
 Frc consts  --      5.6227                 6.1578                 6.1764
 IR Inten    --     38.6926                12.8972                23.8196

                     46                     47                     48
                      A                      A                      A
 Frequencies --   3108.8428              3126.9952              3132.8957
 Red. masses --      1.0894                 1.0971                 1.0864
 Frc consts  --      6.2034                 6.3204                 6.2827
 IR Inten    --      4.3201                22.2567                19.4189

                     49                     50                     51
                      A                      A                      A
 Frequencies --   3145.7294              3173.9526              3791.6883
 Red. masses --      1.0943                 1.0908                 1.0661
 Frc consts  --      6.3801                 6.4741                 9.0306
 IR Inten    --     49.2677                 7.5227                18.0111

 - Thermochemistry -
 -------------------
 Temperature   298.150 Kelvin.  Pressure   1.00000 Atm.
 Atom     1 has atomic number  6 and mass  12.00000

 Molecular mass:   126.06808 amu.
 Principal axes and moments of inertia in atomic units:
                           1         2         3
     Eigenvalues --   580.246661287.411201509.21221
           X            0.99965   0.02351   0.01176
           Y           -0.02393   0.99903   0.03693
           Z           -0.01088  -0.03720   0.99925
 This molecule is an asymmetric top.
 Rotational symmetry number  1.
 Warning -- assumption of classical behavior for rotation
           may cause significant error
 Rotational temperatures (Kelvin)      0.14927     0.06728     0.05739
 Rotational constants (GHZ):           3.11030     1.40184     1.19582
 Zero-point vibrational energy     417906.6 (Joules/Mol)
                                   99.88208 (Kcal/Mol)
 Warning -- explicit consideration of  10 degrees of freedom as
           vibrations may cause significant error
 Vibrational temperatures:    220.26   267.66   281.26   325.09   418.87
          (Kelvin)            507.21   555.91   573.75   617.18   742.30
                              929.42   991.17  1088.90  1154.96  1213.15
                             1238.18  1320.61  1357.02  1393.57  1440.28
                             1449.62  1505.32  1520.49  1559.60  1616.63
                             1629.35  1646.16  1699.37  1759.87  1799.21
                             1813.97  1858.24  1873.22  1937.90  1972.62
                             2035.82  2050.95  2086.19  2131.44  2155.17
                             2165.99  4357.32  4360.95  4433.89  4441.58
                             4472.93  4499.04  4507.53  4526.00  4566.60
                             5455.39

 Zero-point correction=                           0.159172 (Hartree/Particle)
 Thermal correction to Energy=                    0.167283
 Thermal correction to Enthalpy=                  0.168228
 Thermal correction to Gibbs Free Energy=         0.127021
 Sum of electronic and zero-point Energies=           -423.004029
 Sum of electronic and thermal Energies=              -422.995918
 Sum of electronic and thermal Enthalpies=            -422.994974
 Sum of electronic and thermal Free Energies=         -423.036181

                     E (Thermal)             CV                S
                      KCal/Mol        Cal/Mol-Kelvin    Cal/Mol-Kelvin
 Total                  104.972             32.105             86.727
 Electronic               0.000              0.000              0.000
 Translational            0.889              2.981             40.409
 Rotational               0.889              2.981             28.513
 Vibrational            103.194             26.144             17.806
 Vibration     1          0.619              1.899              2.633
 Vibration     2          0.632              1.859              2.267
 Vibration     3          0.636              1.846              2.175
 Vibration     4          0.650              1.801              1.911
 Vibration     5          0.687              1.690              1.467
 Vibration     6          0.729              1.570              1.155
 Vibration     7          0.755              1.499              1.014
 Vibration     8          0.765              1.473              0.967
 Vibration     9          0.790              1.407              0.862
 Vibration    10          0.871              1.215              0.619

 Normal termination of Gaussian 09 at Mon Jan 27 23:06:41 2020.
