 Gaussian 09, Revision D.01,
 Gaussian 09:  ES64L-G09RevD.01 24-Apr-2013

 -----------------------------
 # b3lyp 6-31G(2df,p) opt Freq
 -----------------------------

 -----
 titel
 -----
 Symbolic Z-matrix:
 Charge =  0 Multiplicity = 1

 SCF Done:  E(RB3LYP) =  -423.119505972     A.U. after   13 cycles
 Optimization completed.
    -- Stationary point found.
 Normal termination of Gaussian 09 at Mon Jan 27 23:09:01 2020.

 ----------------------------------------------------------------------
 #N Geom=AllCheck Guess=TCheck SCRF=Check GenChk RB3LYP/6-31G(2df,p) Fr
 eq
 ----------------------------------------------------------------------

 Structure from the checkpoint file:  "/scratch/puck/g09_213ad4ea-6631-4c12-b53c-8b6abae4da7a/Gau-162122.chk"
 -----
 titel
 -----
 Charge =  0 Multiplicity = 1

                         Standard orientation:
 ---------------------------------------------------------------------
 Center     Atomic      Atomic             Coordinates (Angstroms)
 Number     Number       Type             X           Y           Z
 ---------------------------------------------------------------------
      1          8           0        0.440297    2.127293    0.110165
      2          6           0        1.019431    0.949192   -0.400013
      3          6           0        1.665869    0.015903    0.633642
      4          6           0        2.154183   -1.232051   -0.048883
      5          6           0        0.692082   -1.108339    0.263326
      6          6           0        0.013813   -0.212401   -0.782530
      7          6           0       -1.433056    0.127475   -0.529710
      8          6           0       -2.088727    0.038325    0.786819
      9          8           0       -2.302778   -0.962294   -0.207922
     10          1           0       -0.119342    1.886903    0.856553
     11          1           0        1.677446    1.279966   -1.209699
     12          1           0        2.039365    0.335605    1.599998
     13          1           0        2.501909   -1.192800   -1.079514
     14          1           0        2.711755   -1.918363    0.580282
     15          1           0        0.177881   -1.824444    0.892186
     16          1           0        0.102777   -0.575886   -1.814112
     17          1           0       -1.861895    0.833940   -1.241031
     18          1           0       -1.525144   -0.288131    1.659680
     19          1           0       -2.946476    0.674596    1.001797
 ---------------------------------------------------------------------

 SCF Done:  E(RB3LYP) =  -423.119505972     A.U. after    1 cycles

 The electronic state is 1-A.
 Alpha  occ. eigenvalues --  -19.15345 -19.14248 -10.24189 -10.23906 -10.23744
 Alpha  occ. eigenvalues --  -10.19734 -10.19415 -10.19399 -10.19307  -1.07314
 Alpha  occ. eigenvalues --   -1.02689  -0.89536  -0.74672  -0.67845  -0.66025
 Alpha  occ. eigenvalues --   -0.61758  -0.59306  -0.55195  -0.52469  -0.50411
 Alpha  occ. eigenvalues --   -0.46751  -0.46339  -0.44641  -0.43753  -0.39850
 Alpha  occ. eigenvalues --   -0.38858  -0.37080  -0.36717  -0.32411  -0.30286
 Alpha  occ. eigenvalues --   -0.30013  -0.28298  -0.26565  -0.25259
 Alpha virt. eigenvalues --    0.06196   0.09032   0.09486   0.10753   0.11065
 Alpha virt. eigenvalues --    0.11468   0.13561   0.14567   0.15379   0.15904
 Alpha virt. eigenvalues --    0.17789   0.18472   0.19265   0.21355   0.22231

 Mulliken charges:
               1
     1  O   -0.427925
     2  C    0.124783
     3  C   -0.096645
     4  C   -0.300960
     5  C   -0.044270
     6  C   -0.087768
     7  C    0.079241
     8  C   -0.200265
     9  O   -0.239811
    10  H    0.282650
    11  H    0.089321
    12  H    0.087162
    13  H    0.108692
    14  H    0.116092
    15  H    0.097966
    16  H    0.075793
    17  H    0.103384
    18  H    0.114223
    19  H    0.118337
 Sum of Mulliken charges =   0.00000

 Dipole moment (field-independent basis, Debye):
    X=              0.6703    Y=             -0.0070    Z=              1.1289  Tot=              1.3130
 Quadrupole moment (field-independent basis, Debye-Ang):
   XX=            -54.7402   YY=            -59.1077   ZZ=            -49.0507
   XY=             -6.1817   XZ=             -1.9542   YZ=              0.0214

  Exact polarizability:  82.779  -4.759  70.165  -3.111  -0.253  69.936
 Approx polarizability: 110.161   0.293 108.806  -4.714   2.201 109.355

                      1                      2                      3
                      A                      A                      A
 Frequencies --     86.0433               104.7912               162.9440
 Red. masses --      3.6126                 2.8778                 5.2893
 Frc consts  --      0.0158                 0.0186                 0.0827
 IR Inten    --      4.7498                 1.2350                 6.7229

                      4                      5                      6
                      A                      A                      A
 Frequencies --    225.3460               299.0495               342.6603
 Red. masses --      3.1623                 1.7713                 1.7365
 Frc consts  --      0.0946                 0.0933                 0.1201
 IR Inten    --      2.7599                41.0661                64.9229

                      7                      8                      9
                      A                      A                      A
 Frequencies --    353.3159               451.3926               520.8345
 Red. masses --      2.9167                 3.9187                 4.4103
 Frc consts  --      0.2145                 0.4704                 0.7049
 IR Inten    --      5.4364                 6.2771                 8.4332

                     10                     11                     12
                      A                      A                      A
 Frequencies --    554.2219               746.0827               775.4030
 Red. masses --      2.9993                 2.3580                 1.8581
 Frc consts  --      0.5428                 0.7733                 0.6582
 IR Inten    --      3.6151                 0.6626                10.8029

                     13                     14                     15
                      A                      A                      A
 Frequencies --    827.1495               850.2631               865.8933
 Red. masses --      2.4387                 2.7229                 6.7853
 Frc consts  --      0.9830                 1.1598                 2.9974
 IR Inten    --     18.7110                11.0188                10.8038

                     16                     17                     18
                      A                      A                      A
 Frequencies --    884.5885               929.6220               953.8583
 Red. masses --      2.0417                 1.9015                 2.7509
 Frc consts  --      0.9413                 0.9682                 1.4747
 IR Inten    --     25.6057                 2.8153                 6.8042

                     19                     20                     21
                      A                      A                      A
 Frequencies --    959.3168               990.1467              1039.5957
 Red. masses --      1.8919                 1.5658                 1.4991
 Frc consts  --      1.0258                 0.9045                 0.9546
 IR Inten    --      7.8730                 8.3338                 2.7463

                     22                     23                     24
                      A                      A                      A
 Frequencies --   1058.8787              1064.0258              1080.7446
 Red. masses --      1.3222                 1.4720                 1.3758
 Frc consts  --      0.8735                 0.9819                 0.9468
 IR Inten    --      2.1031                 0.8645                 5.9738

                     25                     26                     27
                      A                      A                      A
 Frequencies --   1096.2403              1120.2606              1132.6302
 Red. masses --      1.4112                 1.8765                 2.0772
 Frc consts  --      0.9992                 1.3875                 1.5700
 IR Inten    --      1.4757                16.4173                93.6961

                     28                     29                     30
                      A                      A                      A
 Frequencies --   1158.7864              1176.0819              1202.6932
 Red. masses --      1.3415                 1.3702                 2.1199
 Frc consts  --      1.0613                 1.1166                 1.8067
 IR Inten    --      0.5607                 0.7377                 2.4073

                     31                     32                     33
                      A                      A                      A
 Frequencies --   1211.5463              1235.0094              1278.7928
 Red. masses --      1.6373                 1.2954                 1.6066
 Frc consts  --      1.4159                 1.1641                 1.5479
 IR Inten    --      3.0086                 2.7262                 5.6191

                     34                     35                     36
                      A                      A                      A
 Frequencies --   1284.0555              1307.2193              1338.0560
 Red. masses --      1.3904                 1.5815                 2.2410
 Frc consts  --      1.3507                 1.5923                 2.3640
 IR Inten    --     12.2398                 0.5200                 0.3403

                     37                     38                     39
                      A                      A                      A
 Frequencies --   1367.4139              1428.8199              1438.0372
 Red. masses --      2.1650                 1.4678                 1.4065
 Frc consts  --      2.3851                 1.7655                 1.7136
 IR Inten    --      0.5824                50.4354                40.6398

                     40                     41                     42
                      A                      A                      A
 Frequencies --   1493.4167              1525.5527              3021.6513
 Red. masses --      1.2042                 1.3251                 1.0838
 Frc consts  --      1.5824                 1.8171                 5.8303
 IR Inten    --      2.9865                 6.9353                28.8459

                     43                     44                     45
                      A                      A                      A
 Frequencies --   3061.1979              3081.7058              3102.1185
 Red. masses --      1.0867                 1.0498                 1.0580
 Frc consts  --      5.9998                 5.8740                 5.9989
 IR Inten    --     48.6242                22.1000                25.1856

                     46                     47                     48
                      A                      A                      A
 Frequencies --   3107.2808              3166.5879              3173.3371
 Red. masses --      1.0883                 1.1187                 1.0912
 Frc consts  --      6.1908                 6.6091                 6.4739
 IR Inten    --     23.6610                29.7732                14.3008

                     49                     50                     51
                      A                      A                      A
 Frequencies --   3187.1426              3200.8985              3805.5882
 Red. masses --      1.0990                 1.1073                 1.0654
 Frc consts  --      6.5772                 6.6842                 9.0910
 IR Inten    --      2.7430                16.7027                10.4446

 - Thermochemistry -
 -------------------
 Temperature   298.150 Kelvin.  Pressure   1.00000 Atm.
 Atom     1 has atomic number  8 and mass  15.99491

 Molecular mass:   126.06808 amu.
 Principal axes and moments of inertia in atomic units:
                           1         2         3
     Eigenvalues --   674.877931251.091291623.54548
           X            0.99837  -0.05593  -0.01167
           Y            0.05587   0.99842  -0.00512
           Z            0.01194   0.00446   0.99992
 This molecule is an asymmetric top.
 Rotational symmetry number  1.
 Warning -- assumption of classical behavior for rotation
           may cause significant error
 Rotational temperatures (Kelvin)      0.12834     0.06923     0.05335
 Rotational constants (GHZ):           2.67417     1.44253     1.11160
 Zero-point vibrational energy     417665.9 (Joules/Mol)
                                   99.82455 (Kcal/Mol)
 Warning -- explicit consideration of  10 degrees of freedom as
           vibrations may cause significant error
 Vibrational temperatures:    123.80   150.77   234.44   324.22   430.27
          (Kelvin)            493.01   508.34   649.45   749.36   797.40
                             1073.45  1115.63  1190.08  1223.34  1245.83
                             1272.72  1337.52  1372.39  1380.24  1424.60
                             1495.74  1523.49  1530.89  1554.95  1577.24
                             1611.80  1629.60  1667.23  1692.12  1730.41
                             1743.14  1776.90  1839.90  1847.47  1880.79
                             1925.16  1967.40  2055.75  2069.01  2148.69
                             2194.93  4347.48  4404.38  4433.88  4463.25
                             4470.68  4556.01  4565.72  4585.58  4605.37
                             5475.39

 Zero-point correction=                           0.159081 (Hartree/Particle)
 Thermal correction to Energy=                    0.167308
 Thermal correction to Enthalpy=                  0.168252
 Thermal correction to Gibbs Free Energy=         0.126050
 Sum of electronic and zero-point Energies=           -422.960425
 Sum of electronic and thermal Energies=              -422.952198
 Sum of electronic and thermal Enthalpies=            -422.951254
 Sum of electronic and thermal Free Energies=         -422.993456

                     E (Thermal)             CV                S
                      KCal/Mol        Cal/Mol-Kelvin    Cal/Mol-Kelvin
 Total                  104.987             31.613             88.822
 Electronic               0.000              0.000              0.000
 Translational            0.889              2.981             40.409
 Rotational               0.889              2.981             28.707
 Vibrational            103.210             25.651             19.706
 Vibration     1          0.601              1.959              3.748
 Vibration     2          0.605              1.945              3.363
 Vibration     3          0.623              1.888              2.515
 Vibration     4          0.650              1.802              1.916
 Vibration     5          0.692              1.675              1.422
 Vibration     6          0.722              1.590              1.200
 Vibration     7          0.730              1.568              1.151
 Vibration     8          0.810              1.358              0.792
 Vibration     9          0.876              1.204              0.608
 Vibration    10          0.910              1.130              0.535

 Normal termination of Gaussian 09 at Mon Jan 27 23:54:37 2020.
