 Gaussian 09, Revision D.01,
 Gaussian 09:  ES64L-G09RevD.01 24-Apr-2013

 -----------------------------
 # b3lyp 6-31G(2df,p) opt Freq
 -----------------------------

 -----
 titel
 -----
 Symbolic Z-matrix:
 Charge =  0 Multiplicity = 1

 SCF Done:  E(RB3LYP) =  -423.145152881     A.U. after   13 cycles
 Optimization completed.
    -- Stationary point found.
 Normal termination of Gaussian 09 at Tue Jan 28 13:57:32 2020.

 ----------------------------------------------------------------------
 #N Geom=AllCheck Guess=TCheck SCRF=Check GenChk RB3LYP/6-31G(2df,p) Fr
 eq
 ----------------------------------------------------------------------

 Structure from the checkpoint file:  "/scratch/puck/g09_0b10b192-f742-4787-8971-a5dd279a586b/Gau-33132.chk"
 -----
 titel
 -----
 Charge =  0 Multiplicity = 1

                         Standard orientation:
 ---------------------------------------------------------------------
 Center     Atomic      Atomic             Coordinates (Angstroms)
 Number     Number       Type             X           Y           Z
 ---------------------------------------------------------------------
      1          8           0        2.820105    0.680832   -0.061797
      2          6           0        2.068030   -0.524453   -0.114922
      3          6           0        0.641063   -0.162923   -0.480791
      4          6           0       -0.343257   -1.319087   -0.291183
      5          6           0       -1.744735   -0.754863   -0.150130
      6          8           0       -2.026528    0.523897   -0.675279
      7          6           0       -1.223750    1.457822    0.064657
      8          6           0       -0.107735    0.604822    0.660619
      9          6           0       -0.843927   -0.715740    1.031308
     10          1           0        3.724701    0.461669    0.178982
     11          1           0        2.478979   -1.218272   -0.866334
     12          1           0        2.079963   -1.046701    0.855861
     13          1           0        0.631947    0.331173   -1.459590
     14          1           0       -0.165903   -2.359996   -0.543319
     15          1           0       -2.583657   -1.438150   -0.206221
     16          1           0       -0.859927    2.221810   -0.629742
     17          1           0       -1.828924    1.943726    0.845406
     18          1           0        0.520906    1.101711    1.397282
     19          1           0       -1.020828   -1.148268    2.006931
 ---------------------------------------------------------------------

 SCF Done:  E(RB3LYP) =  -423.145152881     A.U. after    1 cycles

 The electronic state is 1-A.
 Alpha  occ. eigenvalues --  -19.13474 -19.13203 -10.22998 -10.22623 -10.22049
 Alpha  occ. eigenvalues --  -10.18999 -10.18982 -10.18805 -10.18656  -1.03579
 Alpha  occ. eigenvalues --   -1.01507  -0.88214  -0.76122  -0.72044  -0.62271
 Alpha  occ. eigenvalues --   -0.61866  -0.57472  -0.52881  -0.52186  -0.50342
 Alpha  occ. eigenvalues --   -0.47075  -0.45712  -0.42950  -0.42371  -0.39957
 Alpha  occ. eigenvalues --   -0.38955  -0.34814  -0.33262  -0.32317  -0.31982
 Alpha  occ. eigenvalues --   -0.30752  -0.26771  -0.26210  -0.22518
 Alpha virt. eigenvalues --    0.07404   0.10155   0.10612   0.12241   0.13112
 Alpha virt. eigenvalues --    0.13529   0.14577   0.14801   0.16368   0.17257
 Alpha virt. eigenvalues --    0.17630   0.18583   0.19020   0.20685   0.21666

 Mulliken charges:
               1
     1  O   -0.424870
     2  C   -0.102421
     3  C    0.020573
     4  C   -0.122141
     5  C    0.106215
     6  O   -0.272403
     7  C   -0.093566
     8  C   -0.070764
     9  C   -0.126554
    10  H    0.287167
    11  H    0.084581
    12  H    0.084408
    13  H    0.078301
    14  H    0.077898
    15  H    0.101942
    16  H    0.111544
    17  H    0.089689
    18  H    0.084482
    19  H    0.085920
 Sum of Mulliken charges =   0.00000

 Dipole moment (field-independent basis, Debye):
    X=              1.6711    Y=             -1.4230    Z=              1.4323  Tot=              2.6208
 Quadrupole moment (field-independent basis, Debye-Ang):
   XX=            -49.8779   YY=            -51.3657   ZZ=            -53.5707
   XY=             -0.7068   XZ=             -1.1540   YZ=              0.9867

  Exact polarizability:  82.075  -0.149  75.649  -1.772   1.385  64.130
 Approx polarizability: 109.101   0.096 110.686  -0.104   1.917 103.385

                      1                      2                      3
                      A                      A                      A
 Frequencies --    104.4610               138.8745               207.5801
 Red. masses --      4.1352                 4.5822                 2.2637
 Frc consts  --      0.0266                 0.0521                 0.0575
 IR Inten    --      3.6684                 1.6575                15.2304

                      4                      5                      6
                      A                      A                      A
 Frequencies --    254.4714               289.0531               375.6527
 Red. masses --      1.2852                 2.1942                 3.0461
 Frc consts  --      0.0490                 0.1080                 0.2533
 IR Inten    --     85.4721                 5.6464                 0.2024

                      7                      8                      9
                      A                      A                      A
 Frequencies --    459.8093               531.3550               670.0434
 Red. masses --      3.9373                 3.3866                 4.1817
 Frc consts  --      0.4905                 0.5634                 1.1061
 IR Inten    --     13.3612                 3.2757                 1.0799

                     10                     11                     12
                      A                      A                      A
 Frequencies --    740.1833               755.6594               775.7655
 Red. masses --      3.7714                 2.5251                 2.3139
 Frc consts  --      1.2174                 0.8495                 0.8204
 IR Inten    --      5.8294                 2.3001                13.3347

                     13                     14                     15
                      A                      A                      A
 Frequencies --    819.7727               860.8411               900.6212
 Red. masses --      1.9846                 2.9971                 1.5168
 Frc consts  --      0.7858                 1.3086                 0.7249
 IR Inten    --      8.3591                 4.4281                 5.9604

                     16                     17                     18
                      A                      A                      A
 Frequencies --    933.9083               959.7302               988.4728
 Red. masses --      3.2083                 2.1618                 1.6608
 Frc consts  --      1.6487                 1.1732                 0.9561
 IR Inten    --     13.6643                13.7389                 7.7415

                     19                     20                     21
                      A                      A                      A
 Frequencies --   1009.8878              1017.3869              1038.2013
 Red. masses --      1.8828                 1.6347                 1.9667
 Frc consts  --      1.1314                 0.9969                 1.2490
 IR Inten    --      7.4650                 8.7522                32.4866

                     22                     23                     24
                      A                      A                      A
 Frequencies --   1052.1607              1065.3887              1081.0921
 Red. masses --      2.2758                 1.8570                 3.2278
 Frc consts  --      1.4844                 1.2419                 2.2227
 IR Inten    --      2.2304                14.0610                71.2579

                     25                     26                     27
                      A                      A                      A
 Frequencies --   1093.2897              1125.1211              1132.1705
 Red. masses --      2.2950                 2.1876                 2.2018
 Frc consts  --      1.6162                 1.6316                 1.6629
 IR Inten    --      8.4164                47.8597                 9.8047

                     28                     29                     30
                      A                      A                      A
 Frequencies --   1184.3267              1208.8847              1226.8585
 Red. masses --      1.4522                 1.2835                 1.2771
 Frc consts  --      1.2001                 1.1052                 1.1326
 IR Inten    --      6.2311                 7.7981                 3.9715

                     31                     32                     33
                      A                      A                      A
 Frequencies --   1243.9396              1247.3849              1279.0214
 Red. masses --      1.4919                 1.2981                 1.3821
 Frc consts  --      1.3602                 1.1900                 1.3321
 IR Inten    --     24.8025                 2.1978                 1.6226

                     34                     35                     36
                      A                      A                      A
 Frequencies --   1287.5492              1309.6068              1348.5285
 Red. masses --      1.4586                 1.4736                 1.5070
 Frc consts  --      1.4247                 1.4890                 1.6147
 IR Inten    --     24.9984                 2.8648                 1.2419

                     37                     38                     39
                      A                      A                      A
 Frequencies --   1384.0029              1409.6769              1459.3518
 Red. masses --      1.6828                 1.9729                 1.5136
 Frc consts  --      1.8992                 2.3099                 1.8992
 IR Inten    --      3.5622                17.2142                 8.2650

                     40                     41                     42
                      A                      A                      A
 Frequencies --   1514.3121              1520.8066              2960.5091
 Red. masses --      1.0995                 1.0815                 1.0544
 Frc consts  --      1.4855                 1.4737                 5.4448
 IR Inten    --      0.4799                 4.0156                57.8627

                     43                     44                     45
                      A                      A                      A
 Frequencies --   2985.6908              2987.8775              3039.8118
 Red. masses --      1.0690                 1.1047                 1.0855
 Frc consts  --      5.6146                 5.8105                 5.9098
 IR Inten    --     86.8416                39.7883                46.2897

                     46                     47                     48
                      A                      A                      A
 Frequencies --   3077.6829              3137.5161              3155.6084
 Red. masses --      1.0951                 1.0893                 1.0905
 Frc consts  --      6.1115                 6.3176                 6.3978
 IR Inten    --     33.5272                14.2748                23.1221

                     49                     50                     51
                      A                      A                      A
 Frequencies --   3188.2746              3201.5987              3832.5067
 Red. masses --      1.0897                 1.0983                 1.0664
 Frc consts  --      6.5263                 6.6328                 9.2286
 IR Inten    --     13.0546                19.4048                22.2558

 - Thermochemistry -
 -------------------
 Temperature   298.150 Kelvin.  Pressure   1.00000 Atm.
 Atom     1 has atomic number  8 and mass  15.99491

 Molecular mass:   126.06808 amu.
 Principal axes and moments of inertia in atomic units:
                           1         2         3
     Eigenvalues --   506.542501398.433231614.00676
           X            0.99991  -0.01141  -0.00743
           Y            0.01151   0.99984   0.01350
           Z            0.00727  -0.01359   0.99988
 This molecule is an asymmetric top.
 Rotational symmetry number  1.
 Warning -- assumption of classical behavior for rotation
           may cause significant error
 Rotational temperatures (Kelvin)      0.17099     0.06194     0.05366
 Rotational constants (GHZ):           3.56286     1.29055     1.11817
 Zero-point vibrational energy     422116.0 (Joules/Mol)
                                  100.88814 (Kcal/Mol)
 Warning -- explicit consideration of   8 degrees of freedom as
           vibrations may cause significant error
 Vibrational temperatures:    150.30   199.81   298.66   366.13   415.88
          (Kelvin)            540.48   661.56   764.50   964.04  1064.96
                             1087.22  1116.15  1179.47  1238.56  1295.79
                             1343.68  1380.84  1422.19  1453.00  1463.79
                             1493.74  1513.82  1532.85  1555.45  1573.00
                             1618.80  1628.94  1703.98  1739.31  1765.17
                             1789.75  1794.71  1840.22  1852.49  1884.23
                             1940.23  1991.27  2028.21  2099.68  2178.75
                             2188.10  4259.51  4295.74  4298.88  4373.61
                             4428.09  4514.18  4540.21  4587.21  4606.38
                             5514.12

 Zero-point correction=                           0.160775 (Hartree/Particle)
 Thermal correction to Energy=                    0.168379
 Thermal correction to Enthalpy=                  0.169323
 Thermal correction to Gibbs Free Energy=         0.128606
 Sum of electronic and zero-point Energies=           -422.984377
 Sum of electronic and thermal Energies=              -422.976774
 Sum of electronic and thermal Enthalpies=            -422.975830
 Sum of electronic and thermal Free Energies=         -423.016546

                     E (Thermal)             CV                S
                      KCal/Mol        Cal/Mol-Kelvin    Cal/Mol-Kelvin
 Total                  105.659             29.917             85.695
 Electronic               0.000              0.000              0.000
 Translational            0.889              2.981             40.409
 Rotational               0.889              2.981             28.527
 Vibrational            103.882             23.956             16.760
 Vibration     1          0.605              1.946              3.369
 Vibration     2          0.614              1.914              2.819
 Vibration     3          0.641              1.829              2.065
 Vibration     4          0.665              1.755              1.699
 Vibration     5          0.686              1.694              1.480
 Vibration     6          0.746              1.522              1.057
 Vibration     7          0.818              1.339              0.767
 Vibration     8          0.886              1.181              0.584

 Optimization completed.
    -- Stationary point found.
 Normal termination of Gaussian 09 at Tue Jan 28 14:40:23 2020.
 Normal termination of Gaussian 09 at Tue Jan 28 13:51:17 2020.
