 Gaussian 09, Revision D.01,
 Gaussian 09:  ES64L-G09RevD.01 24-Apr-2013

 -----------------------------
 # b3lyp 6-31G(2df,p) opt Freq
 -----------------------------

 -----
 titel
 -----
 Symbolic Z-matrix:
 Charge =  0 Multiplicity = 1

 SCF Done:  E(RB3LYP) =  -423.105421641     A.U. after   12 cycles
 Optimization completed.
    -- Stationary point found.
 Normal termination of Gaussian 09 at Mon Jan 27 22:02:29 2020.

 ----------------------------------------------------------------------
 #N Geom=AllCheck Guess=TCheck SCRF=Check GenChk RB3LYP/6-31G(2df,p) Fr
 eq
 ----------------------------------------------------------------------

 Structure from the checkpoint file:  "/scratch/puck/g09_356240cb-c4ab-45d7-a6c6-452a924c1f76/Gau-176366.chk"
 -----
 titel
 -----
 Charge =  0 Multiplicity = 1

                         Standard orientation:
 ---------------------------------------------------------------------
 Center     Atomic      Atomic             Coordinates (Angstroms)
 Number     Number       Type             X           Y           Z
 ---------------------------------------------------------------------
      1          6           0        2.285113    1.134740   -0.149813
      2          6           0        1.320228   -0.036869   -0.049569
      3          8           0        2.013311   -1.271248   -0.101290
      4          6           0        0.244623   -0.042200    1.048759
      5          6           0       -0.675831    0.952603    0.258207
      6          6           0       -1.888794    0.015238    0.423719
      7          8           0       -2.952945    0.066280   -0.491088
      8          6           0       -0.711890   -0.952497    0.199074
      9          6           0       -0.017677    0.021226   -0.828514
     10          1           0        1.772459    2.097008   -0.072152
     11          1           0        3.036794    1.075229    0.643584
     12          1           0        2.811997    1.119327   -1.112861
     13          1           0        2.623987   -1.243367   -0.845203
     14          1           0        0.372731   -0.079731    2.131486
     15          1           0       -0.634022    2.041803    0.292828
     16          1           0       -2.347090   -0.004782    1.417528
     17          1           0       -2.585624    0.061081   -1.381775
     18          1           0       -0.696320   -2.040110    0.164165
     19          1           0       -0.172467    0.059843   -1.909751
 ---------------------------------------------------------------------

 SCF Done:  E(RB3LYP) =  -423.105421641     A.U. after    1 cycles

 The electronic state is 1-A.
 Alpha  occ. eigenvalues --  -19.13499 -19.13267 -10.24024 -10.22887 -10.19840
 Alpha  occ. eigenvalues --  -10.19826 -10.19709 -10.19353 -10.17982  -1.02462
 Alpha  occ. eigenvalues --   -1.01720  -0.92794  -0.75263  -0.68949  -0.64022
 Alpha  occ. eigenvalues --   -0.63226  -0.59202  -0.52794  -0.50722  -0.49399
 Alpha  occ. eigenvalues --   -0.47215  -0.45073  -0.42755  -0.41240  -0.38906
 Alpha  occ. eigenvalues --   -0.37308  -0.36712  -0.32715  -0.31574  -0.31222
 Alpha  occ. eigenvalues --   -0.30570  -0.28688  -0.25814  -0.25161
 Alpha virt. eigenvalues --    0.06723   0.07914   0.10705   0.12182   0.12682
 Alpha virt. eigenvalues --    0.13224   0.13797   0.15277   0.16173   0.16980
 Alpha virt. eigenvalues --    0.18115   0.18912   0.20569   0.20872   0.21873

 Mulliken charges:
               1
     1  C   -0.474867
     2  C    0.425729
     3  O   -0.484197
     4  C   -0.083084
     5  C   -0.115246
     6  C    0.142651
     7  O   -0.449784
     8  C   -0.100122
     9  C   -0.145333
    10  H    0.123415
    11  H    0.127297
    12  H    0.106179
    13  H    0.275036
    14  H    0.072033
    15  H    0.072202
    16  H    0.082829
    17  H    0.280235
    18  H    0.084253
    19  H    0.060771
 Sum of Mulliken charges =   0.00000

 Dipole moment (field-independent basis, Debye):
    X=              1.8796    Y=              0.8982    Z=             -1.3334  Tot=              2.4734
 Quadrupole moment (field-independent basis, Debye-Ang):
   XX=            -58.4304   YY=            -54.5941   ZZ=            -48.3993
   XY=              1.4319   XZ=             -2.2103   YZ=              1.3396

  Exact polarizability:  87.609   0.922  68.360  -1.998   0.234  70.054
 Approx polarizability: 115.652  -2.112 106.428  -1.345  -0.024 112.104

                      1                      2                      3
                      A                      A                      A
 Frequencies --    174.2642               176.6066               234.7505
 Red. masses --      4.0328                 3.5889                 1.0829
 Frc consts  --      0.0722                 0.0660                 0.0352
 IR Inten    --      0.6844                 0.7138                 0.1936

                      4                      5                      6
                      A                      A                      A
 Frequencies --    240.9576               270.6276               298.9562
 Red. masses --      2.4344                 1.0854                 1.2237
 Frc consts  --      0.0833                 0.0468                 0.0644
 IR Inten    --      4.4740                85.1762                68.8204

                      7                      8                      9
                      A                      A                      A
 Frequencies --    365.9877               397.0282               428.2510
 Red. masses --      3.4362                 3.6098                 3.7303
 Frc consts  --      0.2712                 0.3353                 0.4031
 IR Inten    --      5.6223                22.6533                 0.4585

                     10                     11                     12
                      A                      A                      A
 Frequencies --    546.1119               581.3251               658.7871
 Red. masses --      3.5639                 3.8798                 3.6088
 Frc consts  --      0.6262                 0.7725                 0.9228
 IR Inten    --      1.8109                 9.7122                 3.6740

                     13                     14                     15
                      A                      A                      A
 Frequencies --    749.2603               822.7667               839.3233
 Red. masses --      3.6592                 2.3531                 2.0051
 Frc consts  --      1.2103                 0.9385                 0.8322
 IR Inten    --      0.1737                 8.5897                 0.4762

                     16                     17                     18
                      A                      A                      A
 Frequencies --    843.3034               872.3330               909.0519
 Red. masses --      1.9693                 2.1726                 1.8542
 Frc consts  --      0.8251                 0.9741                 0.9028
 IR Inten    --      0.2298                10.3882                 5.0685

                     19                     20                     21
                      A                      A                      A
 Frequencies --    926.6349               952.7911               975.6404
 Red. masses --      1.7282                 1.9676                 1.3638
 Frc consts  --      0.8743                 1.0524                 0.7648
 IR Inten    --      7.6236                36.8761                 3.4928

                     22                     23                     24
                      A                      A                      A
 Frequencies --   1005.0063              1065.6273              1084.1047
 Red. masses --      4.2876                 2.1568                 2.7346
 Frc consts  --      2.5515                 1.4430                 1.8936
 IR Inten    --      0.4691                11.1724               177.1023

                     25                     26                     27
                      A                      A                      A
 Frequencies --   1109.2485              1121.6207              1131.2592
 Red. masses --      1.6581                 1.5534                 1.8075
 Frc consts  --      1.2021                 1.1514                 1.3628
 IR Inten    --     14.0176                 7.0779                17.7088

                     28                     29                     30
                      A                      A                      A
 Frequencies --   1140.5290              1161.2591              1173.4268
 Red. masses --      1.5727                 1.4439                 1.7403
 Frc consts  --      1.2053                 1.1472                 1.4119
 IR Inten    --      3.4924                24.0239                 4.7486

                     31                     32                     33
                      A                      A                      A
 Frequencies --   1182.9153              1212.1422              1235.1788
 Red. masses --      2.6054                 3.2459                 1.6913
 Frc consts  --      2.1480                 2.8100                 1.5203
 IR Inten    --     10.7369                53.0122                16.5746

                     34                     35                     36
                      A                      A                      A
 Frequencies --   1281.6206              1290.7085              1304.7007
 Red. masses --      1.6713                 1.4840                 2.0265
 Frc consts  --      1.6174                 1.4566                 2.0324
 IR Inten    --     61.3670                 9.4973                13.4234

                     37                     38                     39
                      A                      A                      A
 Frequencies --   1395.8939              1410.9303              1447.2437
 Red. masses --      1.8208                 1.3783                 1.3128
 Frc consts  --      2.0903                 1.6166                 1.6201
 IR Inten    --     13.0576                18.9065               110.1877

                     40                     41                     42
                      A                      A                      A
 Frequencies --   1491.1640              1495.2358              3022.3419
 Red. masses --      1.0532                 1.0815                 1.0419
 Frc consts  --      1.3797                 1.4247                 5.6077
 IR Inten    --      4.9522                 6.6262                27.2082

                     43                     44                     45
                      A                      A                      A
 Frequencies --   3067.0593              3075.6221              3088.4474
 Red. masses --      1.0853                 1.0885                 1.0937
 Frc consts  --      6.0150                 6.0668                 6.1465
 IR Inten    --     46.0240                57.2558                19.3595

                     46                     47                     48
                      A                      A                      A
 Frequencies --   3101.4883              3111.1853              3120.7032
 Red. masses --      1.0882                 1.0936                 1.1004
 Frc consts  --      6.1672                 6.2367                 6.3140
 IR Inten    --     37.7829                45.9056                27.6278

                     49                     50                     51
                      A                      A                      A
 Frequencies --   3138.7447              3803.9978              3809.0567
 Red. masses --      1.0938                 1.0653                 1.0659
 Frc consts  --      6.3487                 9.0828                 9.1120
 IR Inten    --     25.3202                 9.3539                14.9544

 - Thermochemistry -
 -------------------
 Temperature   298.150 Kelvin.  Pressure   1.00000 Atm.
 Atom     1 has atomic number  6 and mass  12.00000

 Molecular mass:   126.06808 amu.
 Principal axes and moments of inertia in atomic units:
                           1         2         3
     Eigenvalues --   441.619941527.023071655.29888
           X            0.99972   0.02255  -0.00711
           Y           -0.02251   0.99974   0.00464
           Z            0.00721  -0.00448   0.99996
 This molecule is an asymmetric top.
 Rotational symmetry number  1.
 Warning -- assumption of classical behavior for rotation
           may cause significant error
 Rotational temperatures (Kelvin)      0.19613     0.05672     0.05233
 Rotational constants (GHZ):           4.08664     1.18187     1.09028
 Zero-point vibrational energy     414764.6 (Joules/Mol)
                                   99.13111 (Kcal/Mol)
 Warning -- explicit consideration of  11 degrees of freedom as
           vibrations may cause significant error
 Vibrational temperatures:    250.73   254.10   337.75   346.68   389.37
          (Kelvin)            430.13   526.57   571.23   616.16   785.73
                              836.40   947.85  1078.02  1183.78  1207.60
                             1213.32  1255.09  1307.92  1333.22  1370.85
                             1403.73  1445.98  1533.20  1559.78  1595.96
                             1613.76  1627.63  1640.96  1670.79  1688.30
                             1701.95  1744.00  1777.14  1843.96  1857.04
                             1877.17  2008.38  2030.01  2082.26  2145.45
                             2151.31  4348.47  4412.81  4425.13  4443.58
                             4462.34  4476.30  4489.99  4515.95  5473.10
                             5480.38

 Zero-point correction=                           0.157975 (Hartree/Particle)
 Thermal correction to Energy=                    0.166208
 Thermal correction to Enthalpy=                  0.167152
 Thermal correction to Gibbs Free Energy=         0.125863
 Sum of electronic and zero-point Energies=           -422.947446
 Sum of electronic and thermal Energies=              -422.939213
 Sum of electronic and thermal Enthalpies=            -422.938269
 Sum of electronic and thermal Free Energies=         -422.979559

                     E (Thermal)             CV                S
                      KCal/Mol        Cal/Mol-Kelvin    Cal/Mol-Kelvin
 Total                  104.297             33.055             86.901
 Electronic               0.000              0.000              0.000
 Translational            0.889              2.981             40.409
 Rotational               0.889              2.981             28.503
 Vibrational            102.520             27.093             17.990
 Vibration     1          0.627              1.874              2.389
 Vibration     2          0.628              1.871              2.364
 Vibration     3          0.655              1.788              1.842
 Vibration     4          0.658              1.778              1.796
 Vibration     5          0.674              1.727              1.592
 Vibration     6          0.692              1.676              1.423
 Vibration     7          0.739              1.542              1.097
 Vibration     8          0.764              1.477              0.974
 Vibration     9          0.790              1.409              0.864
 Vibration    10          0.901              1.148              0.552
 Vibration    11          0.938              1.072              0.483

 Optimization completed.
    -- Stationary point found.
 Normal termination of Gaussian 09 at Mon Jan 27 22:54:05 2020.
