 Gaussian 09, Revision D.01,
 Gaussian 09:  ES64L-G09RevD.01 24-Apr-2013

 -----------------------------
 # b3lyp 6-31G(2df,p) opt Freq
 -----------------------------

 -----
 titel
 -----
 Symbolic Z-matrix:
 Charge =  0 Multiplicity = 1

 SCF Done:  E(RB3LYP) =  -423.225655807     A.U. after   14 cycles
 Optimization completed.
    -- Stationary point found.
 Normal termination of Gaussian 09 at Mon Jan 27 16:02:42 2020.

 ----------------------------------------------------------------------
 #N Geom=AllCheck Guess=TCheck SCRF=Check GenChk RB3LYP/6-31G(2df,p) Fr
 eq
 ----------------------------------------------------------------------

 Structure from the checkpoint file:  "/scratch/puck/g09_37375602-98c9-4b34-8de5-d3c906f1a66d/Gau-143525.chk"
 -----
 titel
 -----
 Charge =  0 Multiplicity = 1

                         Standard orientation:
 ---------------------------------------------------------------------
 Center     Atomic      Atomic             Coordinates (Angstroms)
 Number     Number       Type             X           Y           Z
 ---------------------------------------------------------------------
      1          6           0       -1.052431    1.603042    0.358086
      2          6           0       -1.280678    0.141840    0.026823
      3          6           0       -2.743539   -0.239135   -0.121078
      4          6           0       -0.388411   -0.959939    0.598151
      5          6           0        0.980029   -0.606157    1.136018
      6          6           0        1.726756    0.003851   -0.056270
      7          8           0        2.825420    0.471300   -0.083031
      8          8           0        0.920795   -0.027857   -1.163744
      9          6           0       -0.332461   -0.612042   -0.871353
     10          1           0       -1.484402    1.845962    1.335377
     11          1           0        0.002246    1.883639    0.379699
     12          1           0       -1.540296    2.239881   -0.387770
     13          1           0       -3.284417   -0.081775    0.818941
     14          1           0       -3.228827    0.367671   -0.893470
     15          1           0       -2.861506   -1.291632   -0.398486
     16          1           0       -0.860913   -1.874728    0.935820
     17          1           0        0.987822    0.113767    1.959392
     18          1           0        1.528417   -1.489762    1.476663
     19          1           0       -0.683430   -1.249332   -1.674234
 ---------------------------------------------------------------------

 SCF Done:  E(RB3LYP) =  -423.225655807     A.U. after    1 cycles

 The electronic state is 1-A.
 Alpha  occ. eigenvalues --  -19.18385 -19.12355 -10.30514 -10.24880 -10.21419
 Alpha  occ. eigenvalues --  -10.20769 -10.20552 -10.19106 -10.18735  -1.10282
 Alpha  occ. eigenvalues --   -1.02514  -0.87923  -0.77247  -0.72907  -0.70100
 Alpha  occ. eigenvalues --   -0.63243  -0.57647  -0.53718  -0.51877  -0.48412
 Alpha  occ. eigenvalues --   -0.46203  -0.44457  -0.44193  -0.42836  -0.40550
 Alpha  occ. eigenvalues --   -0.40302  -0.39220  -0.38655  -0.37173  -0.35562
 Alpha  occ. eigenvalues --   -0.33555  -0.28503  -0.26889  -0.26437
 Alpha virt. eigenvalues --    0.01126   0.07669   0.09753   0.10207   0.10944
 Alpha virt. eigenvalues --    0.13252   0.13670   0.14766   0.16667   0.17257
 Alpha virt. eigenvalues --    0.17805   0.18021   0.19229   0.20145   0.21178

 Mulliken charges:
               1
     1  C   -0.469245
     2  C    0.273448
     3  C   -0.451076
     4  C   -0.126689
     5  C   -0.392443
     6  C    0.419328
     7  O   -0.329194
     8  O   -0.213626
     9  C    0.047665
    10  H    0.120850
    11  H    0.139645
    12  H    0.126321
    13  H    0.122949
    14  H    0.123731
    15  H    0.116474
    16  H    0.096578
    17  H    0.143572
    18  H    0.143058
    19  H    0.108655
 Sum of Mulliken charges =   0.00000

 Dipole moment (field-independent basis, Debye):
    X=             -3.7083    Y=             -1.5011    Z=              1.3212  Tot=              4.2131
 Quadrupole moment (field-independent basis, Debye-Ang):
   XX=            -62.0447   YY=            -50.9661   ZZ=            -52.8820
   XY=             -2.9678   XZ=              2.8519   YZ=              0.5735

  Exact polarizability:  90.471   0.875  68.309   3.525  -0.433  66.778
 Approx polarizability: 124.185   4.253 100.476   4.509  -1.296 105.740

                      1                      2                      3
                      A                      A                      A
 Frequencies --     96.4603               157.8722               185.2913
 Red. masses --      5.5446                 1.1134                 2.4799
 Frc consts  --      0.0304                 0.0163                 0.0502
 IR Inten    --      2.2983                 0.0897                 0.9715

                      4                      5                      6
                      A                      A                      A
 Frequencies --    217.3008               256.8206               285.3160
 Red. masses --      1.1907                 2.2553                 2.8537
 Frc consts  --      0.0331                 0.0876                 0.1369
 IR Inten    --      0.4952                 0.1852                 1.3812

                      7                      8                      9
                      A                      A                      A
 Frequencies --    342.3432               440.3373               483.6033
 Red. masses --      2.4184                 2.3861                 4.0986
 Frc consts  --      0.1670                 0.2726                 0.5648
 IR Inten    --      0.4430                 1.8750                 1.8226

                     10                     11                     12
                      A                      A                      A
 Frequencies --    498.9432               567.7933               679.4345
 Red. masses --      3.9330                 2.8358                 3.9693
 Frc consts  --      0.5769                 0.5386                 1.0796
 IR Inten    --      1.6276                 6.5831                 0.4044

                     13                     14                     15
                      A                      A                      A
 Frequencies --    696.3651               740.8888               823.8636
 Red. masses --      5.7668                 4.1466                 3.4576
 Frc consts  --      1.6476                 1.3411                 1.3827
 IR Inten    --      3.7098                 4.1826                 6.7147

                     16                     17                     18
                      A                      A                      A
 Frequencies --    836.9482               867.5552               957.4951
 Red. masses --      4.0445                 1.6226                 1.8637
 Frc consts  --      1.6692                 0.7195                 1.0067
 IR Inten    --     23.5786                12.7625                 2.4982

                     19                     20                     21
                      A                      A                      A
 Frequencies --    975.3039               996.6733              1020.9670
 Red. masses --      1.3539                 1.9165                 1.9713
 Frc consts  --      0.7588                 1.1217                 1.2107
 IR Inten    --      1.9375                 7.3564                 2.1436

                     22                     23                     24
                      A                      A                      A
 Frequencies --   1030.2045              1076.3966              1096.8896
 Red. masses --      1.5959                 1.8393                 1.4519
 Frc consts  --      0.9980                 1.2556                 1.0292
 IR Inten    --      9.2491                22.5782                 0.7059

                     25                     26                     27
                      A                      A                      A
 Frequencies --   1130.4111              1140.9500              1166.9181
 Red. masses --      3.3040                 2.6397                 2.5806
 Frc consts  --      2.4875                 2.0246                 2.0704
 IR Inten    --    105.9067                57.5915                94.0734

                     28                     29                     30
                      A                      A                      A
 Frequencies --   1185.0309              1232.9024              1291.1880
 Red. masses --      1.3295                 2.0216                 1.7325
 Frc consts  --      1.1000                 1.8106                 1.7017
 IR Inten    --      1.9367                 8.2191                 9.2543

                     31                     32                     33
                      A                      A                      A
 Frequencies --   1318.6188              1340.6966              1412.9674
 Red. masses --      2.1343                 1.5777                 1.3475
 Frc consts  --      2.1865                 1.6708                 1.5850
 IR Inten    --      0.0843                13.8726                 2.5551

                     34                     35                     36
                      A                      A                      A
 Frequencies --   1417.5308              1437.4144              1461.3389
 Red. masses --      2.0016                 1.3720                 1.0959
 Frc consts  --      2.3697                 1.6702                 1.3789
 IR Inten    --      4.4628                 1.4376                10.0806

                     37                     38                     39
                      A                      A                      A
 Frequencies --   1482.3274              1491.0477              1501.8835
 Red. masses --      1.0452                 1.0491                 1.0474
 Frc consts  --      1.3532                 1.3742                 1.3920
 IR Inten    --      0.2892                 5.2181                 6.0176

                     40                     41                     42
                      A                      A                      A
 Frequencies --   1512.8837              1886.3633              3026.0557
 Red. masses --      1.1310                12.9735                 1.0352
 Frc consts  --      1.5251                27.1993                 5.5848
 IR Inten    --      3.9072               381.0544                27.2020

                     43                     44                     45
                      A                      A                      A
 Frequencies --   3035.6357              3063.4635              3090.0319
 Red. masses --      1.0389                 1.0603                 1.1015
 Frc consts  --      5.6404                 5.8627                 6.1968
 IR Inten    --     26.8170                11.6375                 0.8104

                     46                     47                     48
                      A                      A                      A
 Frequencies --   3092.8342              3099.2120              3101.1937
 Red. masses --      1.1007                 1.1012                 1.1029
 Frc consts  --      6.2036                 6.2317                 6.2493
 IR Inten    --     37.4228                22.3521                 6.5464

                     49                     50                     51
                      A                      A                      A
 Frequencies --   3129.3246              3175.6947              3185.4508
 Red. masses --      1.0971                 1.0891                 1.0934
 Frc consts  --      6.3301                 6.4715                 6.5372
 IR Inten    --     16.7251                 7.7180                16.2003

 - Thermochemistry -
 -------------------
 Temperature   298.150 Kelvin.  Pressure   1.00000 Atm.
 Atom     1 has atomic number  6 and mass  12.00000

 Molecular mass:   126.06808 amu.
 Principal axes and moments of inertia in atomic units:
                           1         2         3
     Eigenvalues --   508.114691494.807431533.51766
           X            0.99983  -0.01229   0.01358
           Y            0.01132   0.99751   0.06963
           Z           -0.01440  -0.06947   0.99748
 This molecule is an asymmetric top.
 Rotational symmetry number  1.
 Warning -- assumption of classical behavior for rotation
           may cause significant error
 Rotational temperatures (Kelvin)      0.17046     0.05794     0.05648
 Rotational constants (GHZ):           3.55184     1.20734     1.17686
 Zero-point vibrational energy     417140.4 (Joules/Mol)
                                   99.69896 (Kcal/Mol)
 Warning -- explicit consideration of  11 degrees of freedom as
           vibrations may cause significant error
 Vibrational temperatures:    138.78   227.14   266.59   312.65   369.51
          (Kelvin)            410.51   492.55   633.55   695.80   717.87
                              816.93   977.55  1001.91  1065.97  1185.35
                             1204.18  1248.22  1377.62  1403.24  1433.99
                             1468.94  1482.23  1548.69  1578.18  1626.41
                             1641.57  1678.93  1704.99  1773.87  1857.73
                             1897.20  1928.96  2032.94  2039.51  2068.12
                             2102.54  2132.74  2145.28  2160.87  2176.70
                             2714.05  4353.81  4367.60  4407.64  4445.86
                             4449.89  4459.07  4461.92  4502.39  4569.11
                             4583.15

 Zero-point correction=                           0.158880 (Hartree/Particle)
 Thermal correction to Energy=                    0.167348
 Thermal correction to Enthalpy=                  0.168292
 Thermal correction to Gibbs Free Energy=         0.126074
 Sum of electronic and zero-point Energies=           -423.066775
 Sum of electronic and thermal Energies=              -423.058308
 Sum of electronic and thermal Enthalpies=            -423.057364
 Sum of electronic and thermal Free Energies=         -423.099582

                     E (Thermal)             CV                S
                      KCal/Mol        Cal/Mol-Kelvin    Cal/Mol-Kelvin
 Total                  105.012             32.502             88.855
 Electronic               0.000              0.000              0.000
 Translational            0.889              2.981             40.409
 Rotational               0.889              2.981             28.545
 Vibrational            103.235             26.541             19.901
 Vibration     1          0.603              1.952              3.525
 Vibration     2          0.621              1.894              2.575
 Vibration     3          0.631              1.860              2.274
 Vibration     4          0.646              1.815              1.981
 Vibration     5          0.666              1.751              1.683
 Vibration     6          0.683              1.701              1.502
 Vibration     7          0.721              1.591              1.201
 Vibration     8          0.800              1.382              0.826
 Vibration     9          0.840              1.286              0.700
 Vibration    10          0.854              1.252              0.661
 Vibration    11          0.924              1.101              0.509

 Optimization completed.
    -- Stationary point found.
 Normal termination of Gaussian 09 at Mon Jan 27 17:15:36 2020.
