 Gaussian 09, Revision D.01,
 Gaussian 09:  ES64L-G09RevD.01 24-Apr-2013

 -----------------------------
 # b3lyp 6-31G(2df,p) opt Freq
 -----------------------------

 -----
 titel
 -----
 Symbolic Z-matrix:
 Charge =  0 Multiplicity = 1

 SCF Done:  E(RB3LYP) =  -423.171815140     A.U. after   14 cycles
 Optimization completed.
    -- Stationary point found.
 Normal termination of Gaussian 09 at Mon Jan 27 17:50:14 2020.

 ----------------------------------------------------------------------
 #N Geom=AllCheck Guess=TCheck SCRF=Check GenChk RB3LYP/6-31G(2df,p) Fr
 eq
 ----------------------------------------------------------------------

 Structure from the checkpoint file:  "/scratch/puck/g09_3fc453b3-d769-4ab7-a796-d3499ef5a752/Gau-16445.chk"
 -----
 titel
 -----
 Charge =  0 Multiplicity = 1

                         Standard orientation:
 ---------------------------------------------------------------------
 Center     Atomic      Atomic             Coordinates (Angstroms)
 Number     Number       Type             X           Y           Z
 ---------------------------------------------------------------------
      1          6           0        1.893663   -0.388352   -0.858905
      2          6           0        0.824574    0.152755    0.097208
      3          8           0        1.299964    0.070482    1.447051
      4          6           0        0.379489    1.564460   -0.265622
      5          6           0       -0.918115    1.634546   -0.567134
      6          6           0       -1.585084    0.308150   -0.432369
      7          6           0       -1.570536   -0.282618    0.978570
      8          6           0       -0.493614   -0.647391    0.011341
      9          8           0       -0.451314   -1.983956   -0.381852
     10          1           0        2.792401    0.237305   -0.815595
     11          1           0        2.166029   -1.408813   -0.578566
     12          1           0        1.545109   -0.379539   -1.897819
     13          1           0        2.107248    0.592916    1.506421
     14          1           0        1.072081    2.399838   -0.240856
     15          1           0       -1.452155    2.539474   -0.836920
     16          1           0       -2.369983   -0.002867   -1.112510
     17          1           0       -1.330902    0.367147    1.811405
     18          1           0       -2.289739   -1.069369    1.178551
     19          1           0       -0.211537   -2.017600   -1.314228
 ---------------------------------------------------------------------

 SCF Done:  E(RB3LYP) =  -423.171815140     A.U. after    1 cycles

 The electronic state is 1-A.
 Alpha  occ. eigenvalues --  -19.14331 -19.13120 -10.23850 -10.23142 -10.18781
 Alpha  occ. eigenvalues --  -10.18622 -10.17940 -10.17870 -10.17620  -1.03218
 Alpha  occ. eigenvalues --   -1.01069  -0.87178  -0.77123  -0.73074  -0.65107
 Alpha  occ. eigenvalues --   -0.60519  -0.56430  -0.55475  -0.52073  -0.48006
 Alpha  occ. eigenvalues --   -0.45423  -0.44581  -0.42723  -0.41887  -0.39319
 Alpha  occ. eigenvalues --   -0.37859  -0.37162  -0.35454  -0.33970  -0.32756
 Alpha  occ. eigenvalues --   -0.28532  -0.26890  -0.26497  -0.22487
 Alpha virt. eigenvalues --    0.00923   0.06553   0.09442   0.11109   0.12978
 Alpha virt. eigenvalues --    0.15023   0.15313   0.15972   0.16903   0.17202
 Alpha virt. eigenvalues --    0.17708   0.18918   0.21274   0.21847   0.23389

 Mulliken charges:
               1
     1  C   -0.458608
     2  C    0.262091
     3  O   -0.462729
     4  C   -0.135855
     5  C   -0.082981
     6  C   -0.178352
     7  C   -0.302860
     8  C    0.400602
     9  O   -0.469192
    10  H    0.105393
    11  H    0.137354
    12  H    0.110464
    13  H    0.274231
    14  H    0.087449
    15  H    0.098803
    16  H    0.088217
    17  H    0.127452
    18  H    0.117633
    19  H    0.280888
 Sum of Mulliken charges =   0.00000

 Dipole moment (field-independent basis, Debye):
    X=              0.8125    Y=              1.4464    Z=             -1.8557  Tot=              2.4891
 Quadrupole moment (field-independent basis, Debye-Ang):
   XX=            -48.1493   YY=            -54.1224   ZZ=            -52.8360
   XY=              1.4986   XZ=              0.9120   YZ=              3.3943

  Exact polarizability:  87.553   1.103  74.679   0.389  -1.445  65.431
 Approx polarizability: 130.654   1.952 108.379   5.374  -3.652 101.949

                      1                      2                      3
                      A                      A                      A
 Frequencies --    117.5905               232.8285               249.8953
 Red. masses --      3.6075                 2.2951                 1.2097
 Frc consts  --      0.0294                 0.0733                 0.0445
 IR Inten    --      1.0385                 5.8215                58.6106

                      4                      5                      6
                      A                      A                      A
 Frequencies --    257.8661               285.1101               302.0493
 Red. masses --      1.0598                 2.2136                 3.5718
 Frc consts  --      0.0415                 0.1060                 0.1920
 IR Inten    --      9.7277                24.5670                 6.1502

                      7                      8                      9
                      A                      A                      A
 Frequencies --    332.5143               360.6323               384.1078
 Red. masses --      1.4146                 3.4723                 2.5723
 Frc consts  --      0.0921                 0.2661                 0.2236
 IR Inten    --     74.3243                10.9772                18.8133

                     10                     11                     12
                      A                      A                      A
 Frequencies --    464.6698               485.7377               586.3895
 Red. masses --      3.0121                 2.9039                 3.2149
 Frc consts  --      0.3832                 0.4037                 0.6513
 IR Inten    --      6.0439                 7.6242                 7.1010

                     13                     14                     15
                      A                      A                      A
 Frequencies --    606.3364               644.4191               727.6090
 Red. masses --      4.6600                 3.3973                 2.8901
 Frc consts  --      1.0094                 0.8312                 0.9015
 IR Inten    --     11.5862                 2.0439                 5.0956

                     16                     17                     18
                      A                      A                      A
 Frequencies --    783.8035               833.6494               872.0822
 Red. masses --      1.5948                 2.5064                 1.9397
 Frc consts  --      0.5772                 1.0263                 0.8691
 IR Inten    --     31.0267                 1.6455                28.2640

                     19                     20                     21
                      A                      A                      A
 Frequencies --    923.0191               940.3551               942.7581
 Red. masses --      1.8701                 2.6808                 1.9264
 Frc consts  --      0.9387                 1.3967                 1.0088
 IR Inten    --      2.1687                10.8116                16.7586

                     22                     23                     24
                      A                      A                      A
 Frequencies --    962.4042               980.3244              1040.4253
 Red. masses --      1.4278                 1.8562                 1.5783
 Frc consts  --      0.7792                 1.0510                 1.0066
 IR Inten    --      6.2399                 9.4582                 2.6752

                     25                     26                     27
                      A                      A                      A
 Frequencies --   1066.0867              1070.6281              1092.0485
 Red. masses --      1.4895                 1.2874                 1.6219
 Frc consts  --      0.9974                 0.8694                 1.1396
 IR Inten    --      2.1939                 6.6194                18.7903

                     28                     29                     30
                      A                      A                      A
 Frequencies --   1129.7299              1147.5892              1191.3189
 Red. masses --      3.1588                 1.3650                 2.7767
 Frc consts  --      2.3753                 1.0592                 2.3219
 IR Inten    --     34.6421                44.5928                36.1335

                     31                     32                     33
                      A                      A                      A
 Frequencies --   1235.9724              1253.9995              1302.4775
 Red. masses --      1.8807                 2.4037                 1.4657
 Frc consts  --      1.6928                 2.2271                 1.4650
 IR Inten    --     26.9766                45.1887                81.5633

                     34                     35                     36
                      A                      A                      A
 Frequencies --   1359.2616              1383.7219              1394.6307
 Red. masses --      1.8489                 1.7106                 1.4289
 Frc consts  --      2.0127                 1.9297                 1.6374
 IR Inten    --     25.5346                28.1826                 3.7989

                     37                     38                     39
                      A                      A                      A
 Frequencies --   1411.3204              1475.1938              1487.6374
 Red. masses --      1.7027                 1.4653                 1.0559
 Frc consts  --      1.9982                 1.8788                 1.3768
 IR Inten    --      2.0785                 7.1640                 3.0676

                     40                     41                     42
                      A                      A                      A
 Frequencies --   1497.0599              1669.6634              3027.3513
 Red. masses --      1.0829                 6.6177                 1.0361
 Frc consts  --      1.4300                10.8697                 5.5948
 IR Inten    --      6.3249                 3.8366                17.8232

                     43                     44                     45
                      A                      A                      A
 Frequencies --   3088.7988              3124.4325              3140.0863
 Red. masses --      1.1005                 1.1009                 1.0532
 Frc consts  --      6.1859                 6.3318                 6.1186
 IR Inten    --     27.5467                12.4601                 9.8547

                     46                     47                     48
                      A                      A                      A
 Frequencies --   3170.4249              3177.6469              3198.0616
 Red. masses --      1.0844                 1.0907                 1.1039
 Frc consts  --      6.4220                 6.4885                 6.6518
 IR Inten    --      2.4889                20.0872                23.1343

                     49                     50                     51
                      A                      A                      A
 Frequencies --   3238.4573              3799.7491              3802.3778
 Red. masses --      1.1178                 1.0659                 1.0661
 Frc consts  --      6.9071                 9.0669                 9.0812
 IR Inten    --      3.2312                13.2276                14.0947

 - Thermochemistry -
 -------------------
 Temperature   298.150 Kelvin.  Pressure   1.00000 Atm.
 Atom     1 has atomic number  6 and mass  12.00000

 Molecular mass:   126.06808 amu.
 Principal axes and moments of inertia in atomic units:
                           1         2         3
     Eigenvalues --   829.61704 964.314471234.25415
           X            0.99916  -0.00860  -0.03996
           Y            0.00944   0.99974   0.02086
           Z            0.03977  -0.02122   0.99898
 This molecule is an asymmetric top.
 Rotational symmetry number  1.
 Warning -- assumption of classical behavior for rotation
           may cause significant error
 Rotational temperatures (Kelvin)      0.10440     0.08982     0.07018
 Rotational constants (GHZ):           2.17539     1.87153     1.46221
 Zero-point vibrational energy     414220.8 (Joules/Mol)
                                   99.00114 (Kcal/Mol)
 Warning -- explicit consideration of  13 degrees of freedom as
           vibrations may cause significant error
 Vibrational temperatures:    169.19   334.99   359.54   371.01   410.21
          (Kelvin)            434.58   478.41   518.87   552.64   668.56
                              698.87   843.68   872.38   927.17  1046.87
                             1127.72  1199.43  1254.73  1328.02  1352.96
                             1356.42  1384.68  1410.47  1496.94  1533.86
                             1540.39  1571.21  1625.43  1651.12  1714.04
                             1778.29  1804.22  1873.97  1955.67  1990.86
                             2006.56  2030.57  2122.47  2140.38  2153.93
                             2402.27  4355.68  4444.09  4495.36  4517.88
                             4561.53  4571.92  4601.29  4659.41  5466.98
                             5470.77

 Zero-point correction=                           0.157768 (Hartree/Particle)
 Thermal correction to Energy=                    0.166437
 Thermal correction to Enthalpy=                  0.167381
 Thermal correction to Gibbs Free Energy=         0.125432
 Sum of electronic and zero-point Energies=           -423.014047
 Sum of electronic and thermal Energies=              -423.005378
 Sum of electronic and thermal Enthalpies=            -423.004434
 Sum of electronic and thermal Free Energies=         -423.046383

                     E (Thermal)             CV                S
                      KCal/Mol        Cal/Mol-Kelvin    Cal/Mol-Kelvin
 Total                  104.441             34.807             88.289
 Electronic               0.000              0.000              0.000
 Translational            0.889              2.981             40.409
 Rotational               0.889              2.981             28.381
 Vibrational            102.663             28.845             19.499
 Vibration     1          0.608              1.935              3.140
 Vibration     2          0.654              1.791              1.857
 Vibration     3          0.663              1.763              1.731
 Vibration     4          0.667              1.749              1.676
 Vibration     5          0.683              1.701              1.503
 Vibration     6          0.694              1.670              1.406
 Vibration     7          0.714              1.611              1.248
 Vibration     8          0.735              1.553              1.119
 Vibration     9          0.753              1.504              1.023
 Vibration    10          0.822              1.328              0.753
 Vibration    11          0.842              1.282              0.695
 Vibration    12          0.943              1.061              0.474
 Vibration    13          0.965              1.018              0.439

 Optimization completed.
    -- Stationary point found.
 Normal termination of Gaussian 09 at Mon Jan 27 19:50:41 2020.
