 Gaussian 09, Revision D.01,
 Gaussian 09:  ES64L-G09RevD.01 24-Apr-2013

 -----------------------------
 # b3lyp 6-31G(2df,p) opt Freq
 -----------------------------

 -----
 titel
 -----
 Symbolic Z-matrix:
 Charge =  0 Multiplicity = 1

 SCF Done:  E(RB3LYP) =  -423.100993005     A.U. after   13 cycles
 Optimization completed.
    -- Stationary point found.
 Normal termination of Gaussian 09 at Mon Jan 27 23:07:21 2020.

 ----------------------------------------------------------------------
 #N Geom=AllCheck Guess=TCheck SCRF=Check GenChk RB3LYP/6-31G(2df,p) Fr
 eq
 ----------------------------------------------------------------------

 Structure from the checkpoint file:  "/scratch/puck/g09_8ca3c695-0d40-4ec2-a69f-65fd9c3a5201/Gau-196145.chk"
 -----
 titel
 -----
 Charge =  0 Multiplicity = 1

                         Standard orientation:
 ---------------------------------------------------------------------
 Center     Atomic      Atomic             Coordinates (Angstroms)
 Number     Number       Type             X           Y           Z
 ---------------------------------------------------------------------
      1          6           0        2.734385   -0.639253   -0.063631
      2          6           0        1.420195   -0.083437   -0.584082
      3          6           0        0.795051    1.272387    0.003327
      4          6           0        0.378636    0.495746    1.268490
      5          6           0        0.031734   -0.421139    0.046649
      6          8           0       -0.965576   -1.394861    0.062918
      7          6           0       -2.173931   -0.594882    0.035858
      8          8           0       -1.850030    0.797232   -0.163576
      9          6           0       -0.528709    0.772936   -0.675612
     10          1           0        3.573000   -0.048550   -0.447553
     11          1           0        2.804247   -0.649668    1.025996
     12          1           0        2.871026   -1.667477   -0.414547
     13          1           0        1.410969   -0.112964   -1.679365
     14          1           0        1.256435    2.255973   -0.057379
     15          1           0        1.167359    0.167927    1.943339
     16          1           0       -0.474054    0.898466    1.813409
     17          1           0       -2.798898   -0.969322   -0.785089
     18          1           0       -2.703085   -0.676773    0.991744
     19          1           0       -0.526315    0.769280   -1.771289
 ---------------------------------------------------------------------

 SCF Done:  E(RB3LYP) =  -423.100993005     A.U. after    1 cycles

 The electronic state is 1-A.
 Alpha  occ. eigenvalues --  -19.15299 -19.15076 -10.27919 -10.24272 -10.22820
 Alpha  occ. eigenvalues --  -10.21287 -10.21179 -10.18218 -10.18143  -1.08616
 Alpha  occ. eigenvalues --   -0.99704  -0.91102  -0.74271  -0.69777  -0.66718
 Alpha  occ. eigenvalues --   -0.61925  -0.58942  -0.54083  -0.50963  -0.50058
 Alpha  occ. eigenvalues --   -0.48291  -0.45285  -0.44284  -0.41664  -0.39542
 Alpha  occ. eigenvalues --   -0.38283  -0.36531  -0.34725  -0.34434  -0.33353
 Alpha  occ. eigenvalues --   -0.31434  -0.27674  -0.27354  -0.24665
 Alpha virt. eigenvalues --    0.07682   0.09707   0.10578   0.11720   0.12612
 Alpha virt. eigenvalues --    0.13463   0.14850   0.15454   0.16034   0.16734
 Alpha virt. eigenvalues --    0.17170   0.18423   0.18977   0.20541   0.21317

 Mulliken charges:
               1
     1  C   -0.437325
     2  C   -0.042028
     3  C   -0.135640
     4  C   -0.303109
     5  C    0.403533
     6  O   -0.333600
     7  C    0.000901
     8  O   -0.295740
     9  C    0.096735
    10  H    0.121637
    11  H    0.124487
    12  H    0.128835
    13  H    0.077739
    14  H    0.085125
    15  H    0.094187
    16  H    0.112751
    17  H    0.112827
    18  H    0.118058
    19  H    0.070626
 Sum of Mulliken charges =   0.00000

 Dipole moment (field-independent basis, Debye):
    X=              1.0555    Y=              0.1982    Z=             -0.2464  Tot=              1.1018
 Quadrupole moment (field-independent basis, Debye-Ang):
   XX=            -50.6971   YY=            -56.7011   ZZ=            -51.7580
   XY=              2.3240   XZ=             -0.5582   YZ=              0.0665

  Exact polarizability:  91.277   2.910  65.211  -1.202   0.469  69.096
 Approx polarizability: 120.260   3.906 104.961  -2.051  -0.103 105.373

                      1                      2                      3
                      A                      A                      A
 Frequencies --     71.3869               180.0401               202.4486
 Red. masses --      2.2404                 1.0335                 3.1083
 Frc consts  --      0.0067                 0.0197                 0.0751
 IR Inten    --      6.8646                 0.1132                 0.6975

                      4                      5                      6
                      A                      A                      A
 Frequencies --    261.1748               382.3976               408.8568
 Red. masses --      4.0831                 3.5395                 3.5346
 Frc consts  --      0.1641                 0.3049                 0.3481
 IR Inten    --      1.1329                 1.1291                 4.7045

                      7                      8                      9
                      A                      A                      A
 Frequencies --    487.6386               500.1415               580.4214
 Red. masses --      2.8916                 4.2937                 3.0077
 Frc consts  --      0.4051                 0.6328                 0.5970
 IR Inten    --      2.6305                 6.1964                 2.9281

                     10                     11                     12
                      A                      A                      A
 Frequencies --    702.3424               717.5210               740.2769
 Red. masses --      2.6059                 4.8873                 5.0814
 Frc consts  --      0.7574                 1.4825                 1.6407
 IR Inten    --      0.9670                 4.0044                 4.4712

                     13                     14                     15
                      A                      A                      A
 Frequencies --    846.9372               853.8402               898.4271
 Red. masses --      4.6822                 4.5059                 2.2780
 Frc consts  --      1.9788                 1.9355                 1.0834
 IR Inten    --     11.3711                16.0004                17.5371

                     16                     17                     18
                      A                      A                      A
 Frequencies --    910.8903               957.0985               984.5482
 Red. masses --      2.6046                 1.6672                 1.8362
 Frc consts  --      1.2733                 0.8998                 1.0487
 IR Inten    --     18.5340                 2.0471                 1.1035

                     19                     20                     21
                      A                      A                      A
 Frequencies --   1011.0843              1028.7821              1047.3900
 Red. masses --      2.4387                 1.6227                 3.8279
 Frc consts  --      1.4689                 1.0119                 2.4742
 IR Inten    --     24.1569                 4.0052               129.1254

                     22                     23                     24
                      A                      A                      A
 Frequencies --   1066.6586              1105.4719              1115.9267
 Red. masses --      1.7345                 1.6984                 2.3236
 Frc consts  --      1.1627                 1.2229                 1.7048
 IR Inten    --     26.8749                11.5386                 1.4310

                     25                     26                     27
                      A                      A                      A
 Frequencies --   1120.1085              1139.5878              1144.2779
 Red. masses --      1.5520                 1.5090                 2.1029
 Frc consts  --      1.1472                 1.1546                 1.6223
 IR Inten    --      7.7745                 3.9668                13.0601

                     28                     29                     30
                      A                      A                      A
 Frequencies --   1167.5140              1192.2763              1214.2223
 Red. masses --      1.7069                 1.1282                 1.8290
 Frc consts  --      1.3708                 0.9449                 1.5887
 IR Inten    --      1.6193                 1.4096                36.3401

                     31                     32                     33
                      A                      A                      A
 Frequencies --   1227.8315              1235.5191              1279.3413
 Red. masses --      1.7606                 2.4912                 2.6554
 Frc consts  --      1.5638                 2.2406                 2.5606
 IR Inten    --      9.4001                 2.8031               133.4597

                     34                     35                     36
                      A                      A                      A
 Frequencies --   1381.2775              1408.6550              1418.2495
 Red. masses --      1.2324                 1.2170                 1.2665
 Frc consts  --      1.3854                 1.4229                 1.5010
 IR Inten    --     30.0284                 3.5520                 6.3710

                     37                     38                     39
                      A                      A                      A
 Frequencies --   1428.8003              1494.5020              1498.0182
 Red. masses --      1.3889                 1.0472                 1.0918
 Frc consts  --      1.6705                 1.3781                 1.4436
 IR Inten    --     10.1952                 2.2701                 8.8756

                     40                     41                     42
                      A                      A                      A
 Frequencies --   1523.0915              1536.2730              3014.5751
 Red. masses --      1.1190                 1.1212                 1.0561
 Frc consts  --      1.5295                 1.5591                 5.6547
 IR Inten    --     12.2031                 0.5522               101.0087

                     43                     44                     45
                      A                      A                      A
 Frequencies --   3036.2389              3040.6735              3049.6245
 Red. masses --      1.0761                 1.0488                 1.0805
 Frc consts  --      5.8451                 5.7131                 5.9207
 IR Inten    --      3.6197                30.7735                65.2890

                     46                     47                     48
                      A                      A                      A
 Frequencies --   3069.3887              3097.6334              3099.8379
 Red. masses --      1.1129                 1.0998                 1.0577
 Frc consts  --      6.1777                 6.2175                 5.9884
 IR Inten    --     43.5647                16.2466                18.0750

                     49                     50                     51
                      A                      A                      A
 Frequencies --   3126.4185              3137.9174              3164.8170
 Red. masses --      1.0967                 1.0929                 1.1106
 Frc consts  --      6.3159                 6.3401                 6.5538
 IR Inten    --     35.3905                33.7048                22.1691

 - Thermochemistry -
 -------------------
 Temperature   298.150 Kelvin.  Pressure   1.00000 Atm.
 Atom     1 has atomic number  6 and mass  12.00000

 Molecular mass:   126.06808 amu.
 Principal axes and moments of inertia in atomic units:
                           1         2         3
     Eigenvalues --   496.547521243.040071413.75393
           X            1.00000  -0.00092  -0.00180
           Y            0.00095   0.99987   0.01637
           Z            0.00178  -0.01637   0.99986
 This molecule is an asymmetric top.
 Rotational symmetry number  1.
 Warning -- assumption of classical behavior for rotation
           may cause significant error
 Rotational temperatures (Kelvin)      0.17443     0.06968     0.06127
 Rotational constants (GHZ):           3.63458     1.45188     1.27656
 Zero-point vibrational energy     420537.5 (Joules/Mol)
                                  100.51086 (Kcal/Mol)
 Warning -- explicit consideration of   9 degrees of freedom as
           vibrations may cause significant error
 Vibrational temperatures:    102.71   259.04   291.28   375.77   550.18
          (Kelvin)            588.25   701.60   719.59   835.10  1010.51
                             1032.35  1065.09  1218.55  1228.48  1292.63
                             1310.57  1377.05  1416.54  1454.72  1480.19
                             1506.96  1534.68  1590.53  1605.57  1611.58
                             1639.61  1646.36  1679.79  1715.42  1746.99
                             1766.57  1777.63  1840.68  1987.35  2026.74
                             2040.54  2055.72  2150.25  2155.31  2191.39
                             2210.35  4337.30  4368.47  4374.85  4387.72
                             4416.16  4456.80  4459.97  4498.21  4514.76
                             4553.46

 Zero-point correction=                           0.160174 (Hartree/Particle)
 Thermal correction to Energy=                    0.167690
 Thermal correction to Enthalpy=                  0.168634
 Thermal correction to Gibbs Free Energy=         0.128110
 Sum of electronic and zero-point Energies=           -422.940819
 Sum of electronic and thermal Energies=              -422.933303
 Sum of electronic and thermal Enthalpies=            -422.932359
 Sum of electronic and thermal Free Energies=         -422.972883

                     E (Thermal)             CV                S
                      KCal/Mol        Cal/Mol-Kelvin    Cal/Mol-Kelvin
 Total                  105.227             29.770             85.291
 Electronic               0.000              0.000              0.000
 Translational            0.889              2.981             40.409
 Rotational               0.889              2.981             28.258
 Vibrational            103.450             23.808             16.624
 Vibration     1          0.598              1.968              4.115
 Vibration     2          0.629              1.867              2.328
 Vibration     3          0.639              1.836              2.111
 Vibration     4          0.669              1.744              1.654
 Vibration     5          0.752              1.508              1.030
 Vibration     6          0.773              1.451              0.931
 Vibration     7          0.844              1.277              0.690
 Vibration     8          0.856              1.250              0.658
 Vibration     9          0.937              1.074              0.485

 Normal termination of Gaussian 09 at Mon Jan 27 23:56:05 2020.
