 Gaussian 09, Revision D.01,
 Gaussian 09:  ES64L-G09RevD.01 24-Apr-2013

 -----------------------------
 # b3lyp 6-31G(2df,p) opt Freq
 -----------------------------

 -----
 titel
 -----
 Symbolic Z-matrix:
 Charge =  0 Multiplicity = 1

 SCF Done:  E(RB3LYP) =  -423.149270316     A.U. after   12 cycles
 Optimization completed.
    -- Stationary point found.
 Normal termination of Gaussian 09 at Mon Jan 27 17:17:24 2020.

 ----------------------------------------------------------------------
 #N Geom=AllCheck Guess=TCheck SCRF=Check GenChk RB3LYP/6-31G(2df,p) Fr
 eq
 ----------------------------------------------------------------------

 Structure from the checkpoint file:  "/scratch/puck/g09_1a3ea20a-6303-46bb-9555-5c9de4c5159f/Gau-60121.chk"
 -----
 titel
 -----
 Charge =  0 Multiplicity = 1

                         Standard orientation:
 ---------------------------------------------------------------------
 Center     Atomic      Atomic             Coordinates (Angstroms)
 Number     Number       Type             X           Y           Z
 ---------------------------------------------------------------------
      1          6           0       -2.078216   -1.093294   -0.327431
      2          6           0       -0.753454   -0.581850    0.160370
      3          6           0       -0.642186    0.304749    1.392069
      4          6           0       -0.259143    0.832143    0.021091
      5          8           0       -1.060442    1.790625   -0.598527
      6          6           0        1.180646    0.728974   -0.454471
      7          6           0        2.236066    0.088150    0.426556
      8          6           0        1.451691   -0.748482   -0.549609
      9          8           0        0.326597   -1.462098   -0.089953
     10          1           0       -2.839317   -0.315968   -0.224636
     11          1           0       -2.012592   -1.374616   -1.382863
     12          1           0       -2.395869   -1.971726    0.243466
     13          1           0       -1.583031    0.676493    1.786744
     14          1           0        0.113158    0.097596    2.140256
     15          1           0       -0.967311    2.616732   -0.111799
     16          1           0        1.466938    1.430101   -1.228557
     17          1           0        3.270957    0.290120    0.168719
     18          1           0        2.058510   -0.026019    1.489077
     19          1           0        1.946897   -1.233270   -1.384013
 ---------------------------------------------------------------------

 SCF Done:  E(RB3LYP) =  -423.149270316     A.U. after    1 cycles

 The electronic state is 1-A.
 Alpha  occ. eigenvalues --  -19.14925 -19.14287 -10.24023 -10.23396 -10.23203
 Alpha  occ. eigenvalues --  -10.19209 -10.18560 -10.18121 -10.17334  -1.05165
 Alpha  occ. eigenvalues --   -1.02885  -0.84886  -0.83548  -0.71315  -0.64871
 Alpha  occ. eigenvalues --   -0.61292  -0.57236  -0.55337  -0.52752  -0.48769
 Alpha  occ. eigenvalues --   -0.45989  -0.44369  -0.43012  -0.42455  -0.39635
 Alpha  occ. eigenvalues --   -0.38327  -0.37129  -0.36580  -0.36315  -0.30631
 Alpha  occ. eigenvalues --   -0.29784  -0.28254  -0.24820  -0.22560
 Alpha virt. eigenvalues --    0.07575   0.08723   0.09913   0.11608   0.12556
 Alpha virt. eigenvalues --    0.13531   0.15462   0.16041   0.17036   0.17921
 Alpha virt. eigenvalues --    0.19405   0.19967   0.20503   0.22004   0.22595

 Mulliken charges:
               1
     1  C   -0.457778
     2  C    0.389898
     3  C   -0.425367
     4  C    0.324215
     5  O   -0.474090
     6  C   -0.134030
     7  C   -0.336053
     8  C    0.096092
     9  O   -0.299978
    10  H    0.128150
    11  H    0.125172
    12  H    0.123784
    13  H    0.112097
    14  H    0.114989
    15  H    0.285707
    16  H    0.096197
    17  H    0.112266
    18  H    0.119341
    19  H    0.099389
 Sum of Mulliken charges =   0.00000

 Dipole moment (field-independent basis, Debye):
    X=              0.5086    Y=              1.6949    Z=              0.6543  Tot=              1.8866
 Quadrupole moment (field-independent basis, Debye-Ang):
   XX=            -50.4302   YY=            -52.3501   ZZ=            -52.6585
   XY=              0.6755   XZ=             -2.6910   YZ=              2.2473

  Exact polarizability:  84.645   1.161  70.633  -1.526   1.959  67.758
 Approx polarizability: 110.767  -0.627 109.711  -0.994   1.715 103.629

                      1                      2                      3
                      A                      A                      A
 Frequencies --    163.8686               176.9617               208.0512
 Red. masses --      2.5169                 1.1720                 3.6270
 Frc consts  --      0.0398                 0.0216                 0.0925
 IR Inten    --      1.2756                 0.8070                 5.1675

                      4                      5                      6
                      A                      A                      A
 Frequencies --    233.0939               300.6445               343.6123
 Red. masses --      2.7816                 1.0829                 3.3599
 Frc consts  --      0.0890                 0.0577                 0.2337
 IR Inten    --      0.8842                69.8517                10.0663

                      7                      8                      9
                      A                      A                      A
 Frequencies --    402.5020               434.6526               473.4441
 Red. masses --      4.1009                 2.5621                 2.3691
 Frc consts  --      0.3914                 0.2852                 0.3129
 IR Inten    --     12.2021                 2.9947                 1.4518

                     10                     11                     12
                      A                      A                      A
 Frequencies --    517.5676               562.2699               683.0291
 Red. masses --      2.9613                 3.2424                 4.4449
 Frc consts  --      0.4674                 0.6040                 1.2218
 IR Inten    --      3.6337                 1.8747                 4.0986

                     13                     14                     15
                      A                      A                      A
 Frequencies --    714.5779               756.5460               793.4043
 Red. masses --      2.6623                 3.9605                 1.6234
 Frc consts  --      0.8010                 1.3356                 0.6021
 IR Inten    --      2.8777                18.1790                 8.3157

                     16                     17                     18
                      A                      A                      A
 Frequencies --    822.1786               862.8441               915.0577
 Red. masses --      2.3839                 2.6772                 1.3690
 Frc consts  --      0.9494                 1.1743                 0.6754
 IR Inten    --      8.9210                 5.3105                 5.9561

                     19                     20                     21
                      A                      A                      A
 Frequencies --    943.9571               957.0970               968.3011
 Red. masses --      1.7036                 2.2516                 2.3896
 Frc consts  --      0.8944                 1.2152                 1.3201
 IR Inten    --      2.9323                 4.3823                29.7120

                     22                     23                     24
                      A                      A                      A
 Frequencies --    986.9293              1018.6692              1032.7041
 Red. masses --      1.8088                 1.4005                 1.4009
 Frc consts  --      1.0380                 0.8562                 0.8803
 IR Inten    --      5.1332                 5.0109                 4.6050

                     25                     26                     27
                      A                      A                      A
 Frequencies --   1067.2032              1094.9550              1112.4834
 Red. masses --      1.7114                 1.3069                 1.8199
 Frc consts  --      1.1484                 0.9232                 1.3270
 IR Inten    --     19.9488                 8.4247                14.9349

                     28                     29                     30
                      A                      A                      A
 Frequencies --   1150.8599              1171.9467              1187.1564
 Red. masses --      2.5620                 2.1013                 2.1215
 Frc consts  --      1.9993                 1.7004                 1.7616
 IR Inten    --     57.7070                 0.1641                70.9000

                     31                     32                     33
                      A                      A                      A
 Frequencies --   1216.6893              1244.3820              1299.6840
 Red. masses --      2.7164                 3.0397                 1.4494
 Frc consts  --      2.3692                 2.7733                 1.4425
 IR Inten    --     92.6340                32.5719                51.1010

                     34                     35                     36
                      A                      A                      A
 Frequencies --   1350.3262              1368.4944              1401.4450
 Red. masses --      2.2566                 1.7589                 1.4336
 Frc consts  --      2.4242                 1.9408                 1.6589
 IR Inten    --     13.0508                15.9859                 1.8099

                     37                     38                     39
                      A                      A                      A
 Frequencies --   1417.3941              1472.4367              1477.9129
 Red. masses --      1.4650                 1.3834                 1.1202
 Frc consts  --      1.7341                 1.7672                 1.4417
 IR Inten    --      5.5071                 2.9298                 3.5291

                     40                     41                     42
                      A                      A                      A
 Frequencies --   1488.5726              1504.0999              3040.0057
 Red. masses --      1.2333                 1.2368                 1.0355
 Frc consts  --      1.6101                 1.6486                 5.6381
 IR Inten    --     10.2500                 6.3831                26.1714

                     43                     44                     45
                      A                      A                      A
 Frequencies --   3105.3679              3126.1542              3130.1277
 Red. masses --      1.1017                 1.0896                 1.0640
 Frc consts  --      6.2595                 6.2741                 6.1422
 IR Inten    --     18.3734                 5.7234                13.2108

                     46                     47                     48
                      A                      A                      A
 Frequencies --   3135.7109              3165.8442              3189.8192
 Red. masses --      1.0558                 1.0909                 1.0929
 Frc consts  --      6.1167                 6.4421                 6.5519
 IR Inten    --     13.5529                23.5720                 6.3343

                     49                     50                     51
                      A                      A                      A
 Frequencies --   3219.8353              3226.5546              3797.2294
 Red. masses --      1.1159                 1.1134                 1.0663
 Frc consts  --      6.8160                 6.8295                 9.0588
 IR Inten    --     11.2696                 7.0651                21.8531

 - Thermochemistry -
 -------------------
 Temperature   298.150 Kelvin.  Pressure   1.00000 Atm.
 Atom     1 has atomic number  6 and mass  12.00000

 Molecular mass:   126.06808 amu.
 Principal axes and moments of inertia in atomic units:
                           1         2         3
     Eigenvalues --   706.079431012.243171329.01339
           X            0.99804   0.06248  -0.00213
           Y           -0.06239   0.99764   0.02857
           Z            0.00391  -0.02838   0.99959
 This molecule is an asymmetric top.
 Rotational symmetry number  1.
 Warning -- assumption of classical behavior for rotation
           may cause significant error
 Rotational temperatures (Kelvin)      0.12267     0.08557     0.06517
 Rotational constants (GHZ):           2.55600     1.78291     1.35796
 Zero-point vibrational energy     415311.5 (Joules/Mol)
                                   99.26182 (Kcal/Mol)
 Warning -- explicit consideration of  11 degrees of freedom as
           vibrations may cause significant error
 Vibrational temperatures:    235.77   254.61   299.34   335.37   432.56
          (Kelvin)            494.38   579.11   625.37   681.18   744.66
                              808.98   982.73  1028.12  1088.50  1141.53
                             1182.93  1241.44  1316.56  1358.14  1377.05
                             1393.17  1419.97  1465.64  1485.83  1535.47
                             1575.39  1600.61  1655.83  1686.17  1708.05
                             1750.54  1790.39  1869.95  1942.82  1968.96
                             2016.36  2039.31  2118.51  2126.38  2141.72
                             2164.06  4373.88  4467.93  4497.83  4503.55
                             4511.58  4554.94  4589.43  4632.62  4642.29
                             5463.36

 Zero-point correction=                           0.158184 (Hartree/Particle)
 Thermal correction to Energy=                    0.166351
 Thermal correction to Enthalpy=                  0.167295
 Thermal correction to Gibbs Free Energy=         0.126185
 Sum of electronic and zero-point Energies=           -422.991087
 Sum of electronic and thermal Energies=              -422.982920
 Sum of electronic and thermal Enthalpies=            -422.981975
 Sum of electronic and thermal Free Energies=         -423.023085

                     E (Thermal)             CV                S
                      KCal/Mol        Cal/Mol-Kelvin    Cal/Mol-Kelvin
 Total                  104.387             32.987             86.523
 Electronic               0.000              0.000              0.000
 Translational            0.889              2.981             40.409
 Rotational               0.889              2.981             28.343
 Vibrational            102.609             27.025             17.772
 Vibration     1          0.623              1.887              2.505
 Vibration     2          0.628              1.871              2.360
 Vibration     3          0.641              1.828              2.061
 Vibration     4          0.654              1.790              1.855
 Vibration     5          0.693              1.672              1.413
 Vibration     6          0.722              1.588              1.195
 Vibration     7          0.768              1.465              0.954
 Vibration     8          0.795              1.395              0.844
 Vibration     9          0.830              1.309              0.728
 Vibration    10          0.873              1.211              0.616
 Vibration    11          0.918              1.113              0.519

 Normal termination of Gaussian 09 at Mon Jan 27 18:02:48 2020.
