 Gaussian 09, Revision D.01,
 Gaussian 09:  ES64L-G09RevD.01 24-Apr-2013

 -----------------------------
 # b3lyp 6-31G(2df,p) opt Freq
 -----------------------------

 -----
 titel
 -----
 Symbolic Z-matrix:
 Charge =  0 Multiplicity = 1

 SCF Done:  E(RB3LYP) =  -423.135517660     A.U. after   13 cycles
 Optimization completed.
    -- Stationary point found.
 Normal termination of Gaussian 09 at Mon Jan 27 18:47:12 2020.

 ----------------------------------------------------------------------
 #N Geom=AllCheck Guess=TCheck SCRF=Check GenChk RB3LYP/6-31G(2df,p) Fr
 eq
 ----------------------------------------------------------------------

 Structure from the checkpoint file:  "/scratch/puck/g09_8889da32-6675-4d9d-a36f-a99eb0adc07c/Gau-43348.chk"
 -----
 titel
 -----
 Charge =  0 Multiplicity = 1

                         Standard orientation:
 ---------------------------------------------------------------------
 Center     Atomic      Atomic             Coordinates (Angstroms)
 Number     Number       Type             X           Y           Z
 ---------------------------------------------------------------------
      1          8           0       -1.862228   -1.500923   -0.405925
      2          6           0       -1.087934   -0.432037    0.043124
      3          6           0       -1.776210    0.866715    0.519957
      4          6           0       -0.676947    1.710299   -0.195303
      5          6           0       -0.073391    0.428002   -0.838087
      6          6           0        1.061833   -0.165671   -0.014357
      7          6           0        2.412881   -0.540037   -0.431108
      8          8           0        2.181357    0.581842    0.434089
      9          6           0        0.098783   -0.913484    0.918630
     10          1           0       -2.559982   -1.154799   -0.972434
     11          1           0       -2.757227    0.992791    0.047698
     12          1           0       -1.900301    0.993073    1.599469
     13          1           0       -1.066160    2.431457   -0.916040
     14          1           0        0.016655    2.230359    0.468723
     15          1           0       -0.007591    0.387647   -1.926236
     16          1           0        2.906544   -1.393647    0.033025
     17          1           0        2.760718   -0.291566   -1.433477
     18          1           0        0.205905   -2.000434    0.901961
     19          1           0        0.094314   -0.564944    1.954863
 ---------------------------------------------------------------------

 SCF Done:  E(RB3LYP) =  -423.135517660     A.U. after    1 cycles

 The electronic state is 1-A.
 Alpha  occ. eigenvalues --  -19.14537 -19.14517 -10.23922 -10.23658 -10.22846
 Alpha  occ. eigenvalues --  -10.18407 -10.18325 -10.18152 -10.17995  -1.06594
 Alpha  occ. eigenvalues --   -1.03019  -0.86167  -0.74927  -0.67798  -0.65676
 Alpha  occ. eigenvalues --   -0.61575  -0.58591  -0.53588  -0.50960  -0.49456
 Alpha  occ. eigenvalues --   -0.47270  -0.44623  -0.43327  -0.40916  -0.39835
 Alpha  occ. eigenvalues --   -0.38058  -0.36847  -0.34555  -0.33599  -0.32634
 Alpha  occ. eigenvalues --   -0.30084  -0.27423  -0.25930  -0.24702
 Alpha virt. eigenvalues --    0.06449   0.07197   0.10739   0.10773   0.11812
 Alpha virt. eigenvalues --    0.12520   0.13862   0.15183   0.15598   0.16476
 Alpha virt. eigenvalues --    0.17997   0.18925   0.20250   0.21191   0.23187

 Mulliken charges:
               1
     1  O   -0.476742
     2  C    0.427878
     3  C   -0.293442
     4  C   -0.229131
     5  C   -0.215752
     6  C    0.478553
     7  C   -0.272044
     8  O   -0.274455
     9  C   -0.364842
    10  H    0.277486
    11  H    0.089917
    12  H    0.103039
    13  H    0.102444
    14  H    0.122694
    15  H    0.066654
    16  H    0.114110
    17  H    0.113309
    18  H    0.119813
    19  H    0.110512
 Sum of Mulliken charges =   0.00000

 Dipole moment (field-independent basis, Debye):
    X=             -1.3438    Y=             -0.0164    Z=             -1.2799  Tot=              1.8559
 Quadrupole moment (field-independent basis, Debye-Ang):
   XX=            -51.5530   YY=            -56.0140   ZZ=            -50.8457
   XY=             -5.4479   XZ=              0.0628   YZ=             -0.7290

  Exact polarizability:  86.836  -5.157  71.642  -2.385  -1.696  67.365
 Approx polarizability: 115.059  -1.638 105.705  -0.732   0.562 102.687

                      1                      2                      3
                      A                      A                      A
 Frequencies --     56.5050               189.9569               250.5282
 Red. masses --      3.2220                 2.2624                 3.0138
 Frc consts  --      0.0061                 0.0481                 0.1115
 IR Inten    --      1.2986                 1.0543                 2.5064

                      4                      5                      6
                      A                      A                      A
 Frequencies --    279.7863               323.2057               358.2960
 Red. masses --      2.1789                 2.4923                 1.7076
 Frc consts  --      0.1005                 0.1534                 0.1292
 IR Inten    --     14.1485                27.4796                31.4085

                      7                      8                      9
                      A                      A                      A
 Frequencies --    385.8233               389.0697               494.4057
 Red. masses --      2.7634                 2.3870                 2.8701
 Frc consts  --      0.2424                 0.2129                 0.4133
 IR Inten    --     10.4539                28.5550                 2.6767

                     10                     11                     12
                      A                      A                      A
 Frequencies --    541.2397               633.8918               718.5990
 Red. masses --      3.6533                 3.6521                 2.7570
 Frc consts  --      0.6305                 0.8646                 0.8388
 IR Inten    --      4.3837                 6.9062                 0.6094

                     13                     14                     15
                      A                      A                      A
 Frequencies --    755.1927               825.6200               856.5148
 Red. masses --      1.2763                 2.7607                 2.6143
 Frc consts  --      0.4289                 1.1087                 1.1300
 IR Inten    --      3.4635                40.1228                 8.5403

                     16                     17                     18
                      A                      A                      A
 Frequencies --    872.0689               900.2980               931.6914
 Red. masses --      1.7897                 2.2977                 2.5729
 Frc consts  --      0.8019                 1.0973                 1.3159
 IR Inten    --      6.0323                12.3190                 1.0705

                     19                     20                     21
                      A                      A                      A
 Frequencies --    947.6280               950.7177               993.7123
 Red. masses --      2.5939                 2.3034                 2.2963
 Frc consts  --      1.3724                 1.2267                 1.3360
 IR Inten    --      2.1568                 3.1001                 9.4119

                     22                     23                     24
                      A                      A                      A
 Frequencies --   1048.1349              1064.8746              1098.8962
 Red. masses --      1.8673                 2.7966                 1.4858
 Frc consts  --      1.2086                 1.8685                 1.0571
 IR Inten    --      7.6981                14.1583                17.9565

                     25                     26                     27
                      A                      A                      A
 Frequencies --   1119.0398              1126.4606              1145.1620
 Red. masses --      1.5324                 1.2954                 1.6642
 Frc consts  --      1.1306                 0.9685                 1.2859
 IR Inten    --     29.2482                 4.7721                35.6940

                     28                     29                     30
                      A                      A                      A
 Frequencies --   1166.2886              1201.1928              1215.9615
 Red. masses --      1.4998                 2.2553                 1.3132
 Frc consts  --      1.2019                 1.9172                 1.1440
 IR Inten    --      0.2554                 7.3026                 3.9354

                     31                     32                     33
                      A                      A                      A
 Frequencies --   1234.5780              1238.9017              1264.4543
 Red. masses --      1.4552                 1.4949                 1.5621
 Frc consts  --      1.3068                 1.3519                 1.4715
 IR Inten    --      9.4050                 2.4443                12.1889

                     34                     35                     36
                      A                      A                      A
 Frequencies --   1275.4315              1319.0153              1386.1866
 Red. masses --      1.6586                 2.4990                 1.8122
 Frc consts  --      1.5897                 2.5616                 2.0517
 IR Inten    --      4.2162               136.0370                12.1968

                     37                     38                     39
                      A                      A                      A
 Frequencies --   1432.8828              1465.6989              1479.6563
 Red. masses --      1.9566                 1.2149                 1.0976
 Frc consts  --      2.3668                 1.5377                 1.4159
 IR Inten    --     23.4320                 3.6215                 0.6396

                     40                     41                     42
                      A                      A                      A
 Frequencies --   1499.9078              1534.8601              3034.6789
 Red. masses --      1.1173                 1.5771                 1.0607
 Frc consts  --      1.4810                 2.1890                 5.7552
 IR Inten    --      5.1716                 5.1174                43.1797

                     43                     44                     45
                      A                      A                      A
 Frequencies --   3061.6591              3073.9027              3074.9433
 Red. masses --      1.0590                 1.0594                 1.0503
 Frc consts  --      5.8490                 5.8978                 5.8510
 IR Inten    --     18.0220                28.1286                31.4663

                     46                     47                     48
                      A                      A                      A
 Frequencies --   3087.6541              3100.6772              3121.1389
 Red. masses --      1.1048                 1.0901                 1.1074
 Frc consts  --      6.2058                 6.1751                 6.3561
 IR Inten    --     24.3950                12.8256                 8.2350

                     49                     50                     51
                      A                      A                      A
 Frequencies --   3126.9890              3160.9150              3807.2792
 Red. masses --      1.1075                 1.1193                 1.0657
 Frc consts  --      6.3801                 6.5891                 9.1015
 IR Inten    --     29.6680                23.5798                15.8665

 - Thermochemistry -
 -------------------
 Temperature   298.150 Kelvin.  Pressure   1.00000 Atm.
 Atom     1 has atomic number  8 and mass  15.99491

 Molecular mass:   126.06808 amu.
 Principal axes and moments of inertia in atomic units:
                           1         2         3
     Eigenvalues --   604.910411263.000821545.25890
           X            0.99859  -0.05185  -0.01121
           Y            0.05162   0.99847  -0.01994
           Z            0.01223   0.01933   0.99974
 This molecule is an asymmetric top.
 Rotational symmetry number  1.
 Warning -- assumption of classical behavior for rotation
           may cause significant error
 Rotational temperatures (Kelvin)      0.14318     0.06858     0.05605
 Rotational constants (GHZ):           2.98349     1.42893     1.16792
 Zero-point vibrational energy     416433.1 (Joules/Mol)
                                   99.52989 (Kcal/Mol)
 Warning -- explicit consideration of  10 degrees of freedom as
           vibrations may cause significant error
 Vibrational temperatures:     81.30   273.31   360.45   402.55   465.02
          (Kelvin)            515.51   555.11   559.78   711.34   778.72
                              912.03  1033.90  1086.55  1187.88  1232.33
                             1254.71  1295.33  1340.49  1363.42  1367.87
                             1429.73  1508.03  1532.12  1581.06  1610.05
                             1620.72  1647.63  1678.03  1728.25  1749.50
                             1776.28  1782.50  1819.27  1835.06  1897.77
                             1994.41  2061.60  2108.81  2128.89  2158.03
                             2208.32  4366.22  4405.04  4422.65  4424.15
                             4442.44  4461.18  4490.62  4499.03  4547.85
                             5477.82

 Zero-point correction=                           0.158611 (Hartree/Particle)
 Thermal correction to Energy=                    0.166650
 Thermal correction to Enthalpy=                  0.167594
 Thermal correction to Gibbs Free Energy=         0.126029
 Sum of electronic and zero-point Energies=           -422.976907
 Sum of electronic and thermal Energies=              -422.968868
 Sum of electronic and thermal Enthalpies=            -422.967923
 Sum of electronic and thermal Free Energies=         -423.009488

                     E (Thermal)             CV                S
                      KCal/Mol        Cal/Mol-Kelvin    Cal/Mol-Kelvin
 Total                  104.574             31.928             87.481
 Electronic               0.000              0.000              0.000
 Translational            0.889              2.981             40.409
 Rotational               0.889              2.981             28.559
 Vibrational            102.797             25.967             18.514
 Vibration     1          0.596              1.975              4.576
 Vibration     2          0.633              1.854              2.228
 Vibration     3          0.663              1.762              1.727
 Vibration     4          0.680              1.711              1.535
 Vibration     5          0.708              1.629              1.294
 Vibration     6          0.733              1.558              1.129
 Vibration     7          0.755              1.500              1.016
 Vibration     8          0.757              1.494              1.004
 Vibration     9          0.850              1.262              0.672
 Vibration    10          0.896              1.159              0.563

 Optimization completed.
    -- Stationary point found.
 Normal termination of Gaussian 09 at Mon Jan 27 19:49:53 2020.
