 Gaussian 09, Revision D.01,
 Gaussian 09:  ES64L-G09RevD.01 24-Apr-2013

 -----------------------------
 # b3lyp 6-31G(2df,p) opt Freq
 -----------------------------

 -----
 titel
 -----
 Symbolic Z-matrix:
 Charge =  0 Multiplicity = 1

 SCF Done:  E(RB3LYP) =  -423.152491350     A.U. after   13 cycles
 Optimization completed.
    -- Stationary point found.
 Normal termination of Gaussian 09 at Mon Jan 27 17:58:03 2020.

 ----------------------------------------------------------------------
 #N Geom=AllCheck Guess=TCheck SCRF=Check GenChk RB3LYP/6-31G(2df,p) Fr
 eq
 ----------------------------------------------------------------------

 Structure from the checkpoint file:  "/scratch/puck/g09_0f75e0c9-57cd-4cc1-8e75-fafe3fd84819/Gau-51880.chk"
 -----
 titel
 -----
 Charge =  0 Multiplicity = 1

                         Standard orientation:
 ---------------------------------------------------------------------
 Center     Atomic      Atomic             Coordinates (Angstroms)
 Number     Number       Type             X           Y           Z
 ---------------------------------------------------------------------
      1          8           0        1.986741   -0.725318   -0.950287
      2          6           0        0.990600   -0.319810   -0.047226
      3          6           0        1.425143    0.527111    1.129497
      4          6           0        0.708694    1.151737   -0.046611
      5          8           0       -0.619971    1.538994    0.146428
      6          6           0       -1.530491    0.852860   -0.713259
      7          6           0       -1.539948   -0.639947   -0.439895
      8          6           0       -1.344037   -1.102450    0.980097
      9          6           0       -0.213483   -1.232403   -0.013630
     10          1           0        2.500631   -1.421558   -0.525984
     11          1           0        0.883423    0.451726    2.065047
     12          1           0        2.486887    0.730363    1.215898
     13          1           0        1.279829    1.780420   -0.727911
     14          1           0       -2.510009    1.299365   -0.514707
     15          1           0       -1.276106    1.042297   -1.767929
     16          1           0       -2.181726   -1.221176   -1.094738
     17          1           0       -1.279834   -0.338787    1.746604
     18          1           0       -1.831562   -2.018066    1.296196
     19          1           0        0.015444   -2.236578   -0.355448
 ---------------------------------------------------------------------

 SCF Done:  E(RB3LYP) =  -423.152491350     A.U. after    1 cycles

 The electronic state is 1-A.
 Alpha  occ. eigenvalues --  -19.14299 -19.14272 -10.23854 -10.22807 -10.22666
 Alpha  occ. eigenvalues --  -10.19236 -10.18912 -10.18332 -10.18077  -1.04300
 Alpha  occ. eigenvalues --   -1.02404  -0.86185  -0.83312  -0.69911  -0.64389
 Alpha  occ. eigenvalues --   -0.60801  -0.57934  -0.53196  -0.52897  -0.50183
 Alpha  occ. eigenvalues --   -0.48408  -0.45062  -0.43739  -0.42497  -0.40395
 Alpha  occ. eigenvalues --   -0.38019  -0.37170  -0.34811  -0.33782  -0.30534
 Alpha  occ. eigenvalues --   -0.29602  -0.26468  -0.25762  -0.23502
 Alpha virt. eigenvalues --    0.08246   0.08604   0.11300   0.11492   0.12004
 Alpha virt. eigenvalues --    0.13278   0.13647   0.16152   0.16925   0.17900
 Alpha virt. eigenvalues --    0.18228   0.19500   0.20459   0.22891   0.23723

 Mulliken charges:
               1
     1  O   -0.469951
     2  C    0.358721
     3  C   -0.377627
     4  C    0.049801
     5  O   -0.258431
     6  C   -0.097707
     7  C   -0.028253
     8  C   -0.315834
     9  C   -0.083512
    10  H    0.282037
    11  H    0.121142
    12  H    0.112164
    13  H    0.097643
    14  H    0.110219
    15  H    0.096932
    16  H    0.084986
    17  H    0.127226
    18  H    0.108491
    19  H    0.081953
 Sum of Mulliken charges =   0.00000

 Dipole moment (field-independent basis, Debye):
    X=              0.0611    Y=             -1.6706    Z=              0.3450  Tot=              1.7070
 Quadrupole moment (field-independent basis, Debye-Ang):
   XX=            -49.2822   YY=            -52.3870   ZZ=            -54.2098
   XY=             -0.6557   XZ=              3.3370   YZ=             -1.5144

  Exact polarizability:  82.479   0.853  71.176   2.877  -1.726  68.807
 Approx polarizability: 112.866  -2.716 104.115   2.027  -0.342 106.274

                      1                      2                      3
                      A                      A                      A
 Frequencies --    161.9792               222.9340               285.0359
 Red. masses --      3.0801                 3.4106                 1.7017
 Frc consts  --      0.0476                 0.0999                 0.0815
 IR Inten    --      1.9504                 4.6965                42.5050

                      4                      5                      6
                      A                      A                      A
 Frequencies --    319.4318               343.8298               365.9759
 Red. masses --      1.7180                 1.9936                 4.9863
 Frc consts  --      0.1033                 0.1389                 0.3935
 IR Inten    --     42.9600                 1.4994                10.7514

                      7                      8                      9
                      A                      A                      A
 Frequencies --    445.8360               463.4637               507.8174
 Red. masses --      3.2601                 2.5128                 4.8181
 Frc consts  --      0.3818                 0.3180                 0.7321
 IR Inten    --      1.1489                 3.6295                11.4388

                     10                     11                     12
                      A                      A                      A
 Frequencies --    528.9998               640.8345               733.3537
 Red. masses --      3.4472                 3.7293                 1.9141
 Frc consts  --      0.5684                 0.9023                 0.6065
 IR Inten    --      0.7045                 1.6484                 7.7973

                     13                     14                     15
                      A                      A                      A
 Frequencies --    798.0297               814.6793               832.9362
 Red. masses --      2.1899                 1.9840                 1.5754
 Frc consts  --      0.8217                 0.7758                 0.6440
 IR Inten    --      5.2872                 5.5873                 6.1394

                     16                     17                     18
                      A                      A                      A
 Frequencies --    876.2679               909.0806               948.1028
 Red. masses --      1.9850                 2.3377                 2.3835
 Frc consts  --      0.8980                 1.1383                 1.2624
 IR Inten    --      2.2983                10.6688                26.1409

                     19                     20                     21
                      A                      A                      A
 Frequencies --    984.5248              1003.0845              1017.7696
 Red. masses --      2.1450                 2.4728                 1.5159
 Frc consts  --      1.2250                 1.4659                 0.9252
 IR Inten    --     23.0747                 6.1794                17.5545

                     22                     23                     24
                      A                      A                      A
 Frequencies --   1041.6388              1057.1495              1081.1968
 Red. masses --      2.3615                 1.7411                 1.4288
 Frc consts  --      1.5096                 1.1464                 0.9841
 IR Inten    --      1.3034                18.8029                 0.8747

                     25                     26                     27
                      A                      A                      A
 Frequencies --   1098.9004              1113.1018              1116.0247
 Red. masses --      1.4881                 1.4862                 1.5461
 Frc consts  --      1.0588                 1.0849                 1.1346
 IR Inten    --      8.6829                11.6952                 1.7246

                     28                     29                     30
                      A                      A                      A
 Frequencies --   1130.3057              1173.3346              1198.4645
 Red. masses --      1.5473                 3.3834                 1.8696
 Frc consts  --      1.1647                 2.7444                 1.5821
 IR Inten    --      1.6249               106.5416                16.6140

                     31                     32                     33
                      A                      A                      A
 Frequencies --   1212.5990              1272.8609              1298.7615
 Red. masses --      2.0792                 1.3371                 1.2485
 Frc consts  --      1.8013                 1.2764                 1.2408
 IR Inten    --     53.9516                17.3466                14.0923

                     34                     35                     36
                      A                      A                      A
 Frequencies --   1337.1275              1372.7554              1376.3039
 Red. masses --      1.2495                 1.9580                 2.0887
 Frc consts  --      1.3163                 2.1740                 2.3310
 IR Inten    --     24.0921                 6.9650                15.3596

                     37                     38                     39
                      A                      A                      A
 Frequencies --   1412.1109              1417.5943              1478.3549
 Red. masses --      1.4621                 1.4377                 1.7196
 Frc consts  --      1.7178                 1.7022                 2.2143
 IR Inten    --      0.2249                 4.3428                13.4347

                     40                     41                     42
                      A                      A                      A
 Frequencies --   1488.7817              1501.3143              2984.4026
 Red. masses --      1.3691                 1.1245                 1.0686
 Frc consts  --      1.7879                 1.4933                 5.6075
 IR Inten    --      4.8937                 1.5265                64.0022

                     43                     44                     45
                      A                      A                      A
 Frequencies --   3074.1536              3118.4099              3136.9168
 Red. masses --      1.0944                 1.0874                 1.0549
 Frc consts  --      6.0937                 6.2303                 6.1159
 IR Inten    --     35.6088                25.6852                 7.0968

                     46                     47                     48
                      A                      A                      A
 Frequencies --   3139.4017              3152.1972              3161.7016
 Red. masses --      1.0546                 1.0875                 1.0912
 Frc consts  --      6.1242                 6.3667                 6.4267
 IR Inten    --     13.4254                14.0945                16.3212

                     49                     50                     51
                      A                      A                      A
 Frequencies --   3225.7920              3232.8705              3791.3828
 Red. masses --      1.1155                 1.1172                 1.0662
 Frc consts  --      6.8390                 6.8794                 9.0296
 IR Inten    --      8.7546                 4.8502                17.5160

 - Thermochemistry -
 -------------------
 Temperature   298.150 Kelvin.  Pressure   1.00000 Atm.
 Atom     1 has atomic number  8 and mass  15.99491

 Molecular mass:   126.06808 amu.
 Principal axes and moments of inertia in atomic units:
                           1         2         3
     Eigenvalues --   709.731041032.959021271.00964
           X            0.99908   0.03568   0.02392
           Y           -0.03487   0.99883  -0.03352
           Z           -0.02509   0.03266   0.99915
 This molecule is an asymmetric top.
 Rotational symmetry number  1.
 Warning -- assumption of classical behavior for rotation
           may cause significant error
 Rotational temperatures (Kelvin)      0.12204     0.08385     0.06815
 Rotational constants (GHZ):           2.54285     1.74716     1.41993
 Zero-point vibrational energy     421084.8 (Joules/Mol)
                                  100.64168 (Kcal/Mol)
 Warning -- explicit consideration of  10 degrees of freedom as
           vibrations may cause significant error
 Vibrational temperatures:    233.05   320.75   410.10   459.59   494.69
          (Kelvin)            526.56   641.46   666.82   730.64   761.11
                              922.02  1055.13  1148.19  1172.14  1198.41
                             1260.75  1307.96  1364.11  1416.51  1443.21
                             1464.34  1498.68  1521.00  1555.60  1581.07
                             1601.50  1605.71  1626.26  1688.16  1724.32
                             1744.66  1831.36  1868.63  1923.83  1975.09
                             1980.19  2031.71  2039.60  2127.02  2142.02
                             2160.05  4293.88  4423.02  4486.69  4513.32
                             4516.89  4535.30  4548.98  4641.19  4651.37
                             5454.95

 Zero-point correction=                           0.160383 (Hartree/Particle)
 Thermal correction to Energy=                    0.167894
 Thermal correction to Enthalpy=                  0.168838
 Thermal correction to Gibbs Free Energy=         0.129026
 Sum of electronic and zero-point Energies=           -422.992109
 Sum of electronic and thermal Energies=              -422.984598
 Sum of electronic and thermal Enthalpies=            -422.983654
 Sum of electronic and thermal Free Energies=         -423.023466

                     E (Thermal)             CV                S
                      KCal/Mol        Cal/Mol-Kelvin    Cal/Mol-Kelvin
 Total                  105.355             31.175             83.791
 Electronic               0.000              0.000              0.000
 Translational            0.889              2.981             40.409
 Rotational               0.889              2.981             28.323
 Vibrational            103.577             25.214             15.059
 Vibration     1          0.622              1.889              2.527
 Vibration     2          0.649              1.806              1.935
 Vibration     3          0.683              1.701              1.503
 Vibration     4          0.705              1.636              1.313
 Vibration     5          0.723              1.588              1.194
 Vibration     6          0.739              1.542              1.097
 Vibration     7          0.805              1.370              0.808
 Vibration     8          0.821              1.331              0.756
 Vibration     9          0.863              1.233              0.639
 Vibration    10          0.884              1.186              0.589

 Normal termination of Gaussian 09 at Mon Jan 27 18:43:53 2020.
