 Gaussian 09, Revision D.01,
 Gaussian 09:  ES64L-G09RevD.01 24-Apr-2013

 -----------------------------
 # b3lyp 6-31G(2df,p) opt Freq
 -----------------------------

 -----
 titel
 -----
 Symbolic Z-matrix:
 Charge =  0 Multiplicity = 1

 SCF Done:  E(RB3LYP) =  -423.247469348     A.U. after   13 cycles
 Optimization completed.
    -- Stationary point found.
 Normal termination of Gaussian 09 at Tue Jan 28 00:38:39 2020.

 ----------------------------------------------------------------------
 #N Geom=AllCheck Guess=TCheck SCRF=Check GenChk RB3LYP/6-31G(2df,p) Fr
 eq
 ----------------------------------------------------------------------

 Structure from the checkpoint file:  "/scratch/puck/g09_c88bfda1-f287-4082-bce1-feeda26a42de/Gau-189535.chk"
 -----
 titel
 -----
 Charge =  0 Multiplicity = 1

                         Standard orientation:
 ---------------------------------------------------------------------
 Center     Atomic      Atomic             Coordinates (Angstroms)
 Number     Number       Type             X           Y           Z
 ---------------------------------------------------------------------
      1          6           0        2.820139   -0.000125   -0.085422
      2          6           0        1.306598   -0.000042   -0.318222
      3          6           0        0.649151   -1.268292    0.265700
      4          6           0       -0.856878   -1.272946    0.054254
      5          8           0       -1.452073   -2.196629   -0.443412
      6          6           0       -1.573090    0.000073    0.506617
      7          6           0       -0.856753    1.273047    0.054327
      8          8           0       -1.451832    2.196719   -0.443500
      9          6           0        0.649274    1.268245    0.265785
     10          1           0        3.286681   -0.885302   -0.528892
     11          1           0        3.286767    0.885041   -0.528822
     12          1           0        3.050957   -0.000179    0.986261
     13          1           0        1.127288    0.000004   -1.402508
     14          1           0        1.061926   -2.176428   -0.179769
     15          1           0        0.846850   -1.303667    1.347675
     16          1           0       -2.609176    0.000127    0.167986
     17          1           0       -1.559826    0.000043    1.606997
     18          1           0        1.062143    2.176359   -0.179639
     19          1           0        0.846980    1.303529    1.347759
 ---------------------------------------------------------------------

 SCF Done:  E(RB3LYP) =  -423.247469348     A.U. after    1 cycles

 The electronic state is 1-A.
 Alpha  occ. eigenvalues --  -19.13849 -19.13849 -10.28084 -10.28083 -10.21805
 Alpha  occ. eigenvalues --  -10.20333 -10.20263 -10.20262 -10.19283  -1.05163
 Alpha  occ. eigenvalues --   -1.04790  -0.84792  -0.77435  -0.73804  -0.70603
 Alpha  occ. eigenvalues --   -0.60021  -0.56736  -0.54065  -0.49354  -0.47382
 Alpha  occ. eigenvalues --   -0.47183  -0.45451  -0.44735  -0.42136  -0.41713
 Alpha  occ. eigenvalues --   -0.39873  -0.39740  -0.37650  -0.36911  -0.36596
 Alpha  occ. eigenvalues --   -0.34371  -0.34350  -0.26089  -0.24455
 Alpha virt. eigenvalues --   -0.03471  -0.00842   0.07262   0.10006   0.11525
 Alpha virt. eigenvalues --    0.13025   0.13125   0.13872   0.14665   0.15881
 Alpha virt. eigenvalues --    0.16417   0.16796   0.19950   0.20706   0.21501

 Mulliken charges:
               1
     1  C   -0.400021
     2  C    0.001758
     3  C   -0.295349
     4  C    0.367494
     5  O   -0.292858
     6  C   -0.387638
     7  C    0.367485
     8  O   -0.292854
     9  C   -0.295350
    10  H    0.122748
    11  H    0.122748
    12  H    0.117745
    13  H    0.099790
    14  H    0.125247
    15  H    0.114141
    16  H    0.144543
    17  H    0.140990
    18  H    0.125247
    19  H    0.114135
 Sum of Mulliken charges =   0.00000

 Dipole moment (field-independent basis, Debye):
    X=              3.1104    Y=             -0.0001    Z=              2.0350  Tot=              3.7170
 Quadrupole moment (field-independent basis, Debye-Ang):
   XX=            -55.4473   YY=            -64.6778   ZZ=            -51.2370
   XY=             -0.0007   XZ=             -3.3701   YZ=              0.0006

  Exact polarizability:  86.038   0.000  83.661   1.394   0.000  61.385
 Approx polarizability: 113.454   0.001 129.819   7.165  -0.001 101.688

                      1                      2                      3
                      A                      A                      A
 Frequencies --     90.8343                93.1313               130.3906
 Red. masses --      5.1602                 3.3314                 3.0558
 Frc consts  --      0.0251                 0.0170                 0.0306
 IR Inten    --      5.0468                 0.0078                 3.2558

                      4                      5                      6
                      A                      A                      A
 Frequencies --    237.8487               277.4432               374.6268
 Red. masses --      1.0790                 2.4925                 3.2773
 Frc consts  --      0.0360                 0.1130                 0.2710
 IR Inten    --      0.0810                 1.2910                 2.7561

                      7                      8                      9
                      A                      A                      A
 Frequencies --    377.9757               381.9445               448.1015
 Red. masses --      3.5819                 3.5634                 1.6105
 Frc consts  --      0.3015                 0.3063                 0.1905
 IR Inten    --      6.9999                 0.1841                 0.4662

                     10                     11                     12
                      A                      A                      A
 Frequencies --    465.6404               550.5111               586.4905
 Red. masses --      2.9173                 3.8527                 3.8545
 Frc consts  --      0.3727                 0.6879                 0.7812
 IR Inten    --     13.5220                 5.9460                10.3818

                     13                     14                     15
                      A                      A                      A
 Frequencies --    619.9994               809.8913               821.6066
 Red. masses --      4.6169                 1.6495                 2.8132
 Frc consts  --      1.0456                 0.6374                 1.1188
 IR Inten    --      3.4802                 2.8941                 6.5917

                     16                     17                     18
                      A                      A                      A
 Frequencies --    842.7444               856.4116               904.4557
 Red. masses --      3.3833                 1.4860                 2.8356
 Frc consts  --      1.4157                 0.6422                 1.3667
 IR Inten    --      2.0355                 0.2978                 2.0381

                     19                     20                     21
                      A                      A                      A
 Frequencies --    965.0194               970.1504              1033.6451
 Red. masses --      1.6591                 1.6032                 1.2878
 Frc consts  --      0.9103                 0.8890                 0.8107
 IR Inten    --      0.6522                 0.0446                 9.9030

                     22                     23                     24
                      A                      A                      A
 Frequencies --   1076.9865              1116.5307              1124.0822
 Red. masses --      2.6899                 2.2072                 2.2788
 Frc consts  --      1.8382                 1.6212                 1.6965
 IR Inten    --      1.1309                 0.5370                12.0728

                     25                     26                     27
                      A                      A                      A
 Frequencies --   1190.0718              1214.0314              1230.4546
 Red. masses --      1.4398                 1.8383                 2.5532
 Frc consts  --      1.2015                 1.5964                 2.2776
 IR Inten    --     31.4745                28.6725                71.8681

                     28                     29                     30
                      A                      A                      A
 Frequencies --   1242.1264              1288.5044              1291.7354
 Red. masses --      1.4997                 1.5969                 1.4774
 Frc consts  --      1.3633                 1.5621                 1.4525
 IR Inten    --      8.6135                37.3652                 0.0733

                     31                     32                     33
                      A                      A                      A
 Frequencies --   1301.7218              1361.4390              1377.1102
 Red. masses --      1.4487                 1.3268                 1.5601
 Frc consts  --      1.4463                 1.4490                 1.7432
 IR Inten    --     15.3127                12.7446                17.2966

                     34                     35                     36
                      A                      A                      A
 Frequencies --   1413.2933              1436.7492              1459.6803
 Red. masses --      1.2235                 1.0894                 1.0920
 Frc consts  --      1.4398                 1.3250                 1.3709
 IR Inten    --      0.8073                11.2376                 2.5290

                     37                     38                     39
                      A                      A                      A
 Frequencies --   1472.4178              1497.0825              1497.5183
 Red. masses --      1.0913                 1.0546                 1.0429
 Frc consts  --      1.3939                 1.3926                 1.3780
 IR Inten    --      7.6198                 1.6019                 7.8007

                     40                     41                     42
                      A                      A                      A
 Frequencies --   1811.9675              1835.0783              2999.0123
 Red. masses --     10.6460                12.0196                 1.0731
 Frc consts  --     20.5938                23.8478                 5.6867
 IR Inten    --    296.1689               143.7164                 0.3084

                     43                     44                     45
                      A                      A                      A
 Frequencies --   3005.8584              3014.2422              3021.0320
 Red. masses --      1.0673                 1.0703                 1.0706
 Frc consts  --      5.6816                 5.7297                 5.7568
 IR Inten    --      3.2693                 2.6802                22.8454

                     46                     47                     48
                      A                      A                      A
 Frequencies --   3030.6059              3097.6663              3105.6637
 Red. masses --      1.0383                 1.1001                 1.0969
 Frc consts  --      5.6188                 6.2197                 6.2333
 IR Inten    --     29.8172                20.9001                 0.2542

                     49                     50                     51
                      A                      A                      A
 Frequencies --   3108.9955              3109.3441              3142.3660
 Red. masses --      1.0987                 1.0954                 1.0941
 Frc consts  --      6.2568                 6.2398                 6.3652
 IR Inten    --     35.9880                17.9790                 3.5933

 - Thermochemistry -
 -------------------
 Temperature   298.150 Kelvin.  Pressure   1.00000 Atm.
 Atom     1 has atomic number  6 and mass  12.00000

 Molecular mass:   126.06808 amu.
 Principal axes and moments of inertia in atomic units:
                           1         2         3
     Eigenvalues --   959.365841098.779221899.31818
           X            0.99994  -0.00003  -0.01082
           Y            0.00003   1.00000   0.00000
           Z            0.01082   0.00000   0.99994
 This molecule is an asymmetric top.
 Rotational symmetry number  1.
 Warning -- assumption of classical behavior for rotation
           may cause significant error
 Rotational temperatures (Kelvin)      0.09028     0.07883     0.04560
 Rotational constants (GHZ):           1.88118     1.64250     0.95020
 Zero-point vibrational energy     416971.7 (Joules/Mol)
                                   99.65864 (Kcal/Mol)
 Warning -- explicit consideration of  13 degrees of freedom as
           vibrations may cause significant error
 Vibrational temperatures:    130.69   134.00   187.60   342.21   399.18
          (Kelvin)            539.00   543.82   549.53   644.72   669.95
                              792.06   843.83   892.04  1165.25  1182.11
                             1212.52  1232.18  1301.31  1388.45  1395.83
                             1487.18  1549.54  1606.44  1617.30  1712.25
                             1746.72  1770.35  1787.14  1853.87  1858.52
                             1872.89  1958.80  1981.35  2033.41  2067.16
                             2100.15  2118.48  2153.97  2154.59  2607.01
                             2640.27  4314.90  4324.75  4336.82  4346.59
                             4360.36  4456.85  4468.35  4473.15  4473.65
                             4521.16

 Zero-point correction=                           0.158816 (Hartree/Particle)
 Thermal correction to Energy=                    0.167467
 Thermal correction to Enthalpy=                  0.168412
 Thermal correction to Gibbs Free Energy=         0.125235
 Sum of electronic and zero-point Energies=           -423.088653
 Sum of electronic and thermal Energies=              -423.080002
 Sum of electronic and thermal Enthalpies=            -423.079058
 Sum of electronic and thermal Free Energies=         -423.122235

                     E (Thermal)             CV                S
                      KCal/Mol        Cal/Mol-Kelvin    Cal/Mol-Kelvin
 Total                  105.087             32.631             90.874
 Electronic               0.000              0.000              0.000
 Translational            0.889              2.981             40.409
 Rotational               0.889              2.981             29.083
 Vibrational            103.310             26.669             21.382
 Vibration     1          0.602              1.956              3.642
 Vibration     2          0.602              1.954              3.593
 Vibration     3          0.612              1.923              2.940
 Vibration     4          0.656              1.783              1.819
 Vibration     5          0.678              1.715              1.549
 Vibration     6          0.746              1.524              1.061
 Vibration     7          0.748              1.517              1.047
 Vibration     8          0.751              1.509              1.031
 Vibration     9          0.807              1.365              0.802
 Vibration    10          0.823              1.326              0.750
 Vibration    11          0.906              1.139              0.543
 Vibration    12          0.944              1.061              0.473
 Vibration    13          0.980              0.990              0.417

 Optimization completed.
    -- Stationary point found.
 Normal termination of Gaussian 09 at Tue Jan 28 01:20:02 2020.
