 Gaussian 09, Revision D.01,
 Gaussian 09:  ES64L-G09RevD.01 24-Apr-2013

 -----------------------------
 # b3lyp 6-31G(2df,p) opt Freq
 -----------------------------

 -----
 titel
 -----
 Symbolic Z-matrix:
 Charge =  0 Multiplicity = 1

 SCF Done:  E(RB3LYP) =  -423.179673044     A.U. after   14 cycles
 Optimization completed.
    -- Stationary point found.
 Normal termination of Gaussian 09 at Tue Jan 28 04:02:25 2020.

 ----------------------------------------------------------------------
 #N Geom=AllCheck Guess=TCheck SCRF=Check GenChk RB3LYP/6-31G(2df,p) Fr
 eq
 ----------------------------------------------------------------------

 Structure from the checkpoint file:  "/scratch/puck/g09_516af43e-c4a6-4673-a5ee-ff0c9ec02570/Gau-175719.chk"
 -----
 titel
 -----
 Charge =  0 Multiplicity = 1

                         Standard orientation:
 ---------------------------------------------------------------------
 Center     Atomic      Atomic             Coordinates (Angstroms)
 Number     Number       Type             X           Y           Z
 ---------------------------------------------------------------------
      1          8           0       -1.724402    1.728360    0.130073
      2          6           0       -1.499505    0.381966    0.456626
      3          6           0       -2.170513   -0.750925   -0.359809
      4          6           0       -0.870573   -1.581034   -0.173857
      5          6           0       -0.117336   -0.267815    0.164786
      6          6           0        0.764505    0.363243   -0.958034
      7          6           0        1.982316    0.126372   -0.049853
      8          8           0        3.163763    0.130144   -0.234408
      9          6           0        1.086077   -0.227713    1.145625
     10          1           0       -1.700140    1.812654   -0.829111
     11          1           0       -1.736661    0.293156    1.522442
     12          1           0       -3.112880   -1.162474    0.007117
     13          1           0       -2.303286   -0.449672   -1.405228
     14          1           0       -0.930600   -2.247432    0.691519
     15          1           0       -0.511994   -2.155056   -1.031332
     16          1           0        0.788490   -0.112480   -1.942379
     17          1           0        0.576802    1.437157   -1.081619
     18          1           0        1.341179   -1.145101    1.684118
     19          1           0        1.024373    0.596649    1.866257
 ---------------------------------------------------------------------

 SCF Done:  E(RB3LYP) =  -423.179673044     A.U. after    1 cycles

 The electronic state is 1-A.
 Alpha  occ. eigenvalues --  -19.14883 -19.13567 -10.27074 -10.23842 -10.20408
 Alpha  occ. eigenvalues --  -10.19407 -10.19365 -10.19144 -10.19063  -1.04489
 Alpha  occ. eigenvalues --   -1.03168  -0.87047  -0.80312  -0.68625  -0.66119
 Alpha  occ. eigenvalues --   -0.63591  -0.56637  -0.53007  -0.50224  -0.48436
 Alpha  occ. eigenvalues --   -0.47811  -0.43418  -0.42528  -0.42257  -0.41162
 Alpha  occ. eigenvalues --   -0.39777  -0.38702  -0.37014  -0.35340  -0.32340
 Alpha  occ. eigenvalues --   -0.31966  -0.30064  -0.26779  -0.24185
 Alpha virt. eigenvalues --   -0.01882   0.06410   0.08610   0.08976   0.10149
 Alpha virt. eigenvalues --    0.12760   0.13414   0.14998   0.15706   0.17014
 Alpha virt. eigenvalues --    0.17923   0.19212   0.19468   0.20109   0.23238

 Mulliken charges:
               1
     1  O   -0.426196
     2  C    0.093625
     3  C   -0.264742
     4  C   -0.292871
     5  C    0.310071
     6  C   -0.418810
     7  C    0.408999
     8  O   -0.289059
     9  C   -0.431858
    10  H    0.281603
    11  H    0.094681
    12  H    0.107180
    13  H    0.097197
    14  H    0.108917
    15  H    0.107072
    16  H    0.125137
    17  H    0.127005
    18  H    0.126447
    19  H    0.135599
 Sum of Mulliken charges =   0.00000

 Dipole moment (field-independent basis, Debye):
    X=             -2.6807    Y=             -1.0170    Z=             -0.5436  Tot=              2.9182
 Quadrupole moment (field-independent basis, Debye-Ang):
   XX=            -66.4132   YY=            -53.8620   ZZ=            -49.4918
   XY=              1.4848   XZ=              3.1726   YZ=             -2.7383

  Exact polarizability:  87.641   1.575  68.818   0.489  -2.624  71.361
 Approx polarizability: 121.203  -0.610 102.220  -1.847  -3.824 108.958

                      1                      2                      3
                      A                      A                      A
 Frequencies --     51.7940               112.3963               185.7314
 Red. masses --      5.0544                 2.3863                 3.2350
 Frc consts  --      0.0080                 0.0178                 0.0658
 IR Inten    --      4.9692                 0.5946                 3.3519

                      4                      5                      6
                      A                      A                      A
 Frequencies --    233.6953               313.3460               330.0867
 Red. masses --      3.7833                 1.3721                 1.5893
 Frc consts  --      0.1217                 0.0794                 0.1020
 IR Inten    --      2.6232                76.8066                35.3288

                      7                      8                      9
                      A                      A                      A
 Frequencies --    391.8365               416.8800               456.9857
 Red. masses --      2.4910                 2.3545                 3.2306
 Frc consts  --      0.2253                 0.2411                 0.3975
 IR Inten    --      3.2358                 8.7236                 4.6958

                     10                     11                     12
                      A                      A                      A
 Frequencies --    509.3890               552.7579               659.8837
 Red. masses --      3.1062                 3.0982                 2.4211
 Frc consts  --      0.4749                 0.5577                 0.6212
 IR Inten    --      6.8748                 3.3217                 1.2726

                     13                     14                     15
                      A                      A                      A
 Frequencies --    675.7595               727.9171               780.5185
 Red. masses --      1.5749                 2.6643                 1.5333
 Frc consts  --      0.4237                 0.8318                 0.5503
 IR Inten    --      0.3951                 1.3459                 3.0711

                     16                     17                     18
                      A                      A                      A
 Frequencies --    855.1748               869.2217               914.0072
 Red. masses --      2.3577                 1.9956                 3.8016
 Frc consts  --      1.0159                 0.8884                 1.8712
 IR Inten    --      9.1223                 1.7685                 2.3450

                     19                     20                     21
                      A                      A                      A
 Frequencies --    936.0931               965.9797              1014.1733
 Red. masses --      2.5940                 1.9441                 1.2325
 Frc consts  --      1.3393                 1.0688                 0.7469
 IR Inten    --      0.9813                 9.3241                 4.2343

                     22                     23                     24
                      A                      A                      A
 Frequencies --   1052.1854              1078.5565              1106.9787
 Red. masses --      2.6304                 1.6449                 2.9786
 Frc consts  --      1.7157                 1.1274                 2.1505
 IR Inten    --     53.1147                32.7842                18.4350

                     25                     26                     27
                      A                      A                      A
 Frequencies --   1126.5852              1159.0863              1162.1079
 Red. masses --      2.4802                 2.2592                 1.9595
 Frc consts  --      1.8546                 1.7883                 1.5591
 IR Inten    --     41.1994                51.9323                11.7677

                     28                     29                     30
                      A                      A                      A
 Frequencies --   1192.8746              1210.4840              1234.1100
 Red. masses --      1.4678                 1.5051                 1.3315
 Frc consts  --      1.2306                 1.2994                 1.1948
 IR Inten    --      4.1413                10.3947                 1.5026

                     31                     32                     33
                      A                      A                      A
 Frequencies --   1244.1781              1261.7243              1286.1441
 Red. masses --      1.3763                 1.6262                 2.2396
 Frc consts  --      1.2553                 1.5253                 2.1827
 IR Inten    --      3.5588                 6.9819                 4.3169

                     34                     35                     36
                      A                      A                      A
 Frequencies --   1297.1845              1321.2932              1419.7303
 Red. masses --      1.7861                 1.5655                 1.0901
 Frc consts  --      1.7708                 1.6103                 1.2946
 IR Inten    --      1.4292                 3.7158                14.9892

                     37                     38                     39
                      A                      A                      A
 Frequencies --   1429.7005              1439.4459              1479.2908
 Red. masses --      1.2155                 1.1198                 1.0874
 Frc consts  --      1.4638                 1.3670                 1.4020
 IR Inten    --     53.6766                 0.9050                 3.8509

                     40                     41                     42
                      A                      A                      A
 Frequencies --   1495.4563              1895.5496              3033.7812
 Red. masses --      1.1369                12.6154                 1.0595
 Frc consts  --      1.4980                26.7068                 5.7453
 IR Inten    --      5.8450               316.9136                10.6010

                     43                     44                     45
                      A                      A                      A
 Frequencies --   3041.4803              3043.6495              3054.8939
 Red. masses --      1.0622                 1.0649                 1.0741
 Frc consts  --      5.7896                 5.8125                 5.9061
 IR Inten    --     16.7430                12.7921                25.5255

                     46                     47                     48
                      A                      A                      A
 Frequencies --   3059.2146              3100.3583              3101.9799
 Red. masses --      1.0670                 1.1036                 1.1027
 Frc consts  --      5.8837                 6.2500                 6.2513
 IR Inten    --     26.7468                 9.8062                 2.6706

                     49                     50                     51
                      A                      A                      A
 Frequencies --   3105.7737              3117.6730              3807.9041
 Red. masses --      1.1043                 1.1057                 1.0658
 Frc consts  --      6.2761                 6.3320                 9.1050
 IR Inten    --     15.3797                45.2762                14.5119

 - Thermochemistry -
 -------------------
 Temperature   298.150 Kelvin.  Pressure   1.00000 Atm.
 Atom     1 has atomic number  8 and mass  15.99491

 Molecular mass:   126.06808 amu.
 Principal axes and moments of inertia in atomic units:
                           1         2         3
     Eigenvalues --   566.936331589.373671795.59306
           X            0.99983   0.01506   0.01086
           Y           -0.01470   0.99938  -0.03187
           Z           -0.01133   0.03170   0.99943
 This molecule is an asymmetric top.
 Rotational symmetry number  1.
 Warning -- assumption of classical behavior for rotation
           may cause significant error
 Rotational temperatures (Kelvin)      0.15278     0.05450     0.04824
 Rotational constants (GHZ):           3.18332     1.13550     1.00509
 Zero-point vibrational energy     414583.8 (Joules/Mol)
                                   99.08791 (Kcal/Mol)
 Warning -- explicit consideration of  11 degrees of freedom as
           vibrations may cause significant error
 Vibrational temperatures:     74.52   161.71   267.23   336.24   450.83
          (Kelvin)            474.92   563.76   599.80   657.50   732.90
                              795.29   949.42   972.27  1047.31  1122.99
                             1230.40  1250.61  1315.05  1346.83  1389.83
                             1459.17  1513.86  1551.80  1592.69  1620.90
                             1667.66  1672.01  1716.28  1741.61  1775.61
                             1790.09  1815.34  1850.47  1866.36  1901.04
                             2042.67  2057.02  2071.04  2128.37  2151.63
                             2727.27  4364.93  4376.01  4379.13  4395.31
                             4401.52  4460.72  4463.05  4468.51  4485.63
                             5478.72

 Zero-point correction=                           0.157907 (Hartree/Particle)
 Thermal correction to Energy=                    0.166457
 Thermal correction to Enthalpy=                  0.167401
 Thermal correction to Gibbs Free Energy=         0.124408
 Sum of electronic and zero-point Energies=           -423.021766
 Sum of electronic and thermal Energies=              -423.013216
 Sum of electronic and thermal Enthalpies=            -423.012272
 Sum of electronic and thermal Free Energies=         -423.055265

                     E (Thermal)             CV                S
                      KCal/Mol        Cal/Mol-Kelvin    Cal/Mol-Kelvin
 Total                  104.453             32.944             90.487
 Electronic               0.000              0.000              0.000
 Translational            0.889              2.981             40.409
 Rotational               0.889              2.981             28.872
 Vibrational            102.676             26.982             21.207
 Vibration     1          0.596              1.977              4.748
 Vibration     2          0.607              1.939              3.227
 Vibration     3          0.632              1.859              2.270
 Vibration     4          0.654              1.789              1.850
 Vibration     5          0.701              1.648              1.345
 Vibration     6          0.713              1.615              1.260
 Vibration     7          0.759              1.488              0.993
 Vibration     8          0.780              1.434              0.903
 Vibration     9          0.815              1.345              0.775
 Vibration    10          0.865              1.229              0.635
 Vibration    11          0.908              1.134              0.538

 Optimization completed.
    -- Stationary point found.
 Normal termination of Gaussian 09 at Tue Jan 28 04:36:31 2020.
