 Gaussian 09, Revision D.01,
 Gaussian 09:  ES64L-G09RevD.01 24-Apr-2013

 -----------------------------
 # b3lyp 6-31G(2df,p) opt Freq
 -----------------------------

 -----
 titel
 -----
 Symbolic Z-matrix:
 Charge =  0 Multiplicity = 1

 SCF Done:  E(RB3LYP) =  -423.174769541     A.U. after   13 cycles
 Optimization completed.
    -- Stationary point found.
 Normal termination of Gaussian 09 at Mon Jan 27 23:54:01 2020.

 ----------------------------------------------------------------------
 #N Geom=AllCheck Guess=TCheck SCRF=Check GenChk RB3LYP/6-31G(2df,p) Fr
 eq
 ----------------------------------------------------------------------

 Structure from the checkpoint file:  "/scratch/puck/g09_144fe75c-fbbe-4c10-ad09-c34f4ed639b4/Gau-78269.chk"
 -----
 titel
 -----
 Charge =  0 Multiplicity = 1

                         Standard orientation:
 ---------------------------------------------------------------------
 Center     Atomic      Atomic             Coordinates (Angstroms)
 Number     Number       Type             X           Y           Z
 ---------------------------------------------------------------------
      1          8           0       -2.744895   -0.707926   -0.321943
      2          6           0       -1.482718   -0.116535   -0.445730
      3          6           0       -0.863246    0.576613    0.742989
      4          6           0        0.011401    1.800070    0.536934
      5          6           0        1.186232    1.556859   -0.373353
      6          6           0        1.604917    0.357956   -0.779561
      7          6           0        1.000299   -0.950793   -0.338558
      8          8           0        1.902057   -1.627117    0.549593
      9          6           0       -0.369848   -0.792249    0.291601
     10          1           0       -3.403588   -0.005476   -0.336430
     11          1           0       -1.255516    0.289660   -1.432988
     12          1           0       -1.482142    0.582563    1.635278
     13          1           0       -0.586171    2.636118    0.145007
     14          1           0        0.390606    2.153929    1.507345
     15          1           0        1.725922    2.444185   -0.697900
     16          1           0        2.482981    0.276861   -1.414743
     17          1           0        0.925831   -1.631992   -1.195552
     18          1           0        2.095787   -1.014999    1.268635
     19          1           0       -0.673221   -1.642033    0.894227
 ---------------------------------------------------------------------

 SCF Done:  E(RB3LYP) =  -423.174769541     A.U. after    1 cycles

 The electronic state is 1-A.
 Alpha  occ. eigenvalues --  -19.14051 -19.12940 -10.23222 -10.23001 -10.19521
 Alpha  occ. eigenvalues --  -10.19106 -10.19013 -10.18326 -10.18095  -1.02521
 Alpha  occ. eigenvalues --   -1.01006  -0.86403  -0.78447  -0.73540  -0.65575
 Alpha  occ. eigenvalues --   -0.59833  -0.58646  -0.53482  -0.52096  -0.48308
 Alpha  occ. eigenvalues --   -0.47011  -0.44508  -0.43207  -0.42468  -0.40559
 Alpha  occ. eigenvalues --   -0.39078  -0.37742  -0.34119  -0.33311  -0.30995
 Alpha  occ. eigenvalues --   -0.28554  -0.26632  -0.26219  -0.23691
 Alpha virt. eigenvalues --    0.01160   0.08135   0.08871   0.10714   0.11445
 Alpha virt. eigenvalues --    0.12071   0.14044   0.15289   0.16081   0.17095
 Alpha virt. eigenvalues --    0.18452   0.19571   0.20777   0.23445   0.24121

 Mulliken charges:
               1
     1  O   -0.426858
     2  C    0.077045
     3  C   -0.097761
     4  C   -0.287989
     5  C   -0.049036
     6  C   -0.102495
     7  C    0.073630
     8  O   -0.429602
     9  C   -0.090707
    10  H    0.284058
    11  H    0.086202
    12  H    0.086905
    13  H    0.105973
    14  H    0.113089
    15  H    0.092060
    16  H    0.093885
    17  H    0.094619
    18  H    0.273554
    19  H    0.103426
 Sum of Mulliken charges =   0.00000

 Dipole moment (field-independent basis, Debye):
    X=             -0.5758    Y=              3.0013    Z=              0.3662  Tot=              3.0779
 Quadrupole moment (field-independent basis, Debye-Ang):
   XX=            -52.0753   YY=            -56.0826   ZZ=            -50.7373
   XY=             -0.9652   XZ=              0.0156   YZ=              0.4710

  Exact polarizability:  80.796  -3.104  83.752  -3.832   3.314  64.404
 Approx polarizability: 108.735 -10.486 131.029  -3.400   8.355 100.440

                      1                      2                      3
                      A                      A                      A
 Frequencies --     84.0668               177.5252               237.1889
 Red. masses --      3.4136                 3.4006                 2.9185
 Frc consts  --      0.0142                 0.0631                 0.0967
 IR Inten    --      0.2007                 0.9274                12.7360

                      4                      5                      6
                      A                      A                      A
 Frequencies --    249.4308               298.5366               317.9065
 Red. masses --      2.4068                 2.1806                 1.1869
 Frc consts  --      0.0882                 0.1145                 0.0707
 IR Inten    --     12.0864                 3.4205                62.0280

                      7                      8                      9
                      A                      A                      A
 Frequencies --    340.1654               398.8553               416.0278
 Red. masses --      1.4127                 4.4599                 4.6341
 Frc consts  --      0.0963                 0.4180                 0.4726
 IR Inten    --     99.5030                 9.4084                17.9158

                     10                     11                     12
                      A                      A                      A
 Frequencies --    514.5798               552.4915               589.0064
 Red. masses --      3.1704                 5.1241                 2.7450
 Frc consts  --      0.4946                 0.9215                 0.5611
 IR Inten    --      4.5404                 0.7104                 1.7286

                     13                     14                     15
                      A                      A                      A
 Frequencies --    734.0753               783.2989               835.7670
 Red. masses --      1.6740                 3.7303                 2.4056
 Frc consts  --      0.5315                 1.3485                 0.9900
 IR Inten    --     11.0708                 8.7565                16.0475

                     16                     17                     18
                      A                      A                      A
 Frequencies --    877.2807               904.5796               951.0291
 Red. masses --      2.4846                 2.4484                 3.3515
 Frc consts  --      1.1266                 1.1804                 1.7860
 IR Inten    --     10.6547                 5.9406                16.7810

                     19                     20                     21
                      A                      A                      A
 Frequencies --    963.0858               997.9532              1013.5698
 Red. masses --      2.2242                 1.7186                 1.5511
 Frc consts  --      1.2155                 1.0084                 0.9388
 IR Inten    --      5.5314                 9.7822                32.3416

                     22                     23                     24
                      A                      A                      A
 Frequencies --   1031.0499              1077.2096              1078.1284
 Red. masses --      2.3679                 1.8570                 1.8707
 Frc consts  --      1.4831                 1.2696                 1.2811
 IR Inten    --     66.2758                19.3760                11.2900

                     25                     26                     27
                      A                      A                      A
 Frequencies --   1097.7827              1128.9194              1148.6666
 Red. masses --      1.1951                 1.5334                 2.2377
 Frc consts  --      0.8486                 1.1514                 1.7396
 IR Inten    --      0.1109                 3.6750                48.1584

                     28                     29                     30
                      A                      A                      A
 Frequencies --   1195.0642              1208.3155              1237.8837
 Red. masses --      1.4587                 1.2414                 1.1636
 Frc consts  --      1.2274                 1.0678                 1.0506
 IR Inten    --      1.5478                21.2257                 2.3554

                     31                     32                     33
                      A                      A                      A
 Frequencies --   1260.1367              1294.1846              1328.3582
 Red. masses --      1.2569                 1.1948                 1.6110
 Frc consts  --      1.1760                 1.1790                 1.6748
 IR Inten    --     14.8771                51.8668                 9.1029

                     34                     35                     36
                      A                      A                      A
 Frequencies --   1334.3346              1365.8733              1376.5673
 Red. masses --      1.4184                 2.0241                 1.5295
 Frc consts  --      1.4879                 2.2249                 1.7076
 IR Inten    --     14.0175                12.8412                 3.8416

                     37                     38                     39
                      A                      A                      A
 Frequencies --   1408.3869              1429.5601              1475.2736
 Red. masses --      1.2582                 1.4158                 1.5203
 Frc consts  --      1.4704                 1.7048                 1.9494
 IR Inten    --     28.4637                39.5458                11.1024

                     40                     41                     42
                      A                      A                      A
 Frequencies --   1484.1893              1721.0707              2992.2922
 Red. masses --      1.5398                 6.6183                 1.0598
 Frc consts  --      1.9985                11.5503                 5.5910
 IR Inten    --      8.2909                 3.7396                44.7219

                     43                     44                     45
                      A                      A                      A
 Frequencies --   3009.4962              3028.9518              3085.9560
 Red. masses --      1.0998                 1.0837                 1.0870
 Frc consts  --      5.8688                 5.8580                 6.0989
 IR Inten    --     23.9060                33.8331                24.6859

                     46                     47                     48
                      A                      A                      A
 Frequencies --   3141.9172              3151.0417              3169.8832
 Red. masses --      1.0845                 1.0879                 1.0932
 Frc consts  --      6.3074                 6.3641                 6.4718
 IR Inten    --     11.9390                14.5891                32.8955

                     49                     50                     51
                      A                      A                      A
 Frequencies --   3171.7395              3797.9705              3801.7254
 Red. masses --      1.0909                 1.0660                 1.0662
 Frc consts  --      6.4659                 9.0594                 9.0791
 IR Inten    --      1.5087                11.5200                17.7340

 - Thermochemistry -
 -------------------
 Temperature   298.150 Kelvin.  Pressure   1.00000 Atm.
 Atom     1 has atomic number  8 and mass  15.99491

 Molecular mass:   126.06808 amu.
 Principal axes and moments of inertia in atomic units:
                           1         2         3
     Eigenvalues --   752.671711249.732821689.27554
           X            0.99994   0.00349  -0.01032
           Y           -0.00339   0.99994   0.01024
           Z            0.01035  -0.01020   0.99989
 This molecule is an asymmetric top.
 Rotational symmetry number  1.
 Warning -- assumption of classical behavior for rotation
           may cause significant error
 Rotational temperatures (Kelvin)      0.11508     0.06931     0.05127
 Rotational constants (GHZ):           2.39778     1.44410     1.06835
 Zero-point vibrational energy     420298.1 (Joules/Mol)
                                  100.45365 (Kcal/Mol)
 Warning -- explicit consideration of  12 degrees of freedom as
           vibrations may cause significant error
 Vibrational temperatures:    120.95   255.42   341.26   358.87   429.53
          (Kelvin)            457.40   489.42   573.86   598.57   740.36
                              794.91   847.45  1056.17  1126.99  1202.48
                             1262.21  1301.49  1368.32  1385.66  1435.83
                             1458.30  1483.45  1549.86  1551.18  1579.46
                             1624.26  1652.67  1719.43  1738.49  1781.04
                             1813.05  1862.04  1911.21  1919.81  1965.18
                             1980.57  2026.35  2056.82  2122.59  2135.41
                             2476.23  4305.24  4329.99  4357.98  4440.00
                             4520.51  4533.64  4560.75  4563.42  5464.43
                             5469.83

 Zero-point correction=                           0.160083 (Hartree/Particle)
 Thermal correction to Energy=                    0.168448
 Thermal correction to Enthalpy=                  0.169392
 Thermal correction to Gibbs Free Energy=         0.127337
 Sum of electronic and zero-point Energies=           -423.014686
 Sum of electronic and thermal Energies=              -423.006322
 Sum of electronic and thermal Enthalpies=            -423.005378
 Sum of electronic and thermal Free Energies=         -423.047433

                     E (Thermal)             CV                S
                      KCal/Mol        Cal/Mol-Kelvin    Cal/Mol-Kelvin
 Total                  105.703             32.750             88.512
 Electronic               0.000              0.000              0.000
 Translational            0.889              2.981             40.409
 Rotational               0.889              2.981             28.854
 Vibrational            103.925             26.789             19.250
 Vibration     1          0.601              1.960              3.794
 Vibration     2          0.628              1.870              2.354
 Vibration     3          0.656              1.784              1.824
 Vibration     4          0.662              1.764              1.735
 Vibration     5          0.692              1.676              1.425
 Vibration     6          0.704              1.639              1.321
 Vibration     7          0.720              1.595              1.211
 Vibration     8          0.765              1.473              0.967
 Vibration     9          0.779              1.435              0.906
 Vibration    10          0.870              1.218              0.623
 Vibration    11          0.908              1.134              0.539
 Vibration    12          0.946              1.055              0.469

 Normal termination of Gaussian 09 at Tue Jan 28 00:38:15 2020.
