 Gaussian 09, Revision D.01,
 Gaussian 09:  ES64L-G09RevD.01 24-Apr-2013

 -----------------------------
 # b3lyp 6-31G(2df,p) opt Freq
 -----------------------------

 -----
 titel
 -----
 Symbolic Z-matrix:
 Charge =  0 Multiplicity = 1

 SCF Done:  E(RB3LYP) =  -423.166079039     A.U. after   14 cycles
 Optimization completed.
    -- Stationary point found.
 Normal termination of Gaussian 09 at Tue Jan 28 09:16:24 2020.

 ----------------------------------------------------------------------
 #N Geom=AllCheck Guess=TCheck SCRF=Check GenChk RB3LYP/6-31G(2df,p) Fr
 eq
 ----------------------------------------------------------------------

 Structure from the checkpoint file:  "/scratch/puck/g09_10414f91-8ee4-4064-9f1d-25ae0aec24c1/Gau-82397.chk"
 -----
 titel
 -----
 Charge =  0 Multiplicity = 1

                         Standard orientation:
 ---------------------------------------------------------------------
 Center     Atomic      Atomic             Coordinates (Angstroms)
 Number     Number       Type             X           Y           Z
 ---------------------------------------------------------------------
      1          8           0       -2.742122   -0.806780   -0.053585
      2          6           0       -1.409464   -0.811481   -0.554002
      3          6           0       -0.571564    0.264378    0.076155
      4          6           0        0.135859    0.070014    1.372782
      5          6           0        0.998084    0.332741    0.156337
      6          6           0        0.954785    1.816216   -0.224006
      7          6           0       -0.605208    1.754227   -0.293412
      8          6           0        1.919891   -0.689198   -0.355302
      9          8           0        1.859906   -1.870651   -0.089927
     10          1           0       -2.696687   -1.003267    0.888084
     11          1           0       -0.920918   -1.786530   -0.415761
     12          1           0       -1.505040   -0.638034   -1.631252
     13          1           0        0.094893    0.832521    2.147406
     14          1           0        0.200301   -0.953196    1.729918
     15          1           0        1.387183    2.504516    0.508912
     16          1           0        1.407526    2.016677   -1.198451
     17          1           0       -1.151755    2.397278    0.402541
     18          1           0       -0.988319    1.928569   -1.301045
     19          1           0        2.696240   -0.300470   -1.053561
 ---------------------------------------------------------------------

 SCF Done:  E(RB3LYP) =  -423.166079039     A.U. after    1 cycles

 The electronic state is 1-A.
 Alpha  occ. eigenvalues --  -19.13797 -19.13158 -10.26802 -10.23300 -10.21796
 Alpha  occ. eigenvalues --  -10.21055 -10.20432 -10.20063 -10.19786  -1.03817
 Alpha  occ. eigenvalues --   -1.01833  -0.91356  -0.74851  -0.71989  -0.68152
 Alpha  occ. eigenvalues --   -0.62164  -0.57988  -0.53309  -0.52080  -0.48039
 Alpha  occ. eigenvalues --   -0.47007  -0.45852  -0.43931  -0.42584  -0.40311
 Alpha  occ. eigenvalues --   -0.40018  -0.37997  -0.35968  -0.35177  -0.33986
 Alpha  occ. eigenvalues --   -0.30212  -0.28489  -0.25712  -0.24844
 Alpha virt. eigenvalues --   -0.03002   0.06898   0.09014   0.10806   0.11222
 Alpha virt. eigenvalues --    0.11955   0.12889   0.14248   0.15063   0.15452
 Alpha virt. eigenvalues --    0.17453   0.18669   0.19078   0.20618   0.22114

 Mulliken charges:
               1
     1  O   -0.411937
     2  C   -0.178217
     3  C    0.289104
     4  C   -0.372648
     5  C    0.202850
     6  C   -0.305675
     7  C   -0.275829
     8  C    0.055824
     9  O   -0.280456
    10  H    0.283857
    11  H    0.117273
    12  H    0.110258
    13  H    0.115285
    14  H    0.140591
    15  H    0.104595
    16  H    0.112183
    17  H    0.107770
    18  H    0.114144
    19  H    0.071028
 Sum of Mulliken charges =   0.00000

 Dipole moment (field-independent basis, Debye):
    X=              0.1568    Y=              2.5016    Z=              0.6639  Tot=              2.5930
 Quadrupole moment (field-independent basis, Debye-Ang):
   XX=            -59.9456   YY=            -57.1613   ZZ=            -49.2227
   XY=              4.6200   XZ=             -3.6824   YZ=             -1.4434

  Exact polarizability:  84.367  -2.534  80.008  -4.857  -1.451  68.878
 Approx polarizability: 123.126  -7.690 120.624  -6.857  -3.556 105.491

                      1                      2                      3
                      A                      A                      A
 Frequencies --     75.0006               109.3108               134.3934
 Red. masses --      4.0726                 4.6520                 2.7497
 Frc consts  --      0.0135                 0.0328                 0.0293
 IR Inten    --      4.7384                 4.8200                 3.6229

                      4                      5                      6
                      A                      A                      A
 Frequencies --    201.1229               221.4137               292.7744
 Red. masses --      1.9037                 4.1923                 1.7782
 Frc consts  --      0.0454                 0.1211                 0.0898
 IR Inten    --      3.5327                 6.8014                21.9409

                      7                      8                      9
                      A                      A                      A
 Frequencies --    302.0829               372.3822               394.9820
 Red. masses --      1.8937                 1.6272                 3.1825
 Frc consts  --      0.1018                 0.1329                 0.2925
 IR Inten    --     39.9283                54.3339                 0.5815

                     10                     11                     12
                      A                      A                      A
 Frequencies --    435.4690               533.0447               682.7105
 Red. masses --      2.5160                 4.1550                 3.8965
 Frc consts  --      0.2811                 0.6956                 1.0700
 IR Inten    --      0.6093                 4.0297                 3.4281

                     13                     14                     15
                      A                      A                      A
 Frequencies --    723.7563               786.4929               800.1775
 Red. masses --      3.7004                 1.8794                 2.0041
 Frc consts  --      1.1420                 0.6849                 0.7560
 IR Inten    --      2.3542                 6.1788                 8.8836

                     16                     17                     18
                      A                      A                      A
 Frequencies --    817.5168               938.3008               951.5914
 Red. masses --      3.7460                 1.8770                 1.3186
 Frc consts  --      1.4751                 0.9737                 0.7035
 IR Inten    --     36.7847                 1.6445                41.0036

                     19                     20                     21
                      A                      A                      A
 Frequencies --    954.5207               984.0741              1018.3174
 Red. masses --      1.9898                 1.6452                 1.9616
 Frc consts  --      1.0682                 0.9387                 1.1985
 IR Inten    --      6.0841                19.1031                12.9055

                     22                     23                     24
                      A                      A                      A
 Frequencies --   1037.6748              1057.9810              1086.2073
 Red. masses --      2.1845                 3.4297                 1.4085
 Frc consts  --      1.3859                 2.2618                 0.9791
 IR Inten    --     27.1559                74.4655                 4.5959

                     25                     26                     27
                      A                      A                      A
 Frequencies --   1114.5153              1139.8958              1198.8107
 Red. masses --      1.2972                 1.8018                 1.8607
 Frc consts  --      0.9493                 1.3794                 1.5755
 IR Inten    --     14.6251                 9.9967                58.7019

                     28                     29                     30
                      A                      A                      A
 Frequencies --   1215.0462              1245.5683              1250.4011
 Red. masses --      1.3980                 1.4568                 1.4239
 Frc consts  --      1.2161                 1.3316                 1.3117
 IR Inten    --      2.2531                 9.5776                14.2878

                     31                     32                     33
                      A                      A                      A
 Frequencies --   1296.1164              1333.2101              1365.8886
 Red. masses --      2.2183                 2.3915                 1.4140
 Frc consts  --      2.1957                 2.5045                 1.5542
 IR Inten    --     19.6562                 2.5500                 3.7815

                     34                     35                     36
                      A                      A                      A
 Frequencies --   1404.4362              1423.6455              1433.9630
 Red. masses --      1.5595                 1.3332                 1.4306
 Frc consts  --      1.8123                 1.5920                 1.7332
 IR Inten    --     32.9119                48.4601                 3.5397

                     37                     38                     39
                      A                      A                      A
 Frequencies --   1477.4126              1482.1744              1501.5970
 Red. masses --      1.2600                 1.1315                 1.1428
 Frc consts  --      1.6204                 1.4645                 1.5181
 IR Inten    --      7.9991                 0.4374                 0.8630

                     40                     41                     42
                      A                      A                      A
 Frequencies --   1510.7919              1783.1604              2868.3953
 Red. masses --      1.1530                 9.9818                 1.0818
 Frc consts  --      1.5506                18.7000                 5.2439
 IR Inten    --      5.1146               183.7998               132.7661

                     43                     44                     45
                      A                      A                      A
 Frequencies --   3008.5443              3047.9396              3059.4637
 Red. masses --      1.0645                 1.0595                 1.0616
 Frc consts  --      5.6767                 5.7992                 5.8547
 IR Inten    --     24.5483                41.6383                42.9176

                     46                     47                     48
                      A                      A                      A
 Frequencies --   3073.3784              3097.8935              3106.5345
 Red. masses --      1.0985                 1.1058                 1.0567
 Frc consts  --      6.1135                 6.2525                 6.0084
 IR Inten    --     26.0334                 3.0955                11.9006

                     49                     50                     51
                      A                      A                      A
 Frequencies --   3118.8054              3207.0921              3811.3657
 Red. masses --      1.1051                 1.1139                 1.0661
 Frc consts  --      6.3332                 6.7501                 9.1244
 IR Inten    --     33.8633                 3.1816                17.0256

 - Thermochemistry -
 -------------------
 Temperature   298.150 Kelvin.  Pressure   1.00000 Atm.
 Atom     1 has atomic number  8 and mass  15.99491

 Molecular mass:   126.06808 amu.
 Principal axes and moments of inertia in atomic units:
                           1         2         3
     Eigenvalues --   823.171371233.702611728.56985
           X            0.99864   0.05142  -0.00809
           Y           -0.05150   0.99862  -0.00988
           Z            0.00758   0.01028   0.99992
 This molecule is an asymmetric top.
 Rotational symmetry number  1.
 Warning -- assumption of classical behavior for rotation
           may cause significant error
 Rotational temperatures (Kelvin)      0.10522     0.07021     0.05011
 Rotational constants (GHZ):           2.19242     1.46287     1.04407
 Zero-point vibrational energy     415626.6 (Joules/Mol)
                                   99.33714 (Kcal/Mol)
 Warning -- explicit consideration of  11 degrees of freedom as
           vibrations may cause significant error
 Vibrational temperatures:    107.91   157.27   193.36   289.37   318.56
          (Kelvin)            421.24   434.63   535.77   568.29   626.54
                              766.93   982.27  1041.32  1131.59  1151.28
                             1176.22  1350.00  1369.13  1373.34  1415.86
                             1465.13  1492.98  1522.20  1562.81  1603.54
                             1640.05  1724.82  1748.18  1792.09  1799.05
                             1864.82  1918.19  1965.21  2020.67  2048.31
                             2063.15  2125.66  2132.52  2160.46  2173.69
                             2565.57  4126.98  4328.62  4385.30  4401.88
                             4421.90  4457.17  4469.60  4487.26  4614.28
                             5483.70

 Zero-point correction=                           0.158304 (Hartree/Particle)
 Thermal correction to Energy=                    0.167301
 Thermal correction to Enthalpy=                  0.168245
 Thermal correction to Gibbs Free Energy=         0.124362
 Sum of electronic and zero-point Energies=           -423.007775
 Sum of electronic and thermal Energies=              -422.998778
 Sum of electronic and thermal Enthalpies=            -422.997834
 Sum of electronic and thermal Free Energies=         -423.041717

                     E (Thermal)             CV                S
                      KCal/Mol        Cal/Mol-Kelvin    Cal/Mol-Kelvin
 Total                  104.983             33.278             92.361
 Electronic               0.000              0.000              0.000
 Translational            0.889              2.981             40.409
 Rotational               0.889              2.981             28.953
 Vibrational            103.205             27.317             22.999
 Vibration     1          0.599              1.966              4.018
 Vibration     2          0.606              1.942              3.281
 Vibration     3          0.613              1.919              2.882
 Vibration     4          0.638              1.838              2.123
 Vibration     5          0.648              1.808              1.948
 Vibration     6          0.688              1.687              1.458
 Vibration     7          0.694              1.670              1.405
 Vibration     8          0.744              1.529              1.070
 Vibration     9          0.762              1.481              0.981
 Vibration    10          0.796              1.393              0.841
 Vibration    11          0.888              1.177              0.580

 Normal termination of Gaussian 09 at Tue Jan 28 10:09:58 2020.
