 Gaussian 09, Revision D.01,
 Gaussian 09:  ES64L-G09RevD.01 24-Apr-2013

 -----------------------------
 # b3lyp 6-31G(2df,p) opt Freq
 -----------------------------

 -----
 titel
 -----
 Symbolic Z-matrix:
 Charge =  0 Multiplicity = 1

 SCF Done:  E(RB3LYP) =  -423.168294860     A.U. after   14 cycles
 Optimization completed.
    -- Stationary point found.
 Normal termination of Gaussian 09 at Tue Jan 28 02:52:11 2020.

 ----------------------------------------------------------------------
 #N Geom=AllCheck Guess=TCheck SCRF=Check GenChk RB3LYP/6-31G(2df,p) Fr
 eq
 ----------------------------------------------------------------------

 Structure from the checkpoint file:  "/scratch/puck/g09_b74956af-4bc1-4a18-809a-cdd28ce615c1/Gau-105047.chk"
 -----
 titel
 -----
 Charge =  0 Multiplicity = 1

                         Standard orientation:
 ---------------------------------------------------------------------
 Center     Atomic      Atomic             Coordinates (Angstroms)
 Number     Number       Type             X           Y           Z
 ---------------------------------------------------------------------
      1          6           0       -3.152214    0.509151   -0.372660
      2          6           0       -1.868974   -0.286489   -0.482568
      3          8           0       -1.551755   -0.956774    0.786257
      4          6           0       -0.390556   -0.155485    0.916548
      5          6           0       -0.574373    0.522716   -0.394698
      6          6           0        0.597765   -0.439354   -0.214197
      7          6           0        1.932099    0.197332   -0.042471
      8          6           0        3.133646   -0.642596   -0.430940
      9          8           0        2.045672    1.322522    0.404542
     10          1           0       -3.992571   -0.159908   -0.166048
     11          1           0       -3.085296    1.244175    0.434386
     12          1           0       -3.353008    1.036065   -1.311883
     13          1           0       -1.924432   -1.017834   -1.298419
     14          1           0       -0.078179    0.188716    1.894446
     15          1           0       -0.414188    1.553201   -0.678906
     16          1           0        0.559745   -1.421851   -0.676318
     17          1           0        3.084897   -0.902055   -1.494928
     18          1           0        4.052500   -0.091420   -0.228478
     19          1           0        3.134832   -1.586719    0.125665
 ---------------------------------------------------------------------

 SCF Done:  E(RB3LYP) =  -423.168294860     A.U. after    1 cycles

 The electronic state is 1-A.
 Alpha  occ. eigenvalues --  -19.14609 -19.12217 -10.26931 -10.25152 -10.24875
 Alpha  occ. eigenvalues --  -10.20483 -10.20135 -10.18874 -10.18516  -1.06206
 Alpha  occ. eigenvalues --   -1.03315  -0.84415  -0.76508  -0.74833  -0.65575
 Alpha  occ. eigenvalues --   -0.63243  -0.55161  -0.54024  -0.50522  -0.49661
 Alpha  occ. eigenvalues --   -0.47149  -0.44030  -0.43941  -0.41916  -0.40226
 Alpha  occ. eigenvalues --   -0.39809  -0.38435  -0.37858  -0.36515  -0.34290
 Alpha  occ. eigenvalues --   -0.32060  -0.28775  -0.25289  -0.23659
 Alpha virt. eigenvalues --   -0.01330   0.08343   0.09836   0.10508   0.11573
 Alpha virt. eigenvalues --    0.12931   0.13580   0.14626   0.15554   0.15728
 Alpha virt. eigenvalues --    0.16766   0.17407   0.19076   0.21232   0.22184

 Mulliken charges:
               1
     1  C   -0.401066
     2  C    0.113045
     3  O   -0.304723
     4  C    0.123874
     5  C   -0.127026
     6  C   -0.185401
     7  C    0.369887
     8  C   -0.487721
     9  O   -0.331310
    10  H    0.131433
    11  H    0.129880
    12  H    0.120000
    13  H    0.086049
    14  H    0.126060
    15  H    0.121160
    16  H    0.092431
    17  H    0.140079
    18  H    0.141494
    19  H    0.141856
 Sum of Mulliken charges =   0.00000

 Dipole moment (field-independent basis, Debye):
    X=             -0.5007    Y=             -1.1162    Z=             -1.7024  Tot=              2.0963
 Quadrupole moment (field-independent basis, Debye-Ang):
   XX=            -51.4733   YY=            -56.7262   ZZ=            -51.9528
   XY=             -7.4417   XZ=              0.7214   YZ=              0.4893

  Exact polarizability: 102.870  -1.839  68.295   1.274   2.835  64.001
 Approx polarizability: 123.945   4.163 112.620   0.626   3.855 102.892

                      1                      2                      3
                      A                      A                      A
 Frequencies --     62.5865               121.5366               128.5214
 Red. masses --      3.5331                 2.5416                 1.2392
 Frc consts  --      0.0082                 0.0221                 0.0121
 IR Inten    --      3.8685                 3.3481                 0.8345

                      4                      5                      6
                      A                      A                      A
 Frequencies --    154.8037               228.8830               246.1498
 Red. masses --      3.3045                 3.1411                 1.1172
 Frc consts  --      0.0467                 0.0970                 0.0399
 IR Inten    --      1.3067                 1.7141                 0.4092

                      7                      8                      9
                      A                      A                      A
 Frequencies --    289.5482               325.4377               429.5321
 Red. masses --      2.6395                 4.3963                 3.6602
 Frc consts  --      0.1304                 0.2743                 0.3979
 IR Inten    --      1.8392                 2.7058                 6.7190

                     10                     11                     12
                      A                      A                      A
 Frequencies --    479.6110               590.5071               594.3449
 Red. masses --      3.5563                 3.4162                 2.5985
 Frc consts  --      0.4820                 0.7019                 0.5408
 IR Inten    --      1.5460                10.1529                 2.3275

                     13                     14                     15
                      A                      A                      A
 Frequencies --    784.8292               817.0068               853.0315
 Red. masses --      2.5973                 2.0636                 2.2904
 Frc consts  --      0.9426                 0.8116                 0.9820
 IR Inten    --      3.6786                32.8243                14.7251

                     16                     17                     18
                      A                      A                      A
 Frequencies --    885.6280               901.3313               917.8000
 Red. masses --      3.0718                 3.4896                 2.5821
 Frc consts  --      1.4195                 1.6703                 1.2815
 IR Inten    --     19.1496                 2.7440                22.5968

                     19                     20                     21
                      A                      A                      A
 Frequencies --    954.5910               987.2581              1011.6724
 Red. masses --      2.0720                 2.1005                 1.9836
 Frc consts  --      1.1124                 1.2062                 1.1961
 IR Inten    --     40.1293                94.5818                53.5890

                     22                     23                     24
                      A                      A                      A
 Frequencies --   1034.2784              1043.3634              1058.5534
 Red. masses --      1.1485                 2.2036                 2.0311
 Frc consts  --      0.7239                 1.4134                 1.3409
 IR Inten    --     13.8086                31.1639                 4.0216

                     25                     26                     27
                      A                      A                      A
 Frequencies --   1090.0340              1096.3385              1135.3422
 Red. masses --      1.6534                 1.4780                 2.2558
 Frc consts  --      1.1575                 1.0467                 1.7132
 IR Inten    --     12.4728                14.4909                 6.1004

                     28                     29                     30
                      A                      A                      A
 Frequencies --   1174.3952              1210.9803              1219.0234
 Red. masses --      1.7268                 1.9418                 1.3922
 Frc consts  --      1.4032                 1.6778                 1.2190
 IR Inten    --     51.1684                11.1948                20.8679

                     31                     32                     33
                      A                      A                      A
 Frequencies --   1280.0537              1323.6515              1375.2128
 Red. masses --      1.8390                 1.8235                 1.4129
 Frc consts  --      1.7753                 1.8823                 1.5744
 IR Inten    --      7.6203                 6.8566                17.9081

                     34                     35                     36
                      A                      A                      A
 Frequencies --   1381.9831              1398.2350              1409.5448
 Red. masses --      1.4555                 2.2104                 1.4080
 Frc consts  --      1.6378                 2.5462                 1.6482
 IR Inten    --     17.7849               122.9073                47.3524

                     37                     38                     39
                      A                      A                      A
 Frequencies --   1463.2013              1474.6632              1485.3630
 Red. masses --      1.0575                 1.0484                 1.0554
 Frc consts  --      1.3340                 1.3432                 1.3720
 IR Inten    --     10.7380                 7.2468                 3.4465

                     40                     41                     42
                      A                      A                      A
 Frequencies --   1491.7155              1778.0960              3031.5540
 Red. masses --      1.0490                10.2335                 1.0811
 Frc consts  --      1.3753                19.0627                 5.8540
 IR Inten    --      2.8314               135.3694                36.7542

                     43                     44                     45
                      A                      A                      A
 Frequencies --   3033.9316              3038.5005              3093.8817
 Red. masses --      1.0371                 1.0386                 1.0982
 Frc consts  --      5.6246                 5.6497                 6.1936
 IR Inten    --      3.0119                20.4984                 7.4847

                     46                     47                     48
                      A                      A                      A
 Frequencies --   3110.3222              3123.6224              3148.4821
 Red. masses --      1.1003                 1.1028                 1.0900
 Frc consts  --      6.2718                 6.3395                 6.3665
 IR Inten    --     16.5376                21.2342                 8.6255

                     49                     50                     51
                      A                      A                      A
 Frequencies --   3153.5068              3198.2878              3220.4215
 Red. masses --      1.1010                 1.0911                 1.0972
 Frc consts  --      6.4511                 6.5756                 6.7044
 IR Inten    --     11.9725                 9.7707                 1.1335

 - Thermochemistry -
 -------------------
 Temperature   298.150 Kelvin.  Pressure   1.00000 Atm.
 Atom     1 has atomic number  6 and mass  12.00000

 Molecular mass:   126.06808 amu.
 Principal axes and moments of inertia in atomic units:
                           1         2         3
     Eigenvalues --   397.412591996.208742093.64773
           X            0.99950  -0.03167  -0.00029
           Y            0.03161   0.99693   0.07166
           Z           -0.00198  -0.07163   0.99743
 This molecule is an asymmetric top.
 Rotational symmetry number  1.
 Rotational temperatures (Kelvin)      0.21794     0.04339     0.04137
 Rotational constants (GHZ):           4.54123     0.90408     0.86201
 Zero-point vibrational energy     411761.5 (Joules/Mol)
                                   98.41336 (Kcal/Mol)
 Warning -- explicit consideration of  12 degrees of freedom as
           vibrations may cause significant error
 Vibrational temperatures:     90.05   174.86   184.91   222.73   329.31
          (Kelvin)            354.15   416.59   468.23   618.00   690.05
                              849.61   855.13  1129.19  1175.49  1227.32
                             1274.22  1296.81  1320.51  1373.44  1420.44
                             1455.57  1488.09  1501.17  1523.02  1568.31
                             1577.38  1633.50  1689.69  1742.33  1753.90
                             1841.71  1904.44  1978.62  1988.36  2011.75
                             2028.02  2105.22  2121.71  2137.10  2146.24
                             2558.28  4361.72  4365.15  4371.72  4451.40
                             4475.05  4494.19  4529.96  4537.19  4601.62
                             4633.46

 Zero-point correction=                           0.156832 (Hartree/Particle)
 Thermal correction to Energy=                    0.165957
 Thermal correction to Enthalpy=                  0.166901
 Thermal correction to Gibbs Free Energy=         0.122590
 Sum of electronic and zero-point Energies=           -423.011463
 Sum of electronic and thermal Energies=              -423.002338
 Sum of electronic and thermal Enthalpies=            -423.001394
 Sum of electronic and thermal Free Energies=         -423.045705

                     E (Thermal)             CV                S
                      KCal/Mol        Cal/Mol-Kelvin    Cal/Mol-Kelvin
 Total                  104.139             33.424             93.261
 Electronic               0.000              0.000              0.000
 Translational            0.889              2.981             40.409
 Rotational               0.889              2.981             28.898
 Vibrational            102.362             27.462             23.955
 Vibration     1          0.597              1.972              4.374
 Vibration     2          0.609              1.931              3.076
 Vibration     3          0.611              1.925              2.968
 Vibration     4          0.620              1.897              2.612
 Vibration     5          0.652              1.797              1.888
 Vibration     6          0.661              1.769              1.758
 Vibration     7          0.686              1.693              1.477
 Vibration     8          0.710              1.625              1.283
 Vibration     9          0.791              1.406              0.860
 Vibration    10          0.836              1.295              0.711
 Vibration    11          0.948              1.052              0.466
 Vibration    12          0.952              1.044              0.459

 Optimization completed.
    -- Stationary point found.
 Normal termination of Gaussian 09 at Tue Jan 28 03:38:15 2020.
