 Gaussian 09, Revision D.01,
 Gaussian 09:  ES64L-G09RevD.01 24-Apr-2013

 -----------------------------
 # b3lyp 6-31G(2df,p) opt Freq
 -----------------------------

 -----
 titel
 -----
 Symbolic Z-matrix:
 Charge =  0 Multiplicity = 1

 SCF Done:  E(RB3LYP) =  -423.171781294     A.U. after   15 cycles
 Optimization completed.
    -- Stationary point found.
 Normal termination of Gaussian 09 at Tue Jan 28 12:07:51 2020.

 ----------------------------------------------------------------------
 #N Geom=AllCheck Guess=TCheck SCRF=Check GenChk RB3LYP/6-31G(2df,p) Fr
 eq
 ----------------------------------------------------------------------

 Structure from the checkpoint file:  "/scratch/puck/g09_f9e97d47-c3d3-47f8-9095-036f56163152/Gau-1496.chk"
 -----
 titel
 -----
 Charge =  0 Multiplicity = 1

                         Standard orientation:
 ---------------------------------------------------------------------
 Center     Atomic      Atomic             Coordinates (Angstroms)
 Number     Number       Type             X           Y           Z
 ---------------------------------------------------------------------
      1          6           0        3.728342   -1.321189   -0.220373
      2          6           0        2.695480   -0.317085   -0.007424
      3          6           0        1.848283    0.519493    0.173219
      4          6           0        0.822267    1.531960    0.377948
      5          6           0       -0.610458    1.134001   -0.032512
      6          8           0       -1.362871    1.970551   -0.473114
      7          6           0       -1.030646   -0.305013    0.188389
      8          6           0       -2.508441   -0.557147   -0.111781
      9          8           0       -2.891691   -1.892766    0.176777
     10          1           0        3.600856   -1.828272   -1.183083
     11          1           0        4.725822   -0.868207   -0.215557
     12          1           0        3.708696   -2.086065    0.563648
     13          1           0        0.765332    1.795844    1.445234
     14          1           0        1.055817    2.460041   -0.153687
     15          1           0       -0.385709   -0.940416   -0.434171
     16          1           0       -0.796035   -0.593180    1.221711
     17          1           0       -3.129865    0.080571    0.522654
     18          1           0       -2.731573   -0.281299   -1.151217
     19          1           0       -2.445819   -2.471413   -0.449636
 ---------------------------------------------------------------------

 SCF Done:  E(RB3LYP) =  -423.171781294     A.U. after    1 cycles

 The electronic state is 1-A.
 Alpha  occ. eigenvalues --  -19.13667 -19.13489 -10.27929 -10.22716 -10.21657
 Alpha  occ. eigenvalues --  -10.21051 -10.19288 -10.18323 -10.17925  -1.04854
 Alpha  occ. eigenvalues --   -1.01560  -0.80545  -0.77417  -0.75353  -0.68540
 Alpha  occ. eigenvalues --   -0.64185  -0.54251  -0.50999  -0.49847  -0.48010
 Alpha  occ. eigenvalues --   -0.45714  -0.45216  -0.43731  -0.43213  -0.43005
 Alpha  occ. eigenvalues --   -0.42027  -0.39092  -0.38667  -0.35633  -0.32540
 Alpha  occ. eigenvalues --   -0.28332  -0.26879  -0.25839  -0.23786
 Alpha virt. eigenvalues --   -0.01746   0.04681   0.05178   0.07436   0.10099
 Alpha virt. eigenvalues --    0.10747   0.13236   0.14356   0.15412   0.16023
 Alpha virt. eigenvalues --    0.17167   0.19102   0.19414   0.20647   0.21635

 Mulliken charges:
               1
     1  C   -0.497336
     2  C    0.058646
     3  C    0.062137
     4  C   -0.442094
     5  C    0.383139
     6  O   -0.296948
     7  C   -0.317572
     8  C   -0.062064
     9  O   -0.419656
    10  H    0.148862
    11  H    0.152897
    12  H    0.150004
    13  H    0.152759
    14  H    0.153720
    15  H    0.128607
    16  H    0.132803
    17  H    0.125667
    18  H    0.105821
    19  H    0.280609
 Sum of Mulliken charges =   0.00000

 Dipole moment (field-independent basis, Debye):
    X=              2.8694    Y=             -1.7227    Z=             -0.1456  Tot=              3.3500
 Quadrupole moment (field-independent basis, Debye-Ang):
   XX=            -56.1001   YY=            -53.9032   ZZ=            -51.9066
   XY=             -1.9509   XZ=              0.7550   YZ=              5.6552

  Exact polarizability:  98.376 -15.189  85.191  -0.760   2.048  58.238
 Approx polarizability: 128.275 -32.987 129.393  -1.960   1.787  90.523

                      1                      2                      3
                      A                      A                      A
 Frequencies --     17.3301                28.7842                59.5078
 Red. masses --      1.0178                 3.1073                 2.4617
 Frc consts  --      0.0002                 0.0015                 0.0051
 IR Inten    --      0.0017                 3.2817                 2.0050

                      4                      5                      6
                      A                      A                      A
 Frequencies --     76.3161               100.6436               163.5959
 Red. masses --      3.1164                 3.0736                 5.0116
 Frc consts  --      0.0107                 0.0183                 0.0790
 IR Inten    --      3.0626                 4.5267                 0.2405

                      7                      8                      9
                      A                      A                      A
 Frequencies --    205.0289               259.2605               301.0196
 Red. masses --      2.5912                 4.4225                 1.1183
 Frc consts  --      0.0642                 0.1751                 0.0597
 IR Inten    --      9.3563                14.8967               106.3901

                     10                     11                     12
                      A                      A                      A
 Frequencies --    350.2842               381.0467               408.8094
 Red. masses --      4.4236                 4.0500                 4.8350
 Frc consts  --      0.3198                 0.3465                 0.4761
 IR Inten    --      2.0994                 0.8708                10.2234

                     13                     14                     15
                      A                      A                      A
 Frequencies --    450.8685               482.6804               611.0859
 Red. masses --      3.3593                 3.7597                 3.8616
 Frc consts  --      0.4023                 0.5161                 0.8496
 IR Inten    --      0.7687                 3.8323                20.1921

                     16                     17                     18
                      A                      A                      A
 Frequencies --    734.4315               794.5860               844.6653
 Red. masses --      1.5140                 2.7610                 3.6120
 Frc consts  --      0.4812                 1.0271                 1.5183
 IR Inten    --      3.2180                 2.0343                 4.2503

                     19                     20                     21
                      A                      A                      A
 Frequencies --    880.2599              1023.6355              1050.8594
 Red. masses --      1.6390                 2.6705                 1.4967
 Frc consts  --      0.7483                 1.6486                 0.9738
 IR Inten    --      3.5361                60.6801                 0.2634

                     22                     23                     24
                      A                      A                      A
 Frequencies --   1054.2976              1059.4998              1074.9656
 Red. masses --      1.3953                 2.0748                 3.4644
 Frc consts  --      0.9138                 1.3723                 2.3587
 IR Inten    --      1.0296                 1.7296               103.5794

                     25                     26                     27
                      A                      A                      A
 Frequencies --   1127.4650              1143.1104              1168.9583
 Red. masses --      2.9243                 1.1706                 2.9604
 Frc consts  --      2.1902                 0.9012                 2.3834
 IR Inten    --     34.4009                 8.8076                 2.5662

                     28                     29                     30
                      A                      A                      A
 Frequencies --   1223.5257              1296.9185              1305.8163
 Red. masses --      1.2264                 1.2579                 1.5546
 Frc consts  --      1.0817                 1.2466                 1.5619
 IR Inten    --      9.7349                17.9137                 8.8311

                     31                     32                     33
                      A                      A                      A
 Frequencies --   1327.5512              1395.9617              1415.2439
 Red. masses --      1.6307                 1.3115                 1.2525
 Frc consts  --      1.6932                 1.5058                 1.4780
 IR Inten    --     35.8480                 2.9375                16.8832

                     34                     35                     36
                      A                      A                      A
 Frequencies --   1418.2246              1443.2355              1446.5880
 Red. masses --      1.2924                 1.0977                 1.0936
 Frc consts  --      1.5316                 1.3472                 1.3484
 IR Inten    --     58.7536                 2.2957                15.2135

                     37                     38                     39
                      A                      A                      A
 Frequencies --   1478.1491              1478.6306              1504.6785
 Red. masses --      1.0394                 1.0396                 1.0874
 Frc consts  --      1.3381                 1.3392                 1.4506
 IR Inten    --      6.0147                 5.5692                 1.1350

                     40                     41                     42
                      A                      A                      A
 Frequencies --   1807.8203              2372.3755              3001.9034
 Red. masses --     11.4585                11.8150                 1.0678
 Frc consts  --     22.0643                39.1788                 5.6696
 IR Inten    --    180.4398                 1.0746                13.6895

                     43                     44                     45
                      A                      A                      A
 Frequencies --   3016.9050              3026.1414              3028.3103
 Red. masses --      1.0687                 1.0623                 1.0351
 Frc consts  --      5.7312                 5.7314                 5.5931
 IR Inten    --     29.5157                18.4150                25.0621

                     46                     47                     48
                      A                      A                      A
 Frequencies --   3055.6873              3077.2239              3089.1387
 Red. masses --      1.0944                 1.0907                 1.1003
 Frc consts  --      6.0209                 6.0852                 6.1861
 IR Inten    --      7.4485                 4.5417                 9.8410

                     49                     50                     51
                      A                      A                      A
 Frequencies --   3090.0866              3099.5375              3817.9681
 Red. masses --      1.1001                 1.0967                 1.0662
 Frc consts  --      6.1893                 6.2078                 9.1573
 IR Inten    --      9.3049                24.9387                14.8044

 - Thermochemistry -
 -------------------
 Temperature   298.150 Kelvin.  Pressure   1.00000 Atm.
 Atom     1 has atomic number  6 and mass  12.00000

 Molecular mass:   126.06808 amu.
 Principal axes and moments of inertia in atomic units:
                           1         2         3
     Eigenvalues --   832.181252318.557343046.16812
           X            0.99985  -0.01715  -0.00095
           Y            0.01716   0.99961   0.02213
           Z            0.00057  -0.02215   0.99975
 This molecule is an asymmetric top.
 Rotational symmetry number  1.
 Warning -- assumption of classical behavior for rotation
           may cause significant error
 Rotational temperatures (Kelvin)      0.10408     0.03736     0.02843
 Rotational constants (GHZ):           2.16869     0.77839     0.59246
 Zero-point vibrational energy     407152.7 (Joules/Mol)
                                   97.31183 (Kcal/Mol)
 Warning -- explicit consideration of  15 degrees of freedom as
           vibrations may cause significant error
 Vibrational temperatures:     24.93    41.41    85.62   109.80   144.80
          (Kelvin)            235.38   294.99   373.02   433.10   503.98
                              548.24   588.18   648.70   694.47   879.22
                             1056.68  1143.23  1215.28  1266.50  1472.78
                             1511.95  1516.90  1524.38  1546.63  1622.17
                             1644.68  1681.87  1760.38  1865.97  1878.78
                             1910.05  2008.48  2036.22  2040.51  2076.49
                             2081.31  2126.72  2127.42  2164.89  2601.05
                             3413.31  4319.06  4340.65  4353.94  4357.06
                             4396.45  4427.43  4444.58  4445.94  4459.54
                             5493.20

 Zero-point correction=                           0.155076 (Hartree/Particle)
 Thermal correction to Energy=                    0.166349
 Thermal correction to Enthalpy=                  0.167293
 Thermal correction to Gibbs Free Energy=         0.115219
 Sum of electronic and zero-point Energies=           -423.016705
 Sum of electronic and thermal Energies=              -423.005432
 Sum of electronic and thermal Enthalpies=            -423.004488
 Sum of electronic and thermal Free Energies=         -423.056562

                     E (Thermal)             CV                S
                      KCal/Mol        Cal/Mol-Kelvin    Cal/Mol-Kelvin
 Total                  104.385             37.400            109.599
 Electronic               0.000              0.000              0.000
 Translational            0.889              2.981             40.409
 Rotational               0.889              2.981             30.153
 Vibrational            102.608             31.438             39.037
 Vibration     1          0.593              1.986              6.919
 Vibration     2          0.593              1.984              5.912
 Vibration     3          0.597              1.974              4.473
 Vibration     4          0.599              1.965              3.983
 Vibration     5          0.604              1.949              3.442
 Vibration     6          0.623              1.887              2.508
 Vibration     7          0.640              1.833              2.087
 Vibration     8          0.668              1.747              1.667
 Vibration     9          0.693              1.672              1.411
 Vibration    10          0.727              1.575              1.165
 Vibration    11          0.751              1.511              1.035
 Vibration    12          0.773              1.451              0.931
 Vibration    13          0.810              1.359              0.793
 Vibration    14          0.839              1.288              0.703
 Vibration    15          0.970              1.008              0.431

 Normal termination of Gaussian 09 at Tue Jan 28 12:45:52 2020.
