 Gaussian 09, Revision D.01,
 Gaussian 09:  ES64L-G09RevD.01 24-Apr-2013

 -----------------------------
 # b3lyp 6-31G(2df,p) opt Freq
 -----------------------------

 -----
 titel
 -----
 Symbolic Z-matrix:
 Charge =  0 Multiplicity = 1

 SCF Done:  E(RB3LYP) =  -423.166143032     A.U. after   14 cycles
 Optimization completed.
    -- Stationary point found.
 Normal termination of Gaussian 09 at Mon Jan 27 23:07:05 2020.

 ----------------------------------------------------------------------
 #N Geom=AllCheck Guess=TCheck SCRF=Check GenChk RB3LYP/6-31G(2df,p) Fr
 eq
 ----------------------------------------------------------------------

 Structure from the checkpoint file:  "/scratch/puck/g09_86f926a0-bbdd-4802-aeeb-c5c0984b636d/Gau-56573.chk"
 -----
 titel
 -----
 Charge =  0 Multiplicity = 1

                         Standard orientation:
 ---------------------------------------------------------------------
 Center     Atomic      Atomic             Coordinates (Angstroms)
 Number     Number       Type             X           Y           Z
 ---------------------------------------------------------------------
      1          6           0        0.416033    2.130194   -0.307542
      2          6           0        0.911029    0.727858   -0.617475
      3          6           0        1.881489   -0.039061    0.346223
      4          6           0        1.480901   -1.345609   -0.403091
      5          6           0        0.179397   -0.567669   -0.137175
      6          6           0        0.681287   -0.307363    1.306419
      7          8           0       -1.075910   -1.074552   -0.553520
      8          6           0       -2.185707   -0.432220   -0.156471
      9          8           0       -2.240956    0.564950    0.507991
     10          1           0       -0.423664    2.391620   -0.958428
     11          1           0        0.075453    2.253905    0.721111
     12          1           0        1.217180    2.854675   -0.492670
     13          1           0        1.223832    0.661847   -1.666107
     14          1           0        2.886289    0.264218    0.629506
     15          1           0        1.796879   -1.433329   -1.445412
     16          1           0        1.606301   -2.280942    0.146652
     17          1           0        0.254689    0.536025    1.843811
     18          1           0        0.770550   -1.189049    1.945771
     19          1           0       -3.059165   -0.978936   -0.545338
 ---------------------------------------------------------------------

 SCF Done:  E(RB3LYP) =  -423.166143032     A.U. after    1 cycles

 The electronic state is 1-A.
 Alpha  occ. eigenvalues --  -19.19178 -19.13538 -10.31073 -10.25943 -10.20758
 Alpha  occ. eigenvalues --  -10.19891 -10.19288 -10.19016 -10.17060  -1.10725
 Alpha  occ. eigenvalues --   -1.02522  -0.92090  -0.73746  -0.69337  -0.67559
 Alpha  occ. eigenvalues --   -0.62752  -0.58363  -0.52844  -0.52316  -0.48369
 Alpha  occ. eigenvalues --   -0.47239  -0.45522  -0.43975  -0.41940  -0.39607
 Alpha  occ. eigenvalues --   -0.37956  -0.35674  -0.35403  -0.34183  -0.32005
 Alpha  occ. eigenvalues --   -0.31976  -0.30940  -0.28493  -0.27778
 Alpha virt. eigenvalues --    0.00532   0.10207   0.11526   0.12321   0.13004
 Alpha virt. eigenvalues --    0.13313   0.14516   0.14904   0.15456   0.16247
 Alpha virt. eigenvalues --    0.17199   0.18674   0.19923   0.21335   0.22593

 Mulliken charges:
               1
     1  C   -0.433161
     2  C    0.002852
     3  C   -0.074803
     4  C   -0.280310
     5  C    0.437867
     6  C   -0.280407
     7  O   -0.264073
     8  C    0.149270
     9  O   -0.297408
    10  H    0.125660
    11  H    0.133482
    12  H    0.109828
    13  H    0.067853
    14  H    0.086095
    15  H    0.097120
    16  H    0.096988
    17  H    0.118566
    18  H    0.095898
    19  H    0.108684
 Sum of Mulliken charges =   0.00000

 Dipole moment (field-independent basis, Debye):
    X=              1.2466    Y=             -0.8481    Z=             -0.5921  Tot=              1.6198
 Quadrupole moment (field-independent basis, Debye-Ang):
   XX=            -52.6780   YY=            -53.8270   ZZ=            -52.9327
   XY=              3.1832   XZ=              2.3596   YZ=             -1.5313

  Exact polarizability:  83.088  -1.897  77.978  -0.345   1.001  67.297
 Approx polarizability: 113.893  -3.472 115.666  -2.088   7.779 106.255

                      1                      2                      3
                      A                      A                      A
 Frequencies --     61.4529               155.0632               173.6775
 Red. masses --      6.3065                 4.8401                 1.0449
 Frc consts  --      0.0140                 0.0686                 0.0186
 IR Inten    --      1.5616                 3.2629                 0.2850

                      4                      5                      6
                      A                      A                      A
 Frequencies --    204.8203               258.5800               325.5700
 Red. masses --      2.9687                 2.9052                 2.6730
 Frc consts  --      0.0734                 0.1145                 0.1669
 IR Inten    --      4.7658                 6.4589                 2.1345

                      7                      8                      9
                      A                      A                      A
 Frequencies --    368.5825               440.0488               550.0815
 Red. masses --      3.3139                 3.2764                 2.2212
 Frc consts  --      0.2653                 0.3738                 0.3960
 IR Inten    --      2.7402                 8.6101                 0.2006

                     10                     11                     12
                      A                      A                      A
 Frequencies --    571.3775               591.9143               747.4727
 Red. masses --      4.3243                 2.4318                 3.4355
 Frc consts  --      0.8318                 0.5020                 1.1309
 IR Inten    --      2.8110                 0.6830                 1.0613

                     13                     14                     15
                      A                      A                      A
 Frequencies --    776.6937               810.9611               841.5483
 Red. masses --      3.6426                 2.3434                 4.1873
 Frc consts  --      1.2947                 0.9080                 1.7472
 IR Inten    --      6.3581                 5.2628                 6.7789

                     16                     17                     18
                      A                      A                      A
 Frequencies --    913.0540               945.8810               967.0128
 Red. masses --      2.5137                 1.9938                 1.3374
 Frc consts  --      1.2347                 1.0510                 0.7368
 IR Inten    --      2.3727                 8.1873                 3.9378

                     19                     20                     21
                      A                      A                      A
 Frequencies --    998.2480              1008.7871              1039.0978
 Red. masses --      1.1909                 1.1860                 1.5807
 Frc consts  --      0.6992                 0.7111                 1.0056
 IR Inten    --      0.1199                 0.9806                16.2270

                     22                     23                     24
                      A                      A                      A
 Frequencies --   1045.8916              1101.6540              1119.4345
 Red. masses --      1.6613                 1.5292                 1.8196
 Frc consts  --      1.0707                 1.0935                 1.3434
 IR Inten    --      1.7917                 1.3470                 0.9202

                     25                     26                     27
                      A                      A                      A
 Frequencies --   1139.0016              1145.8497              1165.2764
 Red. masses --      1.3952                 2.2609                 1.8282
 Frc consts  --      1.0665                 1.7490                 1.4626
 IR Inten    --      0.6408                18.9208                 5.8076

                     28                     29                     30
                      A                      A                      A
 Frequencies --   1184.4572              1191.3305              1212.6372
 Red. masses --      2.4535                 2.4348                 2.6054
 Frc consts  --      2.0280                 2.0360                 2.2572
 IR Inten    --     53.9927                96.5318               225.7907

                     31                     32                     33
                      A                      A                      A
 Frequencies --   1234.2809              1242.0748              1255.7888
 Red. masses --      2.4757                 2.1242                 2.0825
 Frc consts  --      2.2221                 1.9308                 1.9349
 IR Inten    --     40.2061                 0.4796               120.0183

                     34                     35                     36
                      A                      A                      A
 Frequencies --   1409.2990              1415.4319              1427.9712
 Red. masses --      1.2181                 1.1572                 1.3507
 Frc consts  --      1.4254                 1.3660                 1.6227
 IR Inten    --      1.5658                 1.2582                11.3240

                     37                     38                     39
                      A                      A                      A
 Frequencies --   1486.0757              1489.9080              1510.7069
 Red. masses --      1.0557                 1.0691                 1.0892
 Frc consts  --      1.3736                 1.3983                 1.4646
 IR Inten    --      9.6100                 1.2159                 6.0012

                     40                     41                     42
                      A                      A                      A
 Frequencies --   1546.0373              1820.6075              3025.7248
 Red. masses --      1.1728                 9.7175                 1.0902
 Frc consts  --      1.6516                18.9775                 5.8804
 IR Inten    --      8.2727               222.4806                78.9674

                     43                     44                     45
                      A                      A                      A
 Frequencies --   3034.2049              3042.4854              3061.0105
 Red. masses --      1.0730                 1.0512                 1.0547
 Frc consts  --      5.8203                 5.7329                 5.8223
 IR Inten    --     25.6433                38.5378                41.9612

                     46                     47                     48
                      A                      A                      A
 Frequencies --   3076.9082              3099.8498              3130.3837
 Red. masses --      1.0625                 1.0985                 1.1114
 Frc consts  --      5.9265                 6.2190                 6.4168
 IR Inten    --     23.4480                20.2125                26.0740

                     49                     50                     51
                      A                      A                      A
 Frequencies --   3139.7625              3148.3625              3169.9555
 Red. masses --      1.0982                 1.0935                 1.1021
 Frc consts  --      6.3784                 6.3859                 6.5251
 IR Inten    --     26.8479                33.3020                19.5930

 - Thermochemistry -
 -------------------
 Temperature   298.150 Kelvin.  Pressure   1.00000 Atm.
 Atom     1 has atomic number  6 and mass  12.00000

 Molecular mass:   126.06808 amu.
 Principal axes and moments of inertia in atomic units:
                           1         2         3
     Eigenvalues --   702.015421156.385291475.31997
           X            0.99999   0.00276   0.00418
           Y           -0.00266   0.99974  -0.02282
           Z           -0.00424   0.02281   0.99973
 This molecule is an asymmetric top.
 Rotational symmetry number  1.
 Warning -- assumption of classical behavior for rotation
           may cause significant error
 Rotational temperatures (Kelvin)      0.12338     0.07490     0.05871
 Rotational constants (GHZ):           2.57080     1.56067     1.22329
 Zero-point vibrational energy     417630.0 (Joules/Mol)
                                   99.81597 (Kcal/Mol)
 Warning -- explicit consideration of  11 degrees of freedom as
           vibrations may cause significant error
 Vibrational temperatures:     88.42   223.10   249.88   294.69   372.04
          (Kelvin)            468.42   530.31   633.13   791.44   822.08
                              851.63  1075.45  1117.49  1166.79  1210.80
                             1313.68  1360.91  1391.31  1436.25  1451.42
                             1495.03  1504.80  1585.03  1610.61  1638.77
                             1648.62  1676.57  1704.17  1714.06  1744.71
                             1775.85  1787.07  1806.80  2027.66  2036.49
                             2054.53  2138.13  2143.64  2173.57  2224.40
                             2619.44  4353.34  4365.54  4377.45  4404.11
                             4426.98  4459.99  4503.92  4517.41  4529.79
                             4560.85

 Zero-point correction=                           0.159067 (Hartree/Particle)
 Thermal correction to Energy=                    0.167350
 Thermal correction to Enthalpy=                  0.168294
 Thermal correction to Gibbs Free Energy=         0.126000
 Sum of electronic and zero-point Energies=           -423.007076
 Sum of electronic and thermal Energies=              -422.998793
 Sum of electronic and thermal Enthalpies=            -422.997849
 Sum of electronic and thermal Free Energies=         -423.040143

                     E (Thermal)             CV                S
                      KCal/Mol        Cal/Mol-Kelvin    Cal/Mol-Kelvin
 Total                  105.013             31.547             89.015
 Electronic               0.000              0.000              0.000
 Translational            0.889              2.981             40.409
 Rotational               0.889              2.981             28.573
 Vibrational            103.236             25.585             20.033
 Vibration     1          0.597              1.973              4.410
 Vibration     2          0.620              1.897              2.609
 Vibration     3          0.627              1.875              2.395
 Vibration     4          0.640              1.833              2.089
 Vibration     5          0.667              1.748              1.671
 Vibration     6          0.710              1.624              1.282
 Vibration     7          0.741              1.537              1.086
 Vibration     8          0.800              1.383              0.826
 Vibration     9          0.905              1.140              0.544
 Vibration    10          0.928              1.093              0.502
 Vibration    11          0.949              1.049              0.464

 Optimization completed.
    -- Stationary point found.
 Normal termination of Gaussian 09 at Mon Jan 27 23:54:10 2020.
