 Gaussian 09, Revision D.01,
 Gaussian 09:  ES64L-G09RevD.01 24-Apr-2013

 -----------------------------
 # b3lyp 6-31G(2df,p) opt Freq
 -----------------------------

 -----
 titel
 -----
 Symbolic Z-matrix:
 Charge =  0 Multiplicity = 1

 SCF Done:  E(RB3LYP) =  -423.207818531     A.U. after   14 cycles
 Optimization completed.
    -- Stationary point found.
 Normal termination of Gaussian 09 at Tue Jan 28 03:15:51 2020.

 ----------------------------------------------------------------------
 #N Geom=AllCheck Guess=TCheck SCRF=Check GenChk RB3LYP/6-31G(2df,p) Fr
 eq
 ----------------------------------------------------------------------

 Structure from the checkpoint file:  "/scratch/puck/g09_553876aa-f6de-45df-9b93-0236585b9fbb/Gau-1139.chk"
 -----
 titel
 -----
 Charge =  0 Multiplicity = 1

                         Standard orientation:
 ---------------------------------------------------------------------
 Center     Atomic      Atomic             Coordinates (Angstroms)
 Number     Number       Type             X           Y           Z
 ---------------------------------------------------------------------
      1          6           0        2.640585    0.089859   -0.131203
      2          6           0        1.189560    0.264093   -0.560414
      3          8           0        0.550156   -1.015524   -0.717392
      4          6           0       -0.406378   -1.153956    0.330784
      5          6           0       -1.818086   -0.840028   -0.189013
      6          6           0       -1.960498    0.644012   -0.420947
      7          6           0       -0.976561    1.483493   -0.101749
      8          6           0        0.287707    0.926060    0.510554
      9          8           0       -0.034040   -0.216500    1.316468
     10          1           0        2.690569   -0.352931    0.867552
     11          1           0        3.162149   -0.569971   -0.829946
     12          1           0        3.159564    1.054600   -0.117362
     13          1           0        1.126674    0.791584   -1.518254
     14          1           0       -0.331106   -2.158390    0.758202
     15          1           0       -1.980124   -1.398194   -1.118897
     16          1           0       -2.571484   -1.195567    0.527602
     17          1           0       -2.891575    1.005938   -0.848344
     18          1           0       -1.044165    2.551746   -0.281680
     19          1           0        0.812590    1.646176    1.140460
 ---------------------------------------------------------------------

 SCF Done:  E(RB3LYP) =  -423.207818531     A.U. after    1 cycles

 The electronic state is 1-A.
 Alpha  occ. eigenvalues --  -19.14517 -19.13635 -10.27380 -10.23700 -10.23318
 Alpha  occ. eigenvalues --  -10.18823 -10.18538 -10.18202 -10.17270  -1.08661
 Alpha  occ. eigenvalues --   -0.98592  -0.80141  -0.79393  -0.71964  -0.65313
 Alpha  occ. eigenvalues --   -0.62844  -0.59106  -0.53693  -0.52563  -0.47816
 Alpha  occ. eigenvalues --   -0.46078  -0.44790  -0.41617  -0.41216  -0.40962
 Alpha  occ. eigenvalues --   -0.40302  -0.37438  -0.37120  -0.35116  -0.32912
 Alpha  occ. eigenvalues --   -0.32810  -0.26474  -0.25799  -0.24262
 Alpha virt. eigenvalues --    0.01295   0.09237   0.12031   0.12322   0.12922
 Alpha virt. eigenvalues --    0.13703   0.14935   0.15977   0.16267   0.16674
 Alpha virt. eigenvalues --    0.17554   0.18553   0.19374   0.20912   0.22142

 Mulliken charges:
               1
     1  C   -0.408502
     2  C    0.143063
     3  O   -0.295077
     4  C    0.182922
     5  C   -0.274462
     6  C   -0.059531
     7  C   -0.065238
     8  C   -0.008790
     9  O   -0.253637
    10  H    0.131054
    11  H    0.125309
    12  H    0.108554
    13  H    0.084340
    14  H    0.087129
    15  H    0.119165
    16  H    0.110076
    17  H    0.094589
    18  H    0.090922
    19  H    0.088116
 Sum of Mulliken charges =   0.00000

 Dipole moment (field-independent basis, Debye):
    X=             -0.3455    Y=              1.0057    Z=             -0.4586  Tot=              1.1581
 Quadrupole moment (field-independent basis, Debye-Ang):
   XX=            -50.0205   YY=            -50.2099   ZZ=            -56.5577
   XY=              2.6538   XZ=              1.0227   YZ=             -1.3266

  Exact polarizability:  89.079   6.951  77.811   3.301  -1.082  59.046
 Approx polarizability: 118.355  15.910 118.551   5.160   1.561  95.477

                      1                      2                      3
                      A                      A                      A
 Frequencies --    123.3650               215.9047               247.0846
 Red. masses --      3.5477                 2.0840                 1.1799
 Frc consts  --      0.0318                 0.0572                 0.0424
 IR Inten    --      1.2127                 0.7433                 0.1101

                      4                      5                      6
                      A                      A                      A
 Frequencies --    268.0693               343.5199               413.8590
 Red. masses --      2.2928                 3.7635                 2.7935
 Frc consts  --      0.0971                 0.2617                 0.2819
 IR Inten    --      0.8986                 0.7256                 5.1636

                      7                      8                      9
                      A                      A                      A
 Frequencies --    479.7624               497.3053               608.5882
 Red. masses --      4.8416                 2.8888                 4.5737
 Frc consts  --      0.6566                 0.4209                 0.9981
 IR Inten    --      3.9791                 5.5347                 0.9284

                     10                     11                     12
                      A                      A                      A
 Frequencies --    689.3944               713.2329               765.9778
 Red. masses --      1.6171                 4.1509                 3.2421
 Frc consts  --      0.4528                 1.2441                 1.1207
 IR Inten    --     11.5608                 7.7152                 0.1129

                     13                     14                     15
                      A                      A                      A
 Frequencies --    840.1674               863.5127               870.6637
 Red. masses --      3.8167                 2.9354                 3.3246
 Frc consts  --      1.5874                 1.2896                 1.4849
 IR Inten    --     11.8686                 3.9931                24.1519

                     16                     17                     18
                      A                      A                      A
 Frequencies --    912.0403               927.5096               963.6678
 Red. masses --      2.6729                 2.7754                 2.4356
 Frc consts  --      1.3099                 1.4067                 1.3326
 IR Inten    --     25.3482                45.6576                 5.9705

                     19                     20                     21
                      A                      A                      A
 Frequencies --    983.0335              1003.2627              1016.5908
 Red. masses --      1.2890                 2.4135                 2.2685
 Frc consts  --      0.7339                 1.4313                 1.3813
 IR Inten    --      5.2980                18.1495                12.3625

                     22                     23                     24
                      A                      A                      A
 Frequencies --   1031.9059              1069.4926              1091.4185
 Red. masses --      2.6743                 2.9704                 1.6772
 Frc consts  --      1.6778                 2.0018                 1.1771
 IR Inten    --     72.6748                 9.5279                10.3071

                     25                     26                     27
                      A                      A                      A
 Frequencies --   1127.6042              1143.2785              1183.9307
 Red. masses --      2.0758                 4.2328                 1.1853
 Frc consts  --      1.5551                 3.2597                 0.9789
 IR Inten    --      4.7363                98.7295                 7.6572

                     28                     29                     30
                      A                      A                      A
 Frequencies --   1198.8372              1263.4006              1296.2637
 Red. masses --      1.1174                 1.2877                 1.3974
 Frc consts  --      0.9462                 1.2110                 1.3834
 IR Inten    --      8.8811                 0.8089                 0.2231

                     31                     32                     33
                      A                      A                      A
 Frequencies --   1318.4118              1339.8741              1363.5298
 Red. masses --      1.2640                 1.6413                 1.3834
 Frc consts  --      1.2944                 1.7360                 1.5154
 IR Inten    --      1.6632                34.3174                 2.2135

                     34                     35                     36
                      A                      A                      A
 Frequencies --   1382.4655              1389.7559              1404.1647
 Red. masses --      1.3955                 1.3793                 1.3901
 Frc consts  --      1.5714                 1.5696                 1.6148
 IR Inten    --     10.4541                 3.4688                 6.6509

                     37                     38                     39
                      A                      A                      A
 Frequencies --   1413.5598              1460.3470              1486.0778
 Red. masses --      1.5020                 1.0959                 1.0506
 Frc consts  --      1.7682                 1.3770                 1.3670
 IR Inten    --      0.4675                 3.8535                 3.2033

                     40                     41                     42
                      A                      A                      A
 Frequencies --   1497.6161              1709.5435              3015.4425
 Red. masses --      1.0483                 6.4456                 1.0644
 Frc consts  --      1.3853                11.0988                 5.7024
 IR Inten    --      2.3626                 3.4259                26.0456

                     43                     44                     45
                      A                      A                      A
 Frequencies --   3036.7732              3050.5980              3059.3805
 Red. masses --      1.0365                 1.0848                 1.0963
 Frc consts  --      5.6319                 5.9482                 6.0459
 IR Inten    --     18.7715                29.9100                14.1909

                     46                     47                     48
                      A                      A                      A
 Frequencies --   3070.5514              3104.4452              3110.3684
 Red. masses --      1.0890                 1.0898                 1.0982
 Frc consts  --      6.0496                 6.1883                 6.2599
 IR Inten    --     55.8786                12.7278                30.0029

                     49                     50                     51
                      A                      A                      A
 Frequencies --   3125.3001              3158.7177              3184.8715
 Red. masses --      1.1027                 1.0848                 1.0985
 Frc consts  --      6.3459                 6.3773                 6.5649
 IR Inten    --     19.6165                 9.0456                23.9741

 - Thermochemistry -
 -------------------
 Temperature   298.150 Kelvin.  Pressure   1.00000 Atm.
 Atom     1 has atomic number  6 and mass  12.00000

 Molecular mass:   126.06808 amu.
 Principal axes and moments of inertia in atomic units:
                           1         2         3
     Eigenvalues --   570.869021108.544341286.62517
           X            0.99964   0.02551   0.00875
           Y           -0.02523   0.99922  -0.03051
           Z           -0.00952   0.03028   0.99950
 This molecule is an asymmetric top.
 Rotational symmetry number  1.
 Warning -- assumption of classical behavior for rotation
           may cause significant error
 Rotational temperatures (Kelvin)      0.15172     0.07813     0.06732
 Rotational constants (GHZ):           3.16139     1.62803     1.40269
 Zero-point vibrational energy     423684.0 (Joules/Mol)
                                  101.26291 (Kcal/Mol)
 Warning -- explicit consideration of   9 degrees of freedom as
           vibrations may cause significant error
 Vibrational temperatures:    177.49   310.64   355.50   385.69   494.25
          (Kelvin)            595.45   690.27   715.51   875.62   991.88
                             1026.18  1102.07  1208.81  1242.40  1252.69
                             1312.22  1334.48  1386.50  1414.36  1443.47
                             1462.65  1484.68  1538.76  1570.31  1622.37
                             1644.92  1703.41  1724.86  1817.75  1865.03
                             1896.90  1927.78  1961.81  1989.06  1999.55
                             2020.28  2033.79  2101.11  2138.13  2154.73
                             2459.65  4338.54  4369.23  4389.12  4401.76
                             4417.83  4466.60  4475.12  4496.60  4544.68
                             4582.31

 Zero-point correction=                           0.161373 (Hartree/Particle)
 Thermal correction to Energy=                    0.168692
 Thermal correction to Enthalpy=                  0.169636
 Thermal correction to Gibbs Free Energy=         0.129933
 Sum of electronic and zero-point Energies=           -423.046446
 Sum of electronic and thermal Energies=              -423.039127
 Sum of electronic and thermal Enthalpies=            -423.038183
 Sum of electronic and thermal Free Energies=         -423.077886

                     E (Thermal)             CV                S
                      KCal/Mol        Cal/Mol-Kelvin    Cal/Mol-Kelvin
 Total                  105.856             29.609             83.562
 Electronic               0.000              0.000              0.000
 Translational            0.889              2.981             40.409
 Rotational               0.889              2.981             28.189
 Vibrational            104.078             23.648             14.964
 Vibration     1          0.610              1.930              3.047
 Vibration     2          0.645              1.817              1.993
 Vibration     3          0.661              1.768              1.751
 Vibration     4          0.673              1.732              1.609
 Vibration     5          0.722              1.588              1.196
 Vibration     6          0.777              1.440              0.913
 Vibration     7          0.836              1.295              0.711
 Vibration     8          0.853              1.256              0.665
 Vibration     9          0.967              1.014              0.435

 Optimization completed.
    -- Stationary point found.
 Normal termination of Gaussian 09 at Tue Jan 28 04:01:38 2020.
