 Gaussian 09, Revision D.01,
 Gaussian 09:  ES64L-G09RevD.01 24-Apr-2013

 -----------------------------
 # b3lyp 6-31G(2df,p) opt Freq
 -----------------------------

 -----
 titel
 -----
 Symbolic Z-matrix:
 Charge =  0 Multiplicity = 1

 SCF Done:  E(RB3LYP) =  -423.175545096     A.U. after   14 cycles
 Optimization completed.
    -- Stationary point found.
 Normal termination of Gaussian 09 at Tue Jan 28 02:06:35 2020.

 ----------------------------------------------------------------------
 #N Geom=AllCheck Guess=TCheck SCRF=Check GenChk RB3LYP/6-31G(2df,p) Fr
 eq
 ----------------------------------------------------------------------

 Structure from the checkpoint file:  "/scratch/puck/g09_b40e3889-80e2-4e1f-b509-710ef11d2a8d/Gau-4747.chk"
 -----
 titel
 -----
 Charge =  0 Multiplicity = 1

                         Standard orientation:
 ---------------------------------------------------------------------
 Center     Atomic      Atomic             Coordinates (Angstroms)
 Number     Number       Type             X           Y           Z
 ---------------------------------------------------------------------
      1          8           0       -3.002269   -1.104562    0.167866
      2          6           0       -2.080763   -0.082321    0.393377
      3          6           0       -1.950665    1.036646   -0.579709
      4          6           0       -0.890777   -0.063996   -0.548149
      5          6           0        0.437182    0.263738    0.041077
      6          8           0        0.550278    1.119905    0.903349
      7          6           0        1.613578   -0.505966   -0.453491
      8          6           0        2.723793   -0.797803    0.547981
      9          6           0        2.949073    0.225643   -0.508192
     10          1           0       -3.880044   -0.759235    0.362811
     11          1           0       -1.847336    0.132271    1.435110
     12          1           0       -2.612661    1.037847   -1.438136
     13          1           0       -1.635489    2.002773   -0.202138
     14          1           0       -0.925411   -0.798043   -1.344237
     15          1           0        1.421077   -1.251364   -1.216249
     16          1           0        2.543452   -0.442989    1.555967
     17          1           0        3.219572   -1.758165    0.466795
     18          1           0        2.919351    1.266673   -0.208162
     19          1           0        3.604888   -0.008160   -1.338849
 ---------------------------------------------------------------------

 SCF Done:  E(RB3LYP) =  -423.175545096     A.U. after    1 cycles

 The electronic state is 1-A.
 Alpha  occ. eigenvalues --  -19.14870 -19.11504 -10.26117 -10.24465 -10.19667
 Alpha  occ. eigenvalues --  -10.19524 -10.19391 -10.19351 -10.19270  -1.03590
 Alpha  occ. eigenvalues --   -1.02614  -0.86032  -0.85359  -0.69071  -0.61165
 Alpha  occ. eigenvalues --   -0.60315  -0.59453  -0.54302  -0.52456  -0.50331
 Alpha  occ. eigenvalues --   -0.47001  -0.45851  -0.43600  -0.40710  -0.40031
 Alpha  occ. eigenvalues --   -0.38554  -0.37367  -0.36318  -0.33547  -0.30961
 Alpha  occ. eigenvalues --   -0.28924  -0.28302  -0.26922  -0.24307
 Alpha virt. eigenvalues --   -0.01448   0.07688   0.09021   0.11457   0.12525
 Alpha virt. eigenvalues --    0.14275   0.14530   0.14934   0.15380   0.16593
 Alpha virt. eigenvalues --    0.17991   0.20602   0.21276   0.22881   0.24253

 Mulliken charges:
               1
     1  O   -0.425329
     2  C    0.121056
     3  C   -0.315545
     4  C   -0.148530
     5  C    0.389103
     6  O   -0.369515
     7  C   -0.113856
     8  C   -0.246649
     9  C   -0.248456
    10  H    0.291366
    11  H    0.111599
    12  H    0.117861
    13  H    0.138222
    14  H    0.098864
    15  H    0.088542
    16  H    0.138503
    17  H    0.117587
    18  H    0.138202
    19  H    0.116973
 Sum of Mulliken charges =   0.00000

 Dipole moment (field-independent basis, Debye):
    X=             -0.7876    Y=             -0.6012    Z=             -1.3474  Tot=              1.6725
 Quadrupole moment (field-independent basis, Debye-Ang):
   XX=            -43.0794   YY=            -56.1341   ZZ=            -52.8463
   XY=             -4.9519   XZ=             -2.5538   YZ=             -1.2972

  Exact polarizability: 103.712  -3.221  68.401   0.433   1.292  65.318
 Approx polarizability: 127.755  -1.700 107.630   0.955   7.497 103.198

                      1                      2                      3
                      A                      A                      A
 Frequencies --     44.3832                59.7752               162.4134
 Red. masses --      4.1367                 2.9304                 3.5121
 Frc consts  --      0.0048                 0.0062                 0.0546
 IR Inten    --      2.1129                 1.9502                 3.5231

                      4                      5                      6
                      A                      A                      A
 Frequencies --    178.2310               253.5251               274.2448
 Red. masses --      3.9577                 1.4487                 2.0511
 Frc consts  --      0.0741                 0.0549                 0.0909
 IR Inten    --      0.6705                81.2475                33.9681

                      7                      8                      9
                      A                      A                      A
 Frequencies --    283.8149               326.6394               396.5599
 Red. masses --      4.0946                 4.3857                 3.8204
 Frc consts  --      0.1943                 0.2757                 0.3540
 IR Inten    --     11.7599                 1.9940                 1.1810

                     10                     11                     12
                      A                      A                      A
 Frequencies --    437.8522               660.5990               737.0474
 Red. masses --      2.5817                 2.6323                 3.7542
 Frc consts  --      0.2916                 0.6768                 1.2016
 IR Inten    --      4.7067                 6.2635                 1.3260

                     13                     14                     15
                      A                      A                      A
 Frequencies --    780.3296               810.7076               820.3858
 Red. masses --      1.3770                 1.8327                 1.9133
 Frc consts  --      0.4940                 0.7097                 0.7587
 IR Inten    --      1.2125                 3.5456                 0.7900

                     16                     17                     18
                      A                      A                      A
 Frequencies --    827.8583               858.0768               903.9877
 Red. masses --      1.8298                 2.6530                 2.5026
 Frc consts  --      0.7388                 1.1509                 1.2049
 IR Inten    --      3.8813                38.4863                12.8401

                     19                     20                     21
                      A                      A                      A
 Frequencies --    913.3561               960.7112               991.9479
 Red. masses --      3.0972                 2.2579                 2.8204
 Frc consts  --      1.5223                 1.2278                 1.6351
 IR Inten    --     47.6369                25.5859                52.2956

                     22                     23                     24
                      A                      A                      A
 Frequencies --   1058.4688              1064.2177              1086.3905
 Red. masses --      1.3289                 1.2822                 1.3153
 Frc consts  --      0.8772                 0.8556                 0.9146
 IR Inten    --     21.2558                18.0380                21.9966

                     25                     26                     27
                      A                      A                      A
 Frequencies --   1095.0024              1105.8020              1116.2037
 Red. masses --      1.3330                 1.3594                 1.6113
 Frc consts  --      0.9417                 0.9794                 1.1828
 IR Inten    --      2.0853                94.3697                38.1570

                     28                     29                     30
                      A                      A                      A
 Frequencies --   1127.6560              1136.8165              1184.3736
 Red. masses --      1.1020                 1.5794                 2.2810
 Frc consts  --      0.8256                 1.2026                 1.8852
 IR Inten    --      3.0377                24.9739                16.3133

                     31                     32                     33
                      A                      A                      A
 Frequencies --   1210.7714              1216.0651              1232.4116
 Red. masses --      1.3483                 1.9694                 1.9298
 Frc consts  --      1.1646                 1.7159                 1.7270
 IR Inten    --      0.1858                33.3589                10.3878

                     34                     35                     36
                      A                      A                      A
 Frequencies --   1290.0042              1352.9360              1404.8341
 Red. masses --      1.1993                 1.4477                 1.5321
 Frc consts  --      1.1759                 1.5613                 1.7815
 IR Inten    --     38.5167                31.4392                14.9667

                     37                     38                     39
                      A                      A                      A
 Frequencies --   1424.8670              1453.1058              1467.2810
 Red. masses --      1.5783                 1.0890                 1.8393
 Frc consts  --      1.8880                 1.3548                 2.3330
 IR Inten    --    139.0066                 2.4507                80.2842

                     40                     41                     42
                      A                      A                      A
 Frequencies --   1485.0994              1755.1473              3122.6258
 Red. masses --      1.3667                10.0888                 1.0878
 Frc consts  --      1.7760                18.3113                 6.2492
 IR Inten    --     12.8475                83.5178                13.7207

                     43                     44                     45
                      A                      A                      A
 Frequencies --   3138.3128              3141.6848              3143.3871
 Red. masses --      1.0527                 1.0496                 1.0572
 Frc consts  --      6.1089                 6.1039                 6.1545
 IR Inten    --      7.9489                14.9253                10.9001

                     46                     47                     48
                      A                      A                      A
 Frequencies --   3175.7324              3190.6269              3229.9026
 Red. masses --      1.0900                 1.0898                 1.1188
 Frc consts  --      6.4767                 6.5363                 6.8766
 IR Inten    --      4.7212                 7.6813                 0.3450

                     49                     50                     51
                      A                      A                      A
 Frequencies --   3239.6429              3244.4350              3804.1892
 Red. masses --      1.1182                 1.1168                 1.0661
 Frc consts  --      6.9144                 6.9261                 9.0902
 IR Inten    --      1.8123                 6.0115                28.7974

 - Thermochemistry -
 -------------------
 Temperature   298.150 Kelvin.  Pressure   1.00000 Atm.
 Atom     1 has atomic number  8 and mass  15.99491

 Molecular mass:   126.06808 amu.
 Principal axes and moments of inertia in atomic units:
                           1         2         3
     Eigenvalues --   435.070362132.472742251.30664
           X            0.99988  -0.01555  -0.00043
           Y            0.01553   0.99931  -0.03374
           Z            0.00095   0.03373   0.99943
 This molecule is an asymmetric top.
 Rotational symmetry number  1.
 Warning -- assumption of classical behavior for rotation
           may cause significant error
 Rotational temperatures (Kelvin)      0.19908     0.04062     0.03847
 Rotational constants (GHZ):           4.14816     0.84631     0.80164
 Zero-point vibrational energy     414987.2 (Joules/Mol)
                                   99.18432 (Kcal/Mol)
 Warning -- explicit consideration of  10 degrees of freedom as
           vibrations may cause significant error
 Vibrational temperatures:     63.86    86.00   233.68   256.43   364.77
          (Kelvin)            394.58   408.35   469.96   570.56   629.97
                              950.45  1060.45  1122.72  1166.43  1180.35
                             1191.10  1234.58  1300.64  1314.11  1382.25
                             1427.19  1522.90  1531.17  1563.07  1575.46
                             1591.00  1605.97  1622.44  1635.62  1704.05
                             1742.03  1749.64  1773.16  1856.03  1946.57
                             2021.24  2050.06  2090.69  2111.09  2136.72
                             2525.26  4492.76  4515.33  4520.18  4522.63
                             4569.16  4590.59  4647.10  4661.12  4668.01
                             5473.37

 Zero-point correction=                           0.158060 (Hartree/Particle)
 Thermal correction to Energy=                    0.167221
 Thermal correction to Enthalpy=                  0.168165
 Thermal correction to Gibbs Free Energy=         0.123197
 Sum of electronic and zero-point Energies=           -423.017485
 Sum of electronic and thermal Energies=              -423.008324
 Sum of electronic and thermal Enthalpies=            -423.007380
 Sum of electronic and thermal Free Energies=         -423.052348

                     E (Thermal)             CV                S
                      KCal/Mol        Cal/Mol-Kelvin    Cal/Mol-Kelvin
 Total                  104.933             33.700             94.645
 Electronic               0.000              0.000              0.000
 Translational            0.889              2.981             40.409
 Rotational               0.889              2.981             29.125
 Vibrational            103.155             27.738             25.111
 Vibration     1          0.595              1.980              5.053
 Vibration     2          0.597              1.973              4.465
 Vibration     3          0.623              1.889              2.522
 Vibration     4          0.629              1.869              2.347
 Vibration     5          0.665              1.757              1.706
 Vibration     6          0.677              1.721              1.569
 Vibration     7          0.682              1.704              1.511
 Vibration     8          0.710              1.622              1.277
 Vibration     9          0.763              1.478              0.975
 Vibration    10          0.798              1.388              0.833

 Optimization completed.
    -- Stationary point found.
 Normal termination of Gaussian 09 at Tue Jan 28 02:43:59 2020.
