 Gaussian 09, Revision D.01,
 Gaussian 09:  ES64L-G09RevD.01 24-Apr-2013

 -----------------------------
 # b3lyp 6-31G(2df,p) opt Freq
 -----------------------------

 -----
 titel
 -----
 Symbolic Z-matrix:
 Charge =  0 Multiplicity = 1

 SCF Done:  E(RB3LYP) =  -423.113615034     A.U. after   13 cycles
 Optimization completed.
    -- Stationary point found.
 Normal termination of Gaussian 09 at Tue Jan 28 02:51:59 2020.

 ----------------------------------------------------------------------
 #N Geom=AllCheck Guess=TCheck SCRF=Check GenChk RB3LYP/6-31G(2df,p) Fr
 eq
 ----------------------------------------------------------------------

 Structure from the checkpoint file:  "/scratch/puck/g09_27097d7e-9e64-460d-8c58-d03fa9543aeb/Gau-189996.chk"
 -----
 titel
 -----
 Charge =  0 Multiplicity = 1

                         Standard orientation:
 ---------------------------------------------------------------------
 Center     Atomic      Atomic             Coordinates (Angstroms)
 Number     Number       Type             X           Y           Z
 ---------------------------------------------------------------------
      1          8           0       -2.728546   -0.390757   -0.517421
      2          6           0       -1.590559   -0.198591    0.285828
      3          6           0       -1.096841    1.284556    0.253676
      4          6           0        0.327160    0.734796    0.115112
      5          6           0        0.922331   -0.047046    1.352179
      6          6           0        1.096726   -1.120143    0.273323
      7          8           0        2.060509   -0.481500   -0.621480
      8          6           0        1.570894    0.894806   -0.733959
      9          6           0       -0.223221   -0.650534   -0.366385
     10          1           0       -2.953695   -1.327065   -0.501876
     11          1           0       -1.757828   -0.573394    1.302644
     12          1           0       -1.455371    1.755484   -0.666364
     13          1           0       -1.328405    1.925515    1.107688
     14          1           0        1.836131    0.345994    1.803476
     15          1           0        0.184648   -0.277862    2.119756
     16          1           0        1.426268   -2.146636    0.437297
     17          1           0        2.333191    1.581818   -0.348854
     18          1           0        1.361911    1.131103   -1.782660
     19          1           0       -0.341497   -0.823971   -1.438544
 ---------------------------------------------------------------------

 SCF Done:  E(RB3LYP) =  -423.113615034     A.U. after    1 cycles

 The electronic state is 1-A.
 Alpha  occ. eigenvalues --  -19.14332 -19.12861 -10.24397 -10.23633 -10.22477
 Alpha  occ. eigenvalues --  -10.20046 -10.19059 -10.18376 -10.17884  -1.03055
 Alpha  occ. eigenvalues --   -1.02465  -0.86544  -0.74905  -0.71352  -0.66152
 Alpha  occ. eigenvalues --   -0.61719  -0.56979  -0.53377  -0.52331  -0.49319
 Alpha  occ. eigenvalues --   -0.47235  -0.45754  -0.42807  -0.40646  -0.39239
 Alpha  occ. eigenvalues --   -0.38510  -0.36124  -0.34388  -0.33902  -0.31663
 Alpha  occ. eigenvalues --   -0.30363  -0.27574  -0.25353  -0.23821
 Alpha virt. eigenvalues --    0.07345   0.08292   0.09553   0.10556   0.12543
 Alpha virt. eigenvalues --    0.13773   0.14215   0.14905   0.15864   0.16408
 Alpha virt. eigenvalues --    0.17858   0.19229   0.20090   0.20845   0.21762

 Mulliken charges:
               1
     1  O   -0.431673
     2  C    0.086808
     3  C   -0.344794
     4  C    0.270578
     5  C   -0.272160
     6  C    0.063501
     7  O   -0.293212
     8  C   -0.164174
     9  C   -0.055147
    10  H    0.283086
    11  H    0.074429
    12  H    0.121157
    13  H    0.101298
    14  H    0.100151
    15  H    0.103469
    16  H    0.070976
    17  H    0.098182
    18  H    0.103803
    19  H    0.083723
 Sum of Mulliken charges =   0.00000

 Dipole moment (field-independent basis, Debye):
    X=             -1.0276    Y=             -0.3175    Z=              1.2240  Tot=              1.6294
 Quadrupole moment (field-independent basis, Debye-Ang):
   XX=            -59.1619   YY=            -49.2190   ZZ=            -52.6526
   XY=              5.6567   XZ=              0.4243   YZ=             -0.8940

  Exact polarizability:  83.540   1.560  72.143   0.967  -1.137  69.441
 Approx polarizability: 116.580   1.164 110.598   1.129  -0.531 106.430

                      1                      2                      3
                      A                      A                      A
 Frequencies --    162.4010               264.6019               281.6791
 Red. masses --      3.1688                 1.8305                 2.4285
 Frc consts  --      0.0492                 0.0755                 0.1135
 IR Inten    --      0.5028                45.2023                31.1509

                      4                      5                      6
                      A                      A                      A
 Frequencies --    322.0609               368.1112               412.9396
 Red. masses --      1.9985                 2.3465                 3.6764
 Frc consts  --      0.1221                 0.1873                 0.3694
 IR Inten    --     38.3162                 2.1233                10.1714

                      7                      8                      9
                      A                      A                      A
 Frequencies --    476.6497               491.8861               539.1814
 Red. masses --      3.0317                 2.1639                 3.0812
 Frc consts  --      0.4058                 0.3085                 0.5278
 IR Inten    --      5.3570                 6.0780                 2.7199

                     10                     11                     12
                      A                      A                      A
 Frequencies --    649.3448               714.7372               821.1864
 Red. masses --      3.6983                 2.8053                 3.2331
 Frc consts  --      0.9188                 0.8444                 1.2846
 IR Inten    --      1.8539                 1.2216                 6.4534

                     13                     14                     15
                      A                      A                      A
 Frequencies --    850.6838               856.8697               880.2031
 Red. masses --      3.5400                 4.1068                 2.1726
 Frc consts  --      1.5094                 1.7766                 0.9917
 IR Inten    --     19.6219                12.9683                 8.9547

                     16                     17                     18
                      A                      A                      A
 Frequencies --    914.4122               918.6004               948.1458
 Red. masses --      3.5636                 2.9280                 2.7096
 Frc consts  --      1.7556                 1.4557                 1.4352
 IR Inten    --     22.3024                15.0387                25.4716

                     19                     20                     21
                      A                      A                      A
 Frequencies --    969.8051               995.8666              1031.7766
 Red. masses --      1.5213                 2.2857                 1.6608
 Frc consts  --      0.8430                 1.3356                 1.0417
 IR Inten    --      5.5905                 7.2048                 2.7700

                     22                     23                     24
                      A                      A                      A
 Frequencies --   1054.2645              1060.0391              1102.3224
 Red. masses --      1.8503                 2.0383                 1.4096
 Frc consts  --      1.2117                 1.3495                 1.0092
 IR Inten    --     38.4135                22.7865                19.3414

                     25                     26                     27
                      A                      A                      A
 Frequencies --   1119.3238              1138.6149              1168.9486
 Red. masses --      1.7932                 2.1158                 1.6052
 Frc consts  --      1.3237                 1.6161                 1.2923
 IR Inten    --      5.8696                47.7515                 1.8285

                     28                     29                     30
                      A                      A                      A
 Frequencies --   1207.1897              1220.1011              1230.1078
 Red. masses --      1.4886                 1.6668                 1.4422
 Frc consts  --      1.2781                 1.4619                 1.2857
 IR Inten    --      5.0442                 5.0883                21.5102

                     31                     32                     33
                      A                      A                      A
 Frequencies --   1243.9448              1246.8725              1263.3636
 Red. masses --      1.1890                 1.5042                 1.6699
 Frc consts  --      1.0840                 1.3779                 1.5703
 IR Inten    --     15.0523                10.2668                 7.8637

                     34                     35                     36
                      A                      A                      A
 Frequencies --   1279.1717              1300.6569              1325.9582
 Red. masses --      1.3798                 1.7070                 1.5919
 Frc consts  --      1.3302                 1.7014                 1.6490
 IR Inten    --      8.3199                17.8154                50.2521

                     37                     38                     39
                      A                      A                      A
 Frequencies --   1361.4305              1428.1512              1479.1286
 Red. masses --      1.8856                 1.3870                 1.1462
 Frc consts  --      2.0592                 1.6668                 1.4775
 IR Inten    --      0.4644                 6.6199                 3.4204

                     40                     41                     42
                      A                      A                      A
 Frequencies --   1496.6001              1528.4238              3018.8047
 Red. masses --      1.1151                 1.1049                 1.0855
 Frc consts  --      1.4716                 1.5208                 5.8282
 IR Inten    --      3.5067                 0.7384                37.1808

                     43                     44                     45
                      A                      A                      A
 Frequencies --   3026.2308              3058.0572              3072.5073
 Red. masses --      1.0564                 1.0573                 1.1063
 Frc consts  --      5.7001                 5.8256                 6.1532
 IR Inten    --     73.2101                33.7224                14.8071

                     46                     47                     48
                      A                      A                      A
 Frequencies --   3076.9197              3089.4840              3114.2935
 Red. masses --      1.0631                 1.0855                 1.0919
 Frc consts  --      5.9299                 6.1047                 6.2393
 IR Inten    --     45.3362                28.6935                59.0528

                     49                     50                     51
                      A                      A                      A
 Frequencies --   3117.3895              3147.1293              3808.0801
 Red. masses --      1.1085                 1.1066                 1.0660
 Frc consts  --      6.3469                 6.4575                 9.1075
 IR Inten    --     22.6424                22.7440                24.4352

 - Thermochemistry -
 -------------------
 Temperature   298.150 Kelvin.  Pressure   1.00000 Atm.
 Atom     1 has atomic number  8 and mass  15.99491

 Molecular mass:   126.06808 amu.
 Principal axes and moments of inertia in atomic units:
                           1         2         3
     Eigenvalues --   504.294471346.109251420.30312
           X            0.99993   0.01201   0.00027
           Y           -0.01196   0.99777  -0.06574
           Z           -0.00106   0.06573   0.99784
 This molecule is an asymmetric top.
 Rotational symmetry number  1.
 Warning -- assumption of classical behavior for rotation
           may cause significant error
 Rotational temperatures (Kelvin)      0.17175     0.06434     0.06098
 Rotational constants (GHZ):           3.57874     1.34071     1.27067
 Zero-point vibrational energy     422608.7 (Joules/Mol)
                                  101.00590 (Kcal/Mol)
 Warning -- explicit consideration of   9 degrees of freedom as
           vibrations may cause significant error
 Vibrational temperatures:    233.66   380.70   405.27   463.37   529.63
          (Kelvin)            594.13   685.79   707.71   775.76   934.26
                             1028.35  1181.50  1223.94  1232.84  1266.41
                             1315.63  1321.66  1364.17  1395.33  1432.83
                             1484.49  1516.85  1525.16  1585.99  1610.46
                             1638.21  1681.85  1736.87  1755.45  1769.85
                             1789.76  1793.97  1817.70  1840.44  1871.35
                             1907.76  1958.79  2054.79  2128.13  2153.27
                             2199.06  4343.38  4354.07  4399.86  4420.65
                             4427.00  4445.07  4480.77  4485.22  4528.01
                             5478.97

 Zero-point correction=                           0.160963 (Hartree/Particle)
 Thermal correction to Energy=                    0.168085
 Thermal correction to Enthalpy=                  0.169029
 Thermal correction to Gibbs Free Energy=         0.129857
 Sum of electronic and zero-point Energies=           -422.952652
 Sum of electronic and thermal Energies=              -422.945530
 Sum of electronic and thermal Enthalpies=            -422.944586
 Sum of electronic and thermal Free Energies=         -422.983758

                     E (Thermal)             CV                S
                      KCal/Mol        Cal/Mol-Kelvin    Cal/Mol-Kelvin
 Total                  105.475             29.815             82.446
 Electronic               0.000              0.000              0.000
 Translational            0.889              2.981             40.409
 Rotational               0.889              2.981             28.357
 Vibrational            103.698             23.853             13.680
 Vibration     1          0.623              1.889              2.522
 Vibration     2          0.671              1.738              1.631
 Vibration     3          0.681              1.708              1.523
 Vibration     4          0.707              1.631              1.300
 Vibration     5          0.741              1.538              1.088
 Vibration     6          0.777              1.442              0.916
 Vibration     7          0.833              1.302              0.719
 Vibration     8          0.848              1.268              0.679
 Vibration     9          0.894              1.163              0.567

 Optimization completed.
    -- Stationary point found.
 Normal termination of Gaussian 09 at Tue Jan 28 03:41:37 2020.
