 Gaussian 09, Revision D.01,
 Gaussian 09:  ES64L-G09RevD.01 24-Apr-2013

 -----------------------------
 # b3lyp 6-31G(2df,p) opt Freq
 -----------------------------

 -----
 titel
 -----
 Symbolic Z-matrix:
 Charge =  0 Multiplicity = 1

 SCF Done:  E(RB3LYP) =  -423.159206926     A.U. after   14 cycles
 SCF Done:  E(RB3LYP) =  -423.159207448     A.U. after    7 cycles
 SCF Done:  E(RB3LYP) =  -423.159208428     A.U. after    9 cycles
 SCF Done:  E(RB3LYP) =  -423.159210159     A.U. after    9 cycles
 SCF Done:  E(RB3LYP) =  -423.159212664     A.U. after    9 cycles
 SCF Done:  E(RB3LYP) =  -423.159224315     A.U. after   11 cycles
 SCF Done:  E(RB3LYP) =  -423.159236347     A.U. after   11 cycles
 SCF Done:  E(RB3LYP) =  -423.159224956     A.U. after   11 cycles
 SCF Done:  E(RB3LYP) =  -423.155643224     A.U. after   12 cycles
 SCF Done:  E(RB3LYP) =  -423.159240437     A.U. after    9 cycles
 SCF Done:  E(RB3LYP) =  -423.159242927     A.U. after   10 cycles
 SCF Done:  E(RB3LYP) =  -423.159247493     A.U. after   10 cycles
 SCF Done:  E(RB3LYP) =  -423.159248437     A.U. after    8 cycles
 SCF Done:  E(RB3LYP) =  -423.159249053     A.U. after    8 cycles
 SCF Done:  E(RB3LYP) =  -423.159248885     A.U. after    7 cycles
 Optimization completed.
    -- Stationary point found.
 Normal termination of Gaussian 09 at Tue Jan 28 04:50:30 2020.

 ----------------------------------------------------------------------
 #N Geom=AllCheck Guess=TCheck SCRF=Check GenChk RB3LYP/6-31G(2df,p) Fr
 eq
 ----------------------------------------------------------------------

 Structure from the checkpoint file:  "/scratch/puck/g09_c616a7c3-92df-40b2-9ece-e846a24191a2/Gau-38818.chk"
 -----
 titel
 -----
 Charge =  0 Multiplicity = 1

                         Standard orientation:
 ---------------------------------------------------------------------
 Center     Atomic      Atomic             Coordinates (Angstroms)
 Number     Number       Type             X           Y           Z
 ---------------------------------------------------------------------
      1          8           0       -0.545537    2.269181   -0.643018
      2          6           0       -1.113578    1.121985   -0.111065
      3          6           0       -0.760204    0.578813    1.216368
      4          6           0       -0.274141   -0.183482   -0.025276
      5          6           0       -1.042136   -1.404534   -0.365243
      6          8           0       -2.168493   -1.632389    0.018229
      7          6           0        1.151670   -0.108524   -0.493600
      8          6           0        2.149349   -1.173683   -0.095592
      9          6           0        2.305265    0.226950    0.428338
     10          1           0        0.274981    2.458947   -0.176200
     11          1           0       -2.131602    0.996308   -0.462430
     12          1           0       -0.004704    1.096025    1.798854
     13          1           0       -1.541461    0.087289    1.786182
     14          1           0       -0.511256   -2.113436   -1.037942
     15          1           0        1.259013    0.268013   -1.508036
     16          1           0        1.820661   -1.932657    0.606164
     17          1           0        2.846526   -1.530554   -0.844980
     18          1           0        2.094763    0.390546    1.479508
     19          1           0        3.107979    0.840023    0.033619
 ---------------------------------------------------------------------

 SCF Done:  E(RB3LYP) =  -423.159248885     A.U. after    1 cycles

 The electronic state is 1-A.
 Alpha  occ. eigenvalues --  -19.16047 -19.12861 -10.26225 -10.25416 -10.20750
 Alpha  occ. eigenvalues --  -10.20576 -10.20039 -10.20005 -10.19772  -1.04825
 Alpha  occ. eigenvalues --   -1.03532  -0.88280  -0.84387  -0.68976  -0.63061
 Alpha  occ. eigenvalues --   -0.61461  -0.60311  -0.55061  -0.52590  -0.50883
 Alpha  occ. eigenvalues --   -0.48869  -0.46156  -0.42965  -0.41660  -0.40604
 Alpha  occ. eigenvalues --   -0.39514  -0.37606  -0.37056  -0.36509  -0.32287
 Alpha  occ. eigenvalues --   -0.30943  -0.29353  -0.25564  -0.24024
 Alpha virt. eigenvalues --   -0.01929   0.06781   0.08617   0.09199   0.10325
 Alpha virt. eigenvalues --    0.12252   0.12966   0.14307   0.15054   0.16707
 Alpha virt. eigenvalues --    0.17744   0.18558   0.21135   0.21740   0.23558

 Mulliken charges:
               1
     1  O   -0.412079
     2  C    0.131549
     3  C   -0.372776
     4  C    0.160777
     5  C    0.095206
     6  O   -0.284953
     7  C   -0.115420
     8  C   -0.267195
     9  C   -0.277235
    10  H    0.293938
    11  H    0.133188
    12  H    0.113569
    13  H    0.145399
    14  H    0.075265
    15  H    0.105285
    16  H    0.121105
    17  H    0.118430
    18  H    0.118172
    19  H    0.117775
 Sum of Mulliken charges =   0.00000

 Dipole moment (field-independent basis, Debye):
    X=              3.2179    Y=              0.9449    Z=              0.5752  Tot=              3.4028
 Quadrupole moment (field-independent basis, Debye-Ang):
   XX=            -57.4960   YY=            -56.2960   ZZ=            -52.0848
   XY=             -1.8915   XZ=             -0.7043   YZ=              3.1539

  Exact polarizability:  83.709   1.853  81.040  -2.448   3.924  64.849
 Approx polarizability: 119.034   6.060 122.599  -3.710   3.023 101.459

                      1                      2                      3
                      A                      A                      A
 Frequencies --     40.1318               122.3277               144.1067
 Red. masses --      2.6442                 4.6933                 3.8078
 Frc consts  --      0.0025                 0.0414                 0.0466
 IR Inten    --      3.6219                 6.7163                 0.4613

                      4                      5                      6
                      A                      A                      A
 Frequencies --    204.1251               219.0620               245.8054
 Red. masses --      3.3170                 1.4152                 2.0637
 Frc consts  --      0.0814                 0.0400                 0.0735
 IR Inten    --      1.6069                47.9627                58.2885

                      7                      8                      9
                      A                      A                      A
 Frequencies --    265.4602               321.0379               426.3776
 Red. masses --      2.4836                 4.2980                 3.1532
 Frc consts  --      0.1031                 0.2610                 0.3377
 IR Inten    --     25.5843                 2.5256                 2.0876

                     10                     11                     12
                      A                      A                      A
 Frequencies --    470.0415               554.5921               583.4227
 Red. masses --      2.3010                 4.1744                 2.8701
 Frc consts  --      0.2995                 0.7565                 0.5756
 IR Inten    --      2.7806                 8.7405                 9.0011

                     13                     14                     15
                      A                      A                      A
 Frequencies --    716.3545               746.3888               798.5033
 Red. masses --      3.4406                 4.5509                 1.1046
 Frc consts  --      1.0403                 1.4937                 0.4150
 IR Inten    --      9.9609                19.7255                 3.2102

                     16                     17                     18
                      A                      A                      A
 Frequencies --    834.7649               868.8906               905.0124
 Red. masses --      1.2638                 2.1685                 2.4363
 Frc consts  --      0.5188                 0.9646                 1.1757
 IR Inten    --     14.0374                47.2338                20.1601

                     19                     20                     21
                      A                      A                      A
 Frequencies --    920.8121               958.8287              1000.3481
 Red. masses --      3.3634                 1.7648                 1.9704
 Frc consts  --      1.6803                 0.9559                 1.1617
 IR Inten    --      1.7308                37.0814                74.1268

                     22                     23                     24
                      A                      A                      A
 Frequencies --   1052.4440              1059.5233              1071.4711
 Red. masses --      1.5312                 1.3145                 1.3844
 Frc consts  --      0.9993                 0.8695                 0.9364
 IR Inten    --     10.6128                 9.6092                10.4370

                     25                     26                     27
                      A                      A                      A
 Frequencies --   1091.2822              1106.6194              1127.9802
 Red. masses --      1.3478                 1.6645                 1.2945
 Frc consts  --      0.9457                 1.2010                 0.9704
 IR Inten    --      1.3450                22.7312                 7.2126

                     28                     29                     30
                      A                      A                      A
 Frequencies --   1142.0175              1186.1055              1202.0029
 Red. masses --      1.1090                 2.4531                 1.4290
 Frc consts  --      0.8522                 2.0334                 1.2165
 IR Inten    --      0.6916                29.3944                 0.3688

                     31                     32                     33
                      A                      A                      A
 Frequencies --   1209.7036              1245.1938              1300.3243
 Red. masses --      2.6149                 1.9476                 1.7169
 Frc consts  --      2.2545                 1.7792                 1.7104
 IR Inten    --      6.9695                50.8142                23.8790

                     34                     35                     36
                      A                      A                      A
 Frequencies --   1338.9456              1401.7627              1425.6860
 Red. masses --      1.7399                 1.5788                 1.3163
 Frc consts  --      1.8378                 1.8278                 1.5764
 IR Inten    --      4.6204                10.5819                62.2239

                     37                     38                     39
                      A                      A                      A
 Frequencies --   1430.1598              1466.7119              1470.3910
 Red. masses --      1.3697                 1.4285                 1.1483
 Frc consts  --      1.6506                 1.8106                 1.4627
 IR Inten    --      7.2984                58.9223                 8.7554

                     40                     41                     42
                      A                      A                      A
 Frequencies --   1504.6352              1789.7103              2889.1756
 Red. masses --      1.3428                 9.8986                 1.0832
 Frc consts  --      1.7912                18.6806                 5.3272
 IR Inten    --      1.0204               166.0327               105.9142

                     43                     44                     45
                      A                      A                      A
 Frequencies --   3129.1916              3131.1098              3134.1650
 Red. masses --      1.0546                 1.0818                 1.0513
 Frc consts  --      6.0840                 6.2485                 6.0844
 IR Inten    --      5.5606                 9.1170                18.5840

                     46                     47                     48
                      A                      A                      A
 Frequencies --   3138.9551              3185.8128              3212.9963
 Red. masses --      1.0620                 1.0904                 1.1179
 Frc consts  --      6.1654                 6.5204                 6.7993
 IR Inten    --      6.2145                 3.8065                 0.4958

                     49                     50                     51
                      A                      A                      A
 Frequencies --   3225.3514              3228.4305              3821.8298
 Red. masses --      1.1165                 1.1158                 1.0658
 Frc consts  --      6.8432                 6.8519                 9.1719
 IR Inten    --      5.6844                13.3065                26.1505

 - Thermochemistry -
 -------------------
 Temperature   298.150 Kelvin.  Pressure   1.00000 Atm.
 Atom     1 has atomic number  8 and mass  15.99491

 Molecular mass:   126.06808 amu.
 Principal axes and moments of inertia in atomic units:
                           1         2         3
     Eigenvalues --   892.156411178.194081751.46686
           X            0.99840  -0.05636  -0.00537
           Y            0.05648   0.99813   0.02330
           Z            0.00404  -0.02357   0.99971
 This molecule is an asymmetric top.
 Rotational symmetry number  1.
 Warning -- assumption of classical behavior for rotation
           may cause significant error
 Rotational temperatures (Kelvin)      0.09708     0.07351     0.04945
 Rotational constants (GHZ):           2.02290     1.53179     1.03042
 Zero-point vibrational energy     413106.9 (Joules/Mol)
                                   98.73492 (Kcal/Mol)
 Warning -- explicit consideration of  12 degrees of freedom as
           vibrations may cause significant error
 Vibrational temperatures:     57.74   176.00   207.34   293.69   315.18
          (Kelvin)            353.66   381.94   461.90   613.46   676.28
                              797.93   839.41  1030.67  1073.89  1148.87
                             1201.04  1250.14  1302.11  1324.84  1379.54
                             1439.28  1514.23  1524.42  1541.61  1570.11
                             1592.18  1622.91  1643.11  1706.54  1729.41
                             1740.49  1791.55  1870.87  1926.44  2016.82
                             2051.24  2057.68  2110.27  2115.56  2164.83
                             2574.99  4156.87  4502.20  4504.96  4509.36
                             4516.25  4583.67  4622.78  4640.56  4644.99
                             5498.75

 Zero-point correction=                           0.157344 (Hartree/Particle)
 Thermal correction to Energy=                    0.166601
 Thermal correction to Enthalpy=                  0.167546
 Thermal correction to Gibbs Free Energy=         0.122807
 Sum of electronic and zero-point Energies=           -423.001905
 Sum of electronic and thermal Energies=              -422.992648
 Sum of electronic and thermal Enthalpies=            -422.991703
 Sum of electronic and thermal Free Energies=         -423.036442

                     E (Thermal)             CV                S
                      KCal/Mol        Cal/Mol-Kelvin    Cal/Mol-Kelvin
 Total                  104.544             34.241             94.161
 Electronic               0.000              0.000              0.000
 Translational            0.889              2.981             40.409
 Rotational               0.889              2.981             29.000
 Vibrational            102.766             28.280             24.753
 Vibration     1          0.594              1.981              5.253
 Vibration     2          0.610              1.930              3.063
 Vibration     3          0.616              1.909              2.749
 Vibration     4          0.640              1.834              2.096
 Vibration     5          0.647              1.812              1.967
 Vibration     6          0.660              1.770              1.760
 Vibration     7          0.671              1.736              1.626
 Vibration     8          0.707              1.633              1.305
 Vibration     9          0.788              1.413              0.871
 Vibration    10          0.827              1.317              0.737
 Vibration    11          0.910              1.130              0.535
 Vibration    12          0.940              1.067              0.479

 Optimization completed.
    -- Stationary point found.
 Normal termination of Gaussian 09 at Tue Jan 28 05:59:02 2020.
