 Gaussian 09, Revision D.01,
 Gaussian 09:  ES64L-G09RevD.01 24-Apr-2013

 -----------------------------
 # b3lyp 6-31G(2df,p) opt Freq
 -----------------------------

 -----
 titel
 -----
 Symbolic Z-matrix:
 Charge =  0 Multiplicity = 1

 SCF Done:  E(RB3LYP) =  -423.196414749     A.U. after   14 cycles
 Optimization completed.
    -- Stationary point found.
 Normal termination of Gaussian 09 at Mon Jan 27 22:03:58 2020.

 ----------------------------------------------------------------------
 #N Geom=AllCheck Guess=TCheck SCRF=Check GenChk RB3LYP/6-31G(2df,p) Fr
 eq
 ----------------------------------------------------------------------

 Structure from the checkpoint file:  "/scratch/puck/g09_4afbc020-d067-4322-9107-a3c19785f7e9/Gau-53252.chk"
 -----
 titel
 -----
 Charge =  0 Multiplicity = 1

                         Standard orientation:
 ---------------------------------------------------------------------
 Center     Atomic      Atomic             Coordinates (Angstroms)
 Number     Number       Type             X           Y           Z
 ---------------------------------------------------------------------
      1          6           0        2.344683    1.310719    0.190986
      2          6           0        1.295588    0.286048   -0.090854
      3          6           0        0.032263    0.443223   -0.478626
      4          6           0       -1.016035    1.499030   -0.381961
      5          6           0       -1.993113    0.732789    0.555534
      6          8           0       -1.874536   -0.661769    0.232129
      7          6           0       -0.674606   -0.882231   -0.493066
      8          8           0        0.226425   -1.800237    0.091356
      9          6           0        1.517244   -1.191765    0.161104
     10          1           0        3.206592    1.190134   -0.477346
     11          1           0        1.961103    2.325590    0.058508
     12          1           0        2.727105    1.214996    1.214769
     13          1           0       -0.672842    2.441396    0.050190
     14          1           0       -1.495231    1.709766   -1.345255
     15          1           0       -1.714969    0.903064    1.604632
     16          1           0       -3.039509    1.022080    0.421226
     17          1           0       -0.967430   -1.274481   -1.479912
     18          1           0        2.193026   -1.662687   -0.570895
     19          1           0        1.950903   -1.360698    1.157500
 ---------------------------------------------------------------------

 SCF Done:  E(RB3LYP) =  -423.196414749     A.U. after    1 cycles

 The electronic state is 1-A.
 Alpha  occ. eigenvalues --  -19.13376 -19.13328 -10.26507 -10.23198 -10.23195
 Alpha  occ. eigenvalues --  -10.19832 -10.19806 -10.19446 -10.18375  -1.05787
 Alpha  occ. eigenvalues --   -1.00600  -0.82229  -0.76215  -0.72978  -0.69502
 Alpha  occ. eigenvalues --   -0.62398  -0.57885  -0.54316  -0.50265  -0.47921
 Alpha  occ. eigenvalues --   -0.46113  -0.45721  -0.43819  -0.42414  -0.41259
 Alpha  occ. eigenvalues --   -0.40298  -0.38996  -0.36493  -0.35772  -0.32478
 Alpha  occ. eigenvalues --   -0.30330  -0.26251  -0.25436  -0.24216
 Alpha virt. eigenvalues --    0.00662   0.08174   0.11103   0.11353   0.12203
 Alpha virt. eigenvalues --    0.13558   0.14941   0.16089   0.16747   0.17198
 Alpha virt. eigenvalues --    0.17313   0.18027   0.19231   0.20709   0.22665

 Mulliken charges:
               1
     1  C   -0.496390
     2  C    0.164656
     3  C    0.107890
     4  C   -0.340894
     5  C   -0.061094
     6  O   -0.273023
     7  C    0.198671
     8  O   -0.272677
     9  C   -0.151712
    10  H    0.135718
    11  H    0.129647
    12  H    0.131865
    13  H    0.112041
    14  H    0.116792
    15  H    0.102480
    16  H    0.108643
    17  H    0.070843
    18  H    0.105459
    19  H    0.111084
 Sum of Mulliken charges =   0.00000

 Dipole moment (field-independent basis, Debye):
    X=              1.6478    Y=              2.8707    Z=             -0.3671  Tot=              3.3303
 Quadrupole moment (field-independent basis, Debye-Ang):
   XX=            -50.5479   YY=            -55.5712   ZZ=            -52.3272
   XY=             -3.5121   XZ=              1.4697   YZ=              1.6304

  Exact polarizability:  99.512  -5.638  74.486   5.307   1.632  61.442
 Approx polarizability: 141.830  -7.432 105.500  11.690   0.550  95.091

                      1                      2                      3
                      A                      A                      A
 Frequencies --     94.3610               130.4503               158.1826
 Red. masses --      4.3889                 2.2286                 1.1637
 Frc consts  --      0.0230                 0.0223                 0.0172
 IR Inten    --      0.1028                 2.6602                 0.2726

                      4                      5                      6
                      A                      A                      A
 Frequencies --    176.6572               242.8959               320.5148
 Red. masses --      2.1834                 2.1891                 2.4500
 Frc consts  --      0.0401                 0.0761                 0.1483
 IR Inten    --      1.8289                 0.0359                 1.0023

                      7                      8                      9
                      A                      A                      A
 Frequencies --    438.6081               447.0934               567.3895
 Red. masses --      6.0054                 2.5652                 4.6868
 Frc consts  --      0.6807                 0.3021                 0.8890
 IR Inten    --      2.7459                 1.0650                 9.4966

                     10                     11                     12
                      A                      A                      A
 Frequencies --    643.8312               666.3152               714.5478
 Red. masses --      3.8665                 4.1341                 3.6946
 Frc consts  --      0.9443                 1.0814                 1.1114
 IR Inten    --      1.6149                10.4238                 6.4068

                     13                     14                     15
                      A                      A                      A
 Frequencies --    841.1079               870.4678               912.6244
 Red. masses --      2.8787                 3.0038                 2.0207
 Frc consts  --      1.1999                 1.3410                 0.9916
 IR Inten    --      8.8407                13.4113                 2.0356

                     16                     17                     18
                      A                      A                      A
 Frequencies --    937.6312               960.1628               972.7314
 Red. masses --      2.0160                 3.2596                 1.7557
 Frc consts  --      1.0442                 1.7706                 0.9788
 IR Inten    --      4.2048                51.9725                 4.8596

                     19                     20                     21
                      A                      A                      A
 Frequencies --    987.3533              1027.5464              1052.1495
 Red. masses --      2.6196                 2.2807                 4.0431
 Frc consts  --      1.5047                 1.4188                 2.6371
 IR Inten    --      1.8327                62.3936               192.3411

                     22                     23                     24
                      A                      A                      A
 Frequencies --   1082.2674              1092.3650              1128.8018
 Red. masses --      2.7413                 2.6449                 2.2894
 Frc consts  --      1.8918                 1.8595                 1.7187
 IR Inten    --     28.6690                28.1293                 4.7701

                     25                     26                     27
                      A                      A                      A
 Frequencies --   1175.7702              1195.3334              1208.7457
 Red. masses --      2.7857                 1.1353                 1.3681
 Frc consts  --      2.2690                 0.9558                 1.1777
 IR Inten    --      9.0869                 0.7179                 2.1889

                     28                     29                     30
                      A                      A                      A
 Frequencies --   1224.2853              1262.3493              1295.9483
 Red. masses --      1.2820                 1.8538                 1.3604
 Frc consts  --      1.1321                 1.7405                 1.3461
 IR Inten    --      6.9919                 7.8729                 2.0098

                     31                     32                     33
                      A                      A                      A
 Frequencies --   1343.8081              1364.4835              1395.4552
 Red. masses --      2.2072                 1.3722                 1.5057
 Frc consts  --      2.3483                 1.5052                 1.7275
 IR Inten    --     17.9593                 5.3799                13.2222

                     34                     35                     36
                      A                      A                      A
 Frequencies --   1405.7337              1416.0562              1478.1516
 Red. masses --      1.1425                 1.3089                 1.0537
 Frc consts  --      1.3302                 1.5464                 1.3564
 IR Inten    --      7.9078                 4.8797                 4.9812

                     37                     38                     39
                      A                      A                      A
 Frequencies --   1481.9973              1488.3435              1515.8436
 Red. masses --      1.1023                 1.0512                 1.0865
 Frc consts  --      1.4264                 1.3719                 1.4709
 IR Inten    --      4.0052                 6.4220                 0.6043

                     40                     41                     42
                      A                      A                      A
 Frequencies --   1522.9746              1778.5420              2969.5176
 Red. masses --      1.0889                 9.2022                 1.0796
 Frc consts  --      1.4880                17.1502                 5.6092
 IR Inten    --      0.4258                 5.9660                79.3048

                     43                     44                     45
                      A                      A                      A
 Frequencies --   2976.2340              3008.7666              3011.7515
 Red. masses --      1.0679                 1.0680                 1.0942
 Frc consts  --      5.5734                 5.6963                 5.8477
 IR Inten    --     83.0836                47.4962                41.1477

                     46                     47                     48
                      A                      A                      A
 Frequencies --   3021.5231              3037.5088              3067.9966
 Red. masses --      1.0392                 1.0654                 1.0986
 Frc consts  --      5.5900                 5.7915                 6.0924
 IR Inten    --     37.0209                24.0556                16.1848

                     49                     50                     51
                      A                      A                      A
 Frequencies --   3082.6214              3111.2715              3114.9783
 Red. masses --      1.0972                 1.0991                 1.0989
 Frc consts  --      6.1429                 6.2684                 6.2822
 IR Inten    --     49.9688                17.9001                18.3623

 - Thermochemistry -
 -------------------
 Temperature   298.150 Kelvin.  Pressure   1.00000 Atm.
 Atom     1 has atomic number  6 and mass  12.00000

 Molecular mass:   126.06808 amu.
 Principal axes and moments of inertia in atomic units:
                           1         2         3
     Eigenvalues --   681.555361091.600171608.03180
           X            0.99981  -0.01770   0.00869
           Y            0.01758   0.99975   0.01385
           Z           -0.00893  -0.01370   0.99987
 This molecule is an asymmetric top.
 Rotational symmetry number  1.
 Warning -- assumption of classical behavior for rotation
           may cause significant error
 Rotational temperatures (Kelvin)      0.12708     0.07935     0.05386
 Rotational constants (GHZ):           2.64797     1.65330     1.12233
 Zero-point vibrational energy     421217.4 (Joules/Mol)
                                  100.67337 (Kcal/Mol)
 Warning -- explicit consideration of   9 degrees of freedom as
           vibrations may cause significant error
 Vibrational temperatures:    135.76   187.69   227.59   254.17   349.47
          (Kelvin)            461.15   631.06   643.27   816.35   926.33
                              958.68  1028.07  1210.17  1252.41  1313.06
                             1349.04  1381.46  1399.54  1420.58  1478.41
                             1513.81  1557.14  1571.67  1624.09  1691.67
                             1719.82  1739.11  1761.47  1816.24  1864.58
                             1933.44  1963.18  2007.75  2022.53  2037.39
                             2126.73  2132.26  2141.39  2180.96  2191.22
                             2558.92  4272.47  4282.13  4328.94  4333.23
                             4347.29  4370.29  4414.16  4435.20  4476.42
                             4481.75

 Zero-point correction=                           0.160433 (Hartree/Particle)
 Thermal correction to Energy=                    0.168542
 Thermal correction to Enthalpy=                  0.169487
 Thermal correction to Gibbs Free Energy=         0.127531
 Sum of electronic and zero-point Energies=           -423.035982
 Sum of electronic and thermal Energies=              -423.027872
 Sum of electronic and thermal Enthalpies=            -423.026928
 Sum of electronic and thermal Free Energies=         -423.068884

                     E (Thermal)             CV                S
                      KCal/Mol        Cal/Mol-Kelvin    Cal/Mol-Kelvin
 Total                  105.762             30.398             88.304
 Electronic               0.000              0.000              0.000
 Translational            0.889              2.981             40.409
 Rotational               0.889              2.981             28.572
 Vibrational            103.984             24.437             19.323
 Vibration     1          0.603              1.953              3.568
 Vibration     2          0.612              1.923              2.939
 Vibration     3          0.621              1.893              2.571
 Vibration     4          0.628              1.871              2.363
 Vibration     5          0.659              1.775              1.782
 Vibration     6          0.706              1.634              1.307
 Vibration     7          0.799              1.386              0.831
 Vibration     8          0.806              1.367              0.805
 Vibration     9          0.923              1.102              0.509

 Optimization completed.
    -- Stationary point found.
 Normal termination of Gaussian 09 at Mon Jan 27 22:53:07 2020.
