 Gaussian 09, Revision D.01,
 Gaussian 09:  ES64L-G09RevD.01 24-Apr-2013

 -----------------------------
 # b3lyp 6-31G(2df,p) opt Freq
 -----------------------------

 -----
 titel
 -----
 Symbolic Z-matrix:
 Charge =  0 Multiplicity = 1

 SCF Done:  E(RB3LYP) =  -423.205519092     A.U. after   14 cycles
 Optimization completed.
    -- Stationary point found.
 Normal termination of Gaussian 09 at Tue Jan 28 12:07:26 2020.

 ----------------------------------------------------------------------
 #N Geom=AllCheck Guess=TCheck SCRF=Check GenChk RB3LYP/6-31G(2df,p) Fr
 eq
 ----------------------------------------------------------------------

 Structure from the checkpoint file:  "/scratch/puck/g09_b3ef6367-cf8b-4f0b-9260-afd9a35187fc/Gau-6324.chk"
 -----
 titel
 -----
 Charge =  0 Multiplicity = 1

                         Standard orientation:
 ---------------------------------------------------------------------
 Center     Atomic      Atomic             Coordinates (Angstroms)
 Number     Number       Type             X           Y           Z
 ---------------------------------------------------------------------
      1          8           0       -2.734529   -1.181814   -0.221919
      2          6           0       -1.351854   -1.050288   -0.504896
      3          6           0       -0.608180   -0.175235    0.521870
      4          6           0       -1.135016    1.284829    0.552910
      5          6           0       -0.129154    2.108903   -0.294158
      6          6           0        1.093985    1.236582   -0.324433
      7          6           0        0.852192    0.001293    0.140177
      8          6           0        1.865947   -1.063637    0.236321
      9          8           0        3.024470   -0.950540   -0.099038
     10          1           0       -2.823534   -1.649697    0.614834
     11          1           0       -0.863359   -2.034738   -0.583775
     12          1           0       -1.294140   -0.583541   -1.494552
     13          1           0       -0.712900   -0.657796    1.504232
     14          1           0       -2.162727    1.344244    0.188615
     15          1           0       -1.132284    1.656399    1.581789
     16          1           0       -0.489197    2.293590   -1.316398
     17          1           0        0.074170    3.098046    0.131361
     18          1           0        2.061572    1.560003   -0.691944
     19          1           0        1.495360   -2.022365    0.666741
 ---------------------------------------------------------------------

 SCF Done:  E(RB3LYP) =  -423.205519092     A.U. after    1 cycles

 The electronic state is 1-A.
 Alpha  occ. eigenvalues --  -19.14338 -19.13192 -10.26692 -10.23415 -10.20621
 Alpha  occ. eigenvalues --  -10.19990 -10.19791 -10.19364 -10.18876  -1.03718
 Alpha  occ. eigenvalues --   -1.02415  -0.86164  -0.74780  -0.73613  -0.66416
 Alpha  occ. eigenvalues --   -0.62246  -0.58378  -0.52893  -0.50624  -0.49552
 Alpha  occ. eigenvalues --   -0.48289  -0.44227  -0.43286  -0.41472  -0.39784
 Alpha  occ. eigenvalues --   -0.39331  -0.37147  -0.36165  -0.35415  -0.34967
 Alpha  occ. eigenvalues --   -0.32698  -0.28380  -0.25318  -0.24979
 Alpha virt. eigenvalues --   -0.06097   0.06194   0.06983   0.09373   0.10674
 Alpha virt. eigenvalues --    0.11517   0.14352   0.15188   0.15795   0.16653
 Alpha virt. eigenvalues --    0.17025   0.18887   0.19897   0.20700   0.21764

 Mulliken charges:
               1
     1  O   -0.412574
     2  C   -0.067647
     3  C   -0.143615
     4  C   -0.227645
     5  C   -0.260620
     6  C   -0.126713
     7  C    0.224675
     8  C    0.066309
     9  O   -0.264251
    10  H    0.283045
    11  H    0.091035
    12  H    0.115256
    13  H    0.066771
    14  H    0.121325
    15  H    0.105157
    16  H    0.123139
    17  H    0.117347
    18  H    0.127825
    19  H    0.061180
 Sum of Mulliken charges =   0.00000

 Dipole moment (field-independent basis, Debye):
    X=             -1.9634    Y=              0.7554    Z=              1.2458  Tot=              2.4449
 Quadrupole moment (field-independent basis, Debye-Ang):
   XX=            -68.1734   YY=            -48.7528   ZZ=            -51.3881
   XY=              3.9369   XZ=             -2.7429   YZ=             -3.2720

  Exact polarizability:  86.923  -3.908  91.864  -4.160  -7.466  59.712
 Approx polarizability: 125.522  -7.037 139.702  -6.397 -16.148  94.539

                      1                      2                      3
                      A                      A                      A
 Frequencies --     85.0914               102.6549               122.4491
 Red. masses --      3.4853                 3.8289                 2.3777
 Frc consts  --      0.0149                 0.0238                 0.0210
 IR Inten    --      3.8616                 6.8925                 1.9160

                      4                      5                      6
                      A                      A                      A
 Frequencies --    185.5575               214.6862               231.8468
 Red. masses --      2.8509                 3.3678                 2.4587
 Frc consts  --      0.0578                 0.0915                 0.0779
 IR Inten    --      3.1175                 4.6031                 1.2348

                      7                      8                      9
                      A                      A                      A
 Frequencies --    296.9884               317.9929               395.8753
 Red. masses --      1.7434                 1.4177                 4.9942
 Frc consts  --      0.0906                 0.0845                 0.4611
 IR Inten    --     46.4050                47.9733                23.1417

                     10                     11                     12
                      A                      A                      A
 Frequencies --    509.4167               534.2883               687.0195
 Red. masses --      2.7621                 4.4553                 2.2466
 Frc consts  --      0.4223                 0.7493                 0.6248
 IR Inten    --      6.4547                 2.5436                 4.0736

                     13                     14                     15
                      A                      A                      A
 Frequencies --    740.8152               787.3663               855.9223
 Red. masses --      3.9442                 2.1477                 1.7815
 Frc consts  --      1.2753                 0.7845                 0.7690
 IR Inten    --     42.9910                10.3481                 3.8578

                     16                     17                     18
                      A                      A                      A
 Frequencies --    882.7735               919.7291               942.5000
 Red. masses --      1.7433                 2.2881                 1.8102
 Frc consts  --      0.8004                 1.1403                 0.9474
 IR Inten    --      8.0137                 9.6229                 7.3990

                     19                     20                     21
                      A                      A                      A
 Frequencies --    969.8087              1007.2266              1043.1778
 Red. masses --      2.0322                 2.0249                 1.8725
 Frc consts  --      1.1261                 1.2103                 1.2006
 IR Inten    --      8.6368                 4.9368                 6.2032

                     22                     23                     24
                      A                      A                      A
 Frequencies --   1057.6986              1076.5030              1098.2115
 Red. masses --      2.4090                 2.0784                 2.7248
 Frc consts  --      1.5879                 1.4191                 1.9362
 IR Inten    --     86.5290                 4.5539                29.8867

                     25                     26                     27
                      A                      A                      A
 Frequencies --   1149.2697              1152.3489              1217.7248
 Red. masses --      1.1311                 1.9641                 1.3739
 Frc consts  --      0.8802                 1.5367                 1.2004
 IR Inten    --      6.1639                28.4638                10.3044

                     28                     29                     30
                      A                      A                      A
 Frequencies --   1239.5976              1263.1661              1299.0570
 Red. masses --      1.5588                 1.5219                 1.5234
 Frc consts  --      1.4112                 1.4307                 1.5147
 IR Inten    --      4.4391                10.4852                 2.4227

                     31                     32                     33
                      A                      A                      A
 Frequencies --   1315.3471              1349.1236              1352.4634
 Red. masses --      1.5015                 1.5670                 1.3522
 Frc consts  --      1.5306                 1.6804                 1.4572
 IR Inten    --      0.2530                 5.7445                 3.9037

                     34                     35                     36
                      A                      A                      A
 Frequencies --   1389.9071              1412.1056              1444.8674
 Red. masses --      1.3098                 1.2338                 1.3089
 Frc consts  --      1.4909                 1.4495                 1.6100
 IR Inten    --      5.1684                47.8216                 4.2305

                     37                     38                     39
                      A                      A                      A
 Frequencies --   1473.5781              1497.8828              1505.6541
 Red. masses --      1.0852                 1.0849                 1.0930
 Frc consts  --      1.3884                 1.4341                 1.4599
 IR Inten    --      7.1026                 2.0074                 3.0210

                     40                     41                     42
                      A                      A                      A
 Frequencies --   1662.7415              1789.3838              2863.8808
 Red. masses --      7.5552                 9.6429                 1.0807
 Frc consts  --     12.3067                18.1913                 5.2224
 IR Inten    --    138.2307               141.6640               127.3396

                     43                     44                     45
                      A                      A                      A
 Frequencies --   2976.9535              2997.2993              3011.5797
 Red. masses --      1.0702                 1.0819                 1.0695
 Frc consts  --      5.5880                 5.7265                 5.7149
 IR Inten    --     58.8632                33.3572                15.4782

                     46                     47                     48
                      A                      A                      A
 Frequencies --   3052.9624              3067.0349              3070.5890
 Red. masses --      1.0829                 1.0745                 1.0921
 Frc consts  --      5.9470                 5.9550                 6.0666
 IR Inten    --     11.2554                34.0623                32.7321

                     49                     50                     51
                      A                      A                      A
 Frequencies --   3115.5362              3206.0781              3812.1824
 Red. masses --      1.1012                 1.0933                 1.0661
 Frc consts  --      6.2979                 6.6210                 9.1285
 IR Inten    --     15.0598                 2.4629                20.1573

 - Thermochemistry -
 -------------------
 Temperature   298.150 Kelvin.  Pressure   1.00000 Atm.
 Atom     1 has atomic number  8 and mass  15.99491

 Molecular mass:   126.06808 amu.
 Principal axes and moments of inertia in atomic units:
                           1         2         3
     Eigenvalues --   763.783191503.262922091.26816
           X            0.99993   0.00953  -0.00640
           Y           -0.00961   0.99987  -0.01270
           Z            0.00627   0.01276   0.99990
 This molecule is an asymmetric top.
 Rotational symmetry number  1.
 Warning -- assumption of classical behavior for rotation
           may cause significant error
 Rotational temperatures (Kelvin)      0.11340     0.05762     0.04142
 Rotational constants (GHZ):           2.36290     1.20055     0.86299
 Zero-point vibrational energy     417221.1 (Joules/Mol)
                                   99.71823 (Kcal/Mol)
 Warning -- explicit consideration of  11 degrees of freedom as
           vibrations may cause significant error
 Vibrational temperatures:    122.43   147.70   176.18   266.98   308.89
          (Kelvin)            333.58   427.30   457.52   569.58   732.94
                              768.72   988.47  1065.87  1132.84  1231.48
                             1270.11  1323.28  1356.05  1395.34  1449.17
                             1500.90  1521.79  1548.85  1580.08  1653.54
                             1657.97  1752.03  1783.50  1817.41  1869.05
                             1892.49  1941.09  1945.89  1999.76  2031.70
                             2078.84  2120.15  2155.12  2166.30  2392.31
                             2574.52  4120.48  4283.17  4312.44  4332.99
                             4392.53  4412.77  4417.89  4482.56  4612.83
                             5484.87

 Zero-point correction=                           0.158911 (Hartree/Particle)
 Thermal correction to Energy=                    0.167985
 Thermal correction to Enthalpy=                  0.168929
 Thermal correction to Gibbs Free Energy=         0.124630
 Sum of electronic and zero-point Energies=           -423.046608
 Sum of electronic and thermal Energies=              -423.037534
 Sum of electronic and thermal Enthalpies=            -423.036590
 Sum of electronic and thermal Free Energies=         -423.080889

                     E (Thermal)             CV                S
                      KCal/Mol        Cal/Mol-Kelvin    Cal/Mol-Kelvin
 Total                  105.412             32.929             93.236
 Electronic               0.000              0.000              0.000
 Translational            0.889              2.981             40.409
 Rotational               0.889              2.981             29.264
 Vibrational            103.635             26.968             23.564
 Vibration     1          0.601              1.960              3.770
 Vibration     2          0.605              1.947              3.403
 Vibration     3          0.610              1.930              3.061
 Vibration     4          0.632              1.860              2.272
 Vibration     5          0.645              1.819              2.003
 Vibration     6          0.653              1.792              1.865
 Vibration     7          0.691              1.679              1.434
 Vibration     8          0.704              1.639              1.320
 Vibration     9          0.763              1.479              0.978
 Vibration    10          0.865              1.229              0.635
 Vibration    11          0.889              1.174              0.578

 Optimization completed.
    -- Stationary point found.
 Normal termination of Gaussian 09 at Tue Jan 28 13:51:41 2020.
