 Gaussian 09, Revision D.01,
 Gaussian 09:  ES64L-G09RevD.01 24-Apr-2013

 -----------------------------
 # b3lyp 6-31G(2df,p) opt Freq
 -----------------------------

 -----
 titel
 -----
 Symbolic Z-matrix:
 Charge =  0 Multiplicity = 1

 SCF Done:  E(RB3LYP) =  -423.193515209     A.U. after   14 cycles
 Optimization completed.
    -- Stationary point found.
 Normal termination of Gaussian 09 at Mon Jan 27 23:06:51 2020.

 ----------------------------------------------------------------------
 #N Geom=AllCheck Guess=TCheck SCRF=Check GenChk RB3LYP/6-31G(2df,p) Fr
 eq
 ----------------------------------------------------------------------

 Structure from the checkpoint file:  "/scratch/puck/g09_9b3792c4-b293-4d9c-a4c8-4ee587760355/Gau-49699.chk"
 -----
 titel
 -----
 Charge =  0 Multiplicity = 1

                         Standard orientation:
 ---------------------------------------------------------------------
 Center     Atomic      Atomic             Coordinates (Angstroms)
 Number     Number       Type             X           Y           Z
 ---------------------------------------------------------------------
      1          6           0        0.128924    2.200643   -0.138321
      2          6           0       -0.137584    0.836107    0.498713
      3          6           0       -1.593947    0.403256    0.488465
      4          8           0       -2.048025   -0.038563   -0.799266
      5          6           0       -1.689783   -1.024782    0.180609
      6          6           0       -0.297479   -1.589919   -0.012825
      7          6           0        0.591096   -0.338732   -0.237977
      8          6           0        1.992553   -0.506628    0.295915
      9          8           0        3.003357   -0.241365   -0.300943
     10          1           0        1.202322    2.406538   -0.191691
     11          1           0       -0.274115    2.228051   -1.155228
     12          1           0       -0.341184    3.004521    0.437155
     13          1           0        0.184786    0.856679    1.551208
     14          1           0       -2.329625    0.936094    1.086977
     15          1           0       -2.504189   -1.655683    0.527612
     16          1           0       -0.002030   -2.127147    0.898992
     17          1           0       -0.231175   -2.296190   -0.845307
     18          1           0        0.658844   -0.104230   -1.301542
     19          1           0        2.031036   -0.888875    1.346022
 ---------------------------------------------------------------------

 SCF Done:  E(RB3LYP) =  -423.193515209     A.U. after    1 cycles

 The electronic state is 1-A.
 Alpha  occ. eigenvalues --  -19.15508 -19.14178 -10.27235 -10.24318 -10.24086
 Alpha  occ. eigenvalues --  -10.20897 -10.20238 -10.20106 -10.18246  -1.07768
 Alpha  occ. eigenvalues --   -1.04867  -0.83663  -0.76273  -0.70142  -0.67357
 Alpha  occ. eigenvalues --   -0.60737  -0.58210  -0.56638  -0.52530  -0.47618
 Alpha  occ. eigenvalues --   -0.45708  -0.44858  -0.44241  -0.42375  -0.40742
 Alpha  occ. eigenvalues --   -0.39219  -0.38619  -0.37244  -0.36013  -0.35117
 Alpha  occ. eigenvalues --   -0.33267  -0.29980  -0.27098  -0.25218
 Alpha virt. eigenvalues --   -0.02506   0.09106   0.09805   0.10836   0.11214
 Alpha virt. eigenvalues --    0.11652   0.12576   0.14150   0.15053   0.16407
 Alpha virt. eigenvalues --    0.16799   0.17288   0.18323   0.19137   0.20065

 Mulliken charges:
               1
     1  C   -0.408633
     2  C   -0.026564
     3  C    0.035130
     4  O   -0.257367
     5  C    0.045988
     6  C   -0.288451
     7  C   -0.067176
     8  C    0.150316
     9  O   -0.249962
    10  H    0.132635
    11  H    0.137030
    12  H    0.115665
    13  H    0.078045
    14  H    0.096643
    15  H    0.099302
    16  H    0.106536
    17  H    0.124712
    18  H    0.108465
    19  H    0.067687
 Sum of Mulliken charges =   0.00000

 Dipole moment (field-independent basis, Debye):
    X=             -1.7959    Y=             -0.5588    Z=              2.3090  Tot=              2.9780
 Quadrupole moment (field-independent basis, Debye-Ang):
   XX=            -64.9223   YY=            -49.3003   ZZ=            -53.2074
   XY=              0.7142   XZ=             -1.3258   YZ=              0.2869

  Exact polarizability:  83.626   1.134  78.149  -2.650  -0.483  64.065
 Approx polarizability: 117.891   1.798 109.038  -4.644  -1.566 107.105

                      1                      2                      3
                      A                      A                      A
 Frequencies --     51.5815                84.8828               190.3250
 Red. masses --      4.9770                 3.6196                 3.5054
 Frc consts  --      0.0078                 0.0154                 0.0748
 IR Inten    --      5.4001                 2.5062                 3.3025

                      4                      5                      6
                      A                      A                      A
 Frequencies --    237.1503               257.5432               314.6763
 Red. masses --      1.0952                 2.2333                 2.2880
 Frc consts  --      0.0363                 0.0873                 0.1335
 IR Inten    --      0.0832                 0.7977                 1.2686

                      7                      8                      9
                      A                      A                      A
 Frequencies --    349.1482               376.5069               456.2539
 Red. masses --      4.8152                 2.3154                 4.0268
 Frc consts  --      0.3458                 0.1934                 0.4939
 IR Inten    --      4.2008                 3.1298                11.8379

                     10                     11                     12
                      A                      A                      A
 Frequencies --    545.3188               644.2185               697.3417
 Red. masses --      3.6393                 4.3454                 3.6669
 Frc consts  --      0.6376                 1.0625                 1.0506
 IR Inten    --      7.2720                 3.4450                 2.6397

                     13                     14                     15
                      A                      A                      A
 Frequencies --    808.7290               842.6396               859.8042
 Red. masses --      3.2179                 2.8135                 1.7056
 Frc consts  --      1.2400                 1.1770                 0.7429
 IR Inten    --      1.1956                 4.1517                14.2575

                     16                     17                     18
                      A                      A                      A
 Frequencies --    884.7921               941.8648               964.3964
 Red. masses --      2.9551                 2.9163                 1.7834
 Frc consts  --      1.3630                 1.5243                 0.9772
 IR Inten    --     17.6490                 5.6107                 2.6782

                     19                     20                     21
                      A                      A                      A
 Frequencies --    986.4957              1021.4287              1044.8038
 Red. masses --      1.5585                 1.5603                 2.0215
 Frc consts  --      0.8936                 0.9591                 1.3002
 IR Inten    --      6.0386                 0.6726                11.3804

                     22                     23                     24
                      A                      A                      A
 Frequencies --   1078.4350              1088.8206              1102.7716
 Red. masses --      2.7406                 1.5509                 1.7060
 Frc consts  --      1.8780                 1.0833                 1.2224
 IR Inten    --     31.4957                 3.8510                 1.0812

                     25                     26                     27
                      A                      A                      A
 Frequencies --   1133.3575              1146.3729              1213.8934
 Red. masses --      2.0121                 2.0056                 1.4081
 Frc consts  --      1.5228                 1.5529                 1.2224
 IR Inten    --      7.1592                 6.3927                 7.5888

                     28                     29                     30
                      A                      A                      A
 Frequencies --   1250.7474              1259.1886              1300.7483
 Red. masses --      1.4216                 1.3693                 1.4732
 Frc consts  --      1.3103                 1.2792                 1.4686
 IR Inten    --      0.0451                 6.0336                 1.5569

                     31                     32                     33
                      A                      A                      A
 Frequencies --   1312.7221              1331.3287              1347.4528
 Red. masses --      1.3220                 1.2553                 1.7242
 Frc consts  --      1.3422                 1.3109                 1.8444
 IR Inten    --      0.5289                 2.6002                 0.2412

                     34                     35                     36
                      A                      A                      A
 Frequencies --   1358.9868              1409.0818              1426.7894
 Red. masses --      1.4946                 1.2493                 1.2147
 Frc consts  --      1.6263                 1.4615                 1.4569
 IR Inten    --      1.5374                 5.1447                 7.4601

                     37                     38                     39
                      A                      A                      A
 Frequencies --   1443.7809              1481.0061              1495.4417
 Red. masses --      3.0022                 1.1020                 1.0427
 Frc consts  --      3.6872                 1.4242                 1.3739
 IR Inten    --     15.9929                 2.0261                 5.2969

                     40                     41                     42
                      A                      A                      A
 Frequencies --   1502.7235              1832.4509              2828.3872
 Red. masses --      1.0526                10.5754                 1.0806
 Frc consts  --      1.4004                20.9225                 5.0935
 IR Inten    --      2.7043               197.7399               100.0181

                     43                     44                     45
                      A                      A                      A
 Frequencies --   2990.7431              3022.6837              3037.3295
 Red. masses --      1.0816                 1.0663                 1.0347
 Frc consts  --      5.7000                 5.7400                 5.6242
 IR Inten    --     23.2656                26.2930                19.8176

                     46                     47                     48
                      A                      A                      A
 Frequencies --   3087.4629              3104.7671              3108.2050
 Red. masses --      1.0937                 1.0929                 1.0963
 Frc consts  --      6.1428                 6.2072                 6.2405
 IR Inten    --     11.5256                 4.3600                24.6579

                     49                     50                     51
                      A                      A                      A
 Frequencies --   3115.2598              3137.3781              3152.7065
 Red. masses --      1.1020                 1.0872                 1.0950
 Frc consts  --      6.3009                 6.3052                 6.4127
 IR Inten    --     17.6691                19.0261                36.7799

 - Thermochemistry -
 -------------------
 Temperature   298.150 Kelvin.  Pressure   1.00000 Atm.
 Atom     1 has atomic number  6 and mass  12.00000

 Molecular mass:   126.06808 amu.
 Principal axes and moments of inertia in atomic units:
                           1         2         3
     Eigenvalues --   650.288771349.563981783.13815
           X            0.99994   0.01010  -0.00502
           Y           -0.01015   0.99990  -0.01019
           Z            0.00492   0.01024   0.99994
 This molecule is an asymmetric top.
 Rotational symmetry number  1.
 Warning -- assumption of classical behavior for rotation
           may cause significant error
 Rotational temperatures (Kelvin)      0.13319     0.06418     0.04857
 Rotational constants (GHZ):           2.77529     1.33728     1.01212
 Zero-point vibrational energy     416664.9 (Joules/Mol)
                                   99.58529 (Kcal/Mol)
 Warning -- explicit consideration of  10 degrees of freedom as
           vibrations may cause significant error
 Vibrational temperatures:     74.21   122.13   273.83   341.21   370.55
          (Kelvin)            452.75   502.35   541.71   656.45   784.59
                              926.89  1003.32  1163.58  1212.37  1237.06
                             1273.02  1355.13  1387.55  1419.35  1469.61
                             1503.24  1551.63  1566.57  1586.64  1630.65
                             1649.37  1746.52  1799.54  1811.69  1871.48
                             1888.71  1915.48  1938.68  1955.28  2027.35
                             2052.83  2077.28  2130.83  2151.60  2162.08
                             2636.48  4069.41  4303.01  4348.96  4370.03
                             4442.16  4467.06  4472.01  4482.16  4513.98
                             4536.04

 Zero-point correction=                           0.158699 (Hartree/Particle)
 Thermal correction to Energy=                    0.167188
 Thermal correction to Enthalpy=                  0.168132
 Thermal correction to Gibbs Free Energy=         0.124954
 Sum of electronic and zero-point Energies=           -423.034816
 Sum of electronic and thermal Energies=              -423.026327
 Sum of electronic and thermal Enthalpies=            -423.025383
 Sum of electronic and thermal Free Energies=         -423.068561

                     E (Thermal)             CV                S
                      KCal/Mol        Cal/Mol-Kelvin    Cal/Mol-Kelvin
 Total                  104.912             31.654             90.876
 Electronic               0.000              0.000              0.000
 Translational            0.889              2.981             40.409
 Rotational               0.889              2.981             28.839
 Vibrational            103.134             25.692             21.629
 Vibration     1          0.596              1.977              4.756
 Vibration     2          0.601              1.960              3.775
 Vibration     3          0.634              1.853              2.225
 Vibration     4          0.656              1.784              1.824
 Vibration     5          0.667              1.750              1.678
 Vibration     6          0.702              1.646              1.338
 Vibration     7          0.726              1.577              1.170
 Vibration     8          0.747              1.520              1.053
 Vibration     9          0.814              1.347              0.777
 Vibration    10          0.900              1.150              0.554

 Optimization completed.
    -- Stationary point found.
 Normal termination of Gaussian 09 at Mon Jan 27 23:55:09 2020.
