 Gaussian 09, Revision D.01,
 Gaussian 09:  ES64L-G09RevD.01 24-Apr-2013

 -----------------------------
 # b3lyp 6-31G(2df,p) opt Freq
 -----------------------------

 -----
 titel
 -----
 Symbolic Z-matrix:
 Charge =  0 Multiplicity = 1

 SCF Done:  E(RB3LYP) =  -423.144087935     A.U. after   15 cycles
 Optimization completed.
    -- Stationary point found.
 Normal termination of Gaussian 09 at Tue Jan 28 12:10:18 2020.

 ----------------------------------------------------------------------
 #N Geom=AllCheck Guess=TCheck SCRF=Check GenChk RB3LYP/6-31G(2df,p) Fr
 eq
 ----------------------------------------------------------------------

 Structure from the checkpoint file:  "/scratch/puck/g09_b37fb3fb-3bd8-443d-b618-e783a470d1da/Gau-92504.chk"
 -----
 titel
 -----
 Charge =  0 Multiplicity = 1

                         Standard orientation:
 ---------------------------------------------------------------------
 Center     Atomic      Atomic             Coordinates (Angstroms)
 Number     Number       Type             X           Y           Z
 ---------------------------------------------------------------------
      1          6           0        3.576998   -0.328926    0.029066
      2          6           0        2.167364   -0.538192   -0.495997
      3          8           0        1.285339    0.274215    0.265033
      4          6           0       -0.067739    0.230032   -0.134672
      5          6           0       -0.815633   -0.931127    0.581149
      6          6           0       -2.176174   -1.128151    0.106564
      7          6           0       -3.295033   -1.284016   -0.301855
      8          6           0       -0.665570    1.574128    0.265574
      9          8           0       -1.595506    2.098097   -0.284270
     10          1           0        3.865297    0.722405   -0.055899
     11          1           0        3.642717   -0.619228    1.081339
     12          1           0        4.287192   -0.932904   -0.543123
     13          1           0        2.101658   -0.260778   -1.559958
     14          1           0        1.884216   -1.599339   -0.418694
     15          1           0       -0.169695    0.113196   -1.221938
     16          1           0       -0.231232   -1.846423    0.429757
     17          1           0       -0.806228   -0.735975    1.660934
     18          1           0       -4.286867   -1.412695   -0.658374
     19          1           0       -0.151006    2.030765    1.140879
 ---------------------------------------------------------------------

 SCF Done:  E(RB3LYP) =  -423.144087935     A.U. after    1 cycles

 The electronic state is 1-A.
 Alpha  occ. eigenvalues --  -19.15753 -19.14478 -10.27220 -10.25261 -10.24320
 Alpha  occ. eigenvalues --  -10.22112 -10.18615 -10.18468 -10.17463  -1.05803
 Alpha  occ. eigenvalues --   -1.04552  -0.81478  -0.76860  -0.72260  -0.67848
 Alpha  occ. eigenvalues --   -0.61778  -0.58321  -0.53834  -0.51536  -0.48916
 Alpha  occ. eigenvalues --   -0.48210  -0.45626  -0.44663  -0.43352  -0.42170
 Alpha  occ. eigenvalues --   -0.39230  -0.39082  -0.37788  -0.36171  -0.33514
 Alpha  occ. eigenvalues --   -0.28712  -0.27277  -0.26747  -0.24333
 Alpha virt. eigenvalues --   -0.02790   0.04695   0.05201   0.08235   0.10737
 Alpha virt. eigenvalues --    0.11257   0.12960   0.13863   0.14125   0.15294
 Alpha virt. eigenvalues --    0.16235   0.17568   0.18210   0.20479   0.21220

 Mulliken charges:
               1
     1  C   -0.385981
     2  C   -0.046419
     3  O   -0.256514
     4  C    0.032667
     5  C   -0.387234
     6  C    0.313178
     7  C   -0.439616
     8  C    0.153207
     9  O   -0.234766
    10  H    0.131547
    11  H    0.129826
    12  H    0.120513
    13  H    0.099510
    14  H    0.094197
    15  H    0.104088
    16  H    0.139368
    17  H    0.140451
    18  H    0.201331
    19  H    0.090648
 Sum of Mulliken charges =   0.00000

 Dipole moment (field-independent basis, Debye):
    X=              2.2064    Y=             -2.0082    Z=              0.0730  Tot=              2.9844
 Quadrupole moment (field-independent basis, Debye-Ang):
   XX=            -51.1375   YY=            -57.1243   ZZ=            -52.2744
   XY=              2.9361   XZ=             -1.2425   YZ=              1.6235

  Exact polarizability: 106.413   1.721  68.925   8.111   2.004  62.521
 Approx polarizability: 144.951   0.106  96.903  20.419   1.698  97.893

                      1                      2                      3
                      A                      A                      A
 Frequencies --     45.1944                54.5028                61.2846
 Red. masses --      3.3222                 2.0307                 4.2799
 Frc consts  --      0.0040                 0.0036                 0.0095
 IR Inten    --      2.6350                 0.3908                 2.0729

                      4                      5                      6
                      A                      A                      A
 Frequencies --     91.3097               134.1940               183.1739
 Red. masses --      2.9398                 3.7342                 3.5098
 Frc consts  --      0.0144                 0.0396                 0.0694
 IR Inten    --      3.6241                 2.2464                 0.7269

                      7                      8                      9
                      A                      A                      A
 Frequencies --    245.1580               268.0042               339.2634
 Red. masses --      1.1621                 2.6688                 3.2478
 Frc consts  --      0.0412                 0.1129                 0.2203
 IR Inten    --      0.0936                 2.3089                 2.0919

                     10                     11                     12
                      A                      A                      A
 Frequencies --    349.4588               375.1242               425.1099
 Red. masses --      2.9300                 5.1942                 3.8469
 Frc consts  --      0.2108                 0.4306                 0.4096
 IR Inten    --      5.7443                 6.8227                 8.1763

                     13                     14                     15
                      A                      A                      A
 Frequencies --    499.6311               590.0565               634.7540
 Red. masses --      5.7558                 4.0906                 1.2168
 Frc consts  --      0.8466                 0.8391                 0.2889
 IR Inten    --      7.5851                 7.2539                44.3572

                     16                     17                     18
                      A                      A                      A
 Frequencies --    650.5941               820.1859               852.1688
 Red. masses --      1.2319                 1.0883                 1.6867
 Frc consts  --      0.3072                 0.4314                 0.7217
 IR Inten    --     42.3919                 0.5476                15.7979

                     19                     20                     21
                      A                      A                      A
 Frequencies --    882.5293               950.6459               981.0532
 Red. masses --      2.2263                 2.6512                 3.3574
 Frc consts  --      1.0216                 1.4117                 1.9039
 IR Inten    --      6.7756                 4.6540                 0.9315

                     22                     23                     24
                      A                      A                      A
 Frequencies --   1046.3642              1070.1541              1083.5390
 Red. masses --      3.6910                 2.6044                 2.2621
 Frc consts  --      2.3810                 1.7573                 1.5647
 IR Inten    --      6.5462                 5.7066                18.1287

                     25                     26                     27
                      A                      A                      A
 Frequencies --   1138.5142              1153.2616              1186.6124
 Red. masses --      5.5059                 2.4117                 1.5346
 Frc consts  --      4.2049                 1.8898                 1.2731
 IR Inten    --    201.2076                50.4739                 6.7043

                     28                     29                     30
                      A                      A                      A
 Frequencies --   1203.6291              1294.4903              1300.3959
 Red. masses --      1.2816                 1.2761                 1.1092
 Frc consts  --      1.0939                 1.2599                 1.1051
 IR Inten    --      7.5601                10.6584                 3.6457

                     31                     32                     33
                      A                      A                      A
 Frequencies --   1328.1326              1348.6115              1400.2833
 Red. masses --      1.3733                 1.2332                 1.2148
 Frc consts  --      1.4272                 1.3214                 1.4035
 IR Inten    --      4.7912                28.7585                 5.6338

                     34                     35                     36
                      A                      A                      A
 Frequencies --   1409.2621              1440.0786              1469.9670
 Red. masses --      1.2549                 1.4209                 1.0865
 Frc consts  --      1.4684                 1.7361                 1.3833
 IR Inten    --     15.7304                 9.5358                 6.2155

                     37                     38                     39
                      A                      A                      A
 Frequencies --   1483.3200              1499.4407              1527.8254
 Red. masses --      1.0401                 1.0454                 1.0873
 Frc consts  --      1.3483                 1.3848                 1.4953
 IR Inten    --      4.6368                 2.2043                 4.4329

                     40                     41                     42
                      A                      A                      A
 Frequencies --   1847.5814              2243.6950              2886.9631
 Red. masses --     10.5447                 5.9185                 1.0837
 Frc consts  --     21.2077                17.5546                 5.3218
 IR Inten    --    132.9918                 0.8906                85.6478

                     43                     44                     45
                      A                      A                      A
 Frequencies --   2974.2450              3003.7041              3023.6620
 Red. masses --      1.0550                 1.1055                 1.0775
 Frc consts  --      5.4984                 5.8767                 5.8042
 IR Inten    --     38.7785                46.1605                 2.9691

                     46                     47                     48
                      A                      A                      A
 Frequencies --   3030.8933              3047.3751              3064.9130
 Red. masses --      1.0653                 1.0347                 1.1013
 Frc consts  --      5.7660                 5.6611                 6.0952
 IR Inten    --     30.3474                16.1627                10.3953

                     49                     50                     51
                      A                      A                      A
 Frequencies --   3122.7009              3125.1481              3507.1721
 Red. masses --      1.1017                 1.1028                 1.1628
 Frc consts  --      6.3293                 6.3459                 8.4273
 IR Inten    --     21.6096                23.1328                68.8217

 - Thermochemistry -
 -------------------
 Temperature   298.150 Kelvin.  Pressure   1.00000 Atm.
 Atom     1 has atomic number  6 and mass  12.00000

 Molecular mass:   126.06808 amu.
 Principal axes and moments of inertia in atomic units:
                           1         2         3
     Eigenvalues --   673.873892046.263062562.84418
           X            1.00000  -0.00164  -0.00238
           Y            0.00167   0.99991   0.01351
           Z            0.00236  -0.01352   0.99991
 This molecule is an asymmetric top.
 Rotational symmetry number  1.
 Warning -- assumption of classical behavior for rotation
           may cause significant error
 Rotational temperatures (Kelvin)      0.12853     0.04233     0.03380
 Rotational constants (GHZ):           2.67816     0.88197     0.70419
 Zero-point vibrational energy     404908.0 (Joules/Mol)
                                   96.77534 (Kcal/Mol)
 Warning -- explicit consideration of  14 degrees of freedom as
           vibrations may cause significant error
 Vibrational temperatures:     65.02    78.42    88.17   131.37   193.08
          (Kelvin)            263.55   352.73   385.60   488.12   502.79
                              539.72   611.64   718.86   848.96   913.27
                              936.06  1180.06  1226.08  1269.76  1367.77
                             1411.52  1505.48  1539.71  1558.97  1638.07
                             1659.28  1707.27  1731.75  1862.48  1870.98
                             1910.88  1940.35  2014.69  2027.61  2071.95
                             2114.95  2134.16  2157.36  2198.20  2658.25
                             3228.17  4153.69  4279.27  4321.65  4350.37
                             4360.77  4384.49  4409.72  4492.86  4496.39
                             5046.03

 Zero-point correction=                           0.154221 (Hartree/Particle)
 Thermal correction to Energy=                    0.165047
 Thermal correction to Enthalpy=                  0.165991
 Thermal correction to Gibbs Free Energy=         0.116643
 Sum of electronic and zero-point Energies=           -422.989867
 Sum of electronic and thermal Energies=              -422.979041
 Sum of electronic and thermal Enthalpies=            -422.978097
 Sum of electronic and thermal Free Energies=         -423.027445

                     E (Thermal)             CV                S
                      KCal/Mol        Cal/Mol-Kelvin    Cal/Mol-Kelvin
 Total                  103.568             37.001            103.862
 Electronic               0.000              0.000              0.000
 Translational            0.889              2.981             40.409
 Rotational               0.889              2.981             29.648
 Vibrational            101.791             31.039             33.806
 Vibration     1          0.595              1.979              5.017
 Vibration     2          0.596              1.976              4.647
 Vibration     3          0.597              1.973              4.415
 Vibration     4          0.602              1.955              3.632
 Vibration     5          0.613              1.919              2.885
 Vibration     6          0.631              1.863              2.296
 Vibration     7          0.660              1.771              1.765
 Vibration     8          0.673              1.732              1.609
 Vibration     9          0.719              1.597              1.216
 Vibration    10          0.727              1.576              1.169
 Vibration    11          0.746              1.523              1.059
 Vibration    12          0.787              1.416              0.875
 Vibration    13          0.855              1.251              0.659
 Vibration    14          0.947              1.053              0.467

 Optimization completed.
    -- Stationary point found.
 Normal termination of Gaussian 09 at Tue Jan 28 12:47:46 2020.
