 Gaussian 09, Revision D.01,
 Gaussian 09:  ES64L-G09RevD.01 24-Apr-2013

 -----------------------------
 # b3lyp 6-31G(2df,p) opt Freq
 -----------------------------

 -----
 titel
 -----
 Symbolic Z-matrix:
 Charge =  0 Multiplicity = 1

 SCF Done:  E(RB3LYP) =  -423.157614471     A.U. after   14 cycles
 Optimization completed.
    -- Stationary point found.
 Normal termination of Gaussian 09 at Mon Jan 27 14:13:19 2020.

 ----------------------------------------------------------------------
 #N Geom=AllCheck Guess=TCheck SCRF=Check GenChk RB3LYP/6-31G(2df,p) Fr
 eq
 ----------------------------------------------------------------------

 Structure from the checkpoint file:  "/scratch/puck/g09_c8d3c2ff-4c63-494e-98fd-f4b1be036590/Gau-171140.chk"
 -----
 titel
 -----
 Charge =  0 Multiplicity = 1

                         Standard orientation:
 ---------------------------------------------------------------------
 Center     Atomic      Atomic             Coordinates (Angstroms)
 Number     Number       Type             X           Y           Z
 ---------------------------------------------------------------------
      1          6           0       -3.245605   -0.388670   -0.214034
      2          6           0       -1.854256    0.163297    0.033150
      3          8           0       -1.665118    1.170888    0.674552
      4          6           0       -0.695235   -0.613012   -0.595602
      5          6           0        0.641454   -0.211392   -0.050192
      6          6           0        1.351469   -0.913840    1.092659
      7          6           0        2.036030   -0.765683   -0.232917
      8          8           0        2.626920    0.527719   -0.357170
      9          6           0        1.310703    1.145040   -0.257772
     10          1           0       -3.996795    0.322091    0.132127
     11          1           0       -3.397100   -0.609438   -1.276222
     12          1           0       -3.366983   -1.334871    0.326781
     13          1           0       -0.868946   -1.689475   -0.475322
     14          1           0       -0.750311   -0.428849   -1.680374
     15          1           0        1.718840   -0.356650    1.950263
     16          1           0        0.973703   -1.908102    1.315057
     17          1           0        2.442044   -1.573140   -0.832636
     18          1           0        1.241708    1.871876    0.556745
     19          1           0        1.042074    1.623257   -1.207218
 ---------------------------------------------------------------------

 SCF Done:  E(RB3LYP) =  -423.157614471     A.U. after    1 cycles

 The electronic state is 1-A.
 Alpha  occ. eigenvalues --  -19.13479 -19.13149 -10.27700 -10.23655 -10.22730
 Alpha  occ. eigenvalues --  -10.20417 -10.20277 -10.19529 -10.18776  -1.04699
 Alpha  occ. eigenvalues --   -1.04415  -0.84007  -0.77381  -0.72766  -0.68448
 Alpha  occ. eigenvalues --   -0.60106  -0.54834  -0.53800  -0.49125  -0.48839
 Alpha  occ. eigenvalues --   -0.47193  -0.45441  -0.44840  -0.42457  -0.40782
 Alpha  occ. eigenvalues --   -0.39861  -0.39432  -0.38353  -0.35596  -0.33618
 Alpha  occ. eigenvalues --   -0.31472  -0.27331  -0.24949  -0.22888
 Alpha virt. eigenvalues --   -0.01605   0.07298   0.09308   0.10885   0.12021
 Alpha virt. eigenvalues --    0.12887   0.13653   0.14708   0.15114   0.15771
 Alpha virt. eigenvalues --    0.16184   0.17682   0.18586   0.20447   0.21935

 Mulliken charges:
               1
     1  C   -0.476537
     2  C    0.394258
     3  O   -0.288250
     4  C   -0.461489
     5  C    0.333778
     6  C   -0.339532
     7  C    0.029195
     8  O   -0.289374
     9  C   -0.121632
    10  H    0.145268
    11  H    0.136471
    12  H    0.143643
    13  H    0.116730
    14  H    0.129265
    15  H    0.118878
    16  H    0.106979
    17  H    0.101517
    18  H    0.119595
    19  H    0.101235
 Sum of Mulliken charges =   0.00000

 Dipole moment (field-independent basis, Debye):
    X=             -2.2242    Y=             -2.6852    Z=             -1.2294  Tot=              3.6971
 Quadrupole moment (field-independent basis, Debye-Ang):
   XX=            -56.9683   YY=            -52.5165   ZZ=            -52.4098
   XY=              1.5076   XZ=              3.2048   YZ=             -1.2482

  Exact polarizability:  85.232  -0.103  74.861   1.347   0.965  66.821
 Approx polarizability: 108.934   0.214 117.134   0.167   5.590 104.215

                      1                      2                      3
                      A                      A                      A
 Frequencies --     39.8267                63.4650               119.3700
 Red. masses --      3.7187                 3.2976                 1.6197
 Frc consts  --      0.0035                 0.0078                 0.0136
 IR Inten    --      1.9287                 1.3264                 1.3186

                      4                      5                      6
                      A                      A                      A
 Frequencies --    127.3084               261.8808               301.8879
 Red. masses --      1.9475                 3.5932                 2.8153
 Frc consts  --      0.0186                 0.1452                 0.1512
 IR Inten    --      1.7207                 3.2879                 2.4075

                      7                      8                      9
                      A                      A                      A
 Frequencies --    324.0644               377.8023               457.6593
 Red. masses --      2.6884                 2.1630                 2.1595
 Frc consts  --      0.1663                 0.1819                 0.2665
 IR Inten    --      1.3378                 1.6736                 2.6327

                     10                     11                     12
                      A                      A                      A
 Frequencies --    474.0027               555.8912               722.8623
 Red. masses --      2.0779                 3.7566                 3.1148
 Frc consts  --      0.2751                 0.6840                 0.9589
 IR Inten    --      0.9182                13.5932                 1.5641

                     13                     14                     15
                      A                      A                      A
 Frequencies --    762.7048               792.3329               834.5017
 Red. masses --      3.3241                 2.7672                 1.6751
 Frc consts  --      1.1393                 1.0235                 0.6873
 IR Inten    --      8.8751                 4.3405                 1.5411

                     16                     17                     18
                      A                      A                      A
 Frequencies --    874.4923               904.3807               929.2921
 Red. masses --      2.8215                 1.9197                 2.3524
 Frc consts  --      1.2713                 0.9251                 1.1969
 IR Inten    --      1.9198                26.1659                29.5265

                     19                     20                     21
                      A                      A                      A
 Frequencies --    975.9371               986.3171              1000.7255
 Red. masses --      1.7102                 2.5496                 1.7560
 Frc consts  --      0.9597                 1.4613                 1.0361
 IR Inten    --     11.5101                 4.8938                13.9460

                     22                     23                     24
                      A                      A                      A
 Frequencies --   1005.1324              1035.3972              1066.0878
 Red. masses --      1.6043                 1.7076                 1.9097
 Frc consts  --      0.9549                 1.0786                 1.2788
 IR Inten    --     28.8298                 2.2794                 8.3514

                     25                     26                     27
                      A                      A                      A
 Frequencies --   1081.0716              1113.0774              1149.3072
 Red. masses --      1.6924                 2.6585                 1.1794
 Frc consts  --      1.1654                 1.9406                 0.9179
 IR Inten    --     18.7444                 1.0584                 2.7928

                     28                     29                     30
                      A                      A                      A
 Frequencies --   1168.7225              1196.8577              1261.3715
 Red. masses --      1.9035                 1.9160                 1.3136
 Frc consts  --      1.5319                 1.6170                 1.2314
 IR Inten    --     39.9082                47.3482                 5.0516

                     31                     32                     33
                      A                      A                      A
 Frequencies --   1290.5993              1316.0494              1350.9482
 Red. masses --      1.6972                 2.2733                 1.5943
 Frc consts  --      1.6656                 2.3198                 1.7143
 IR Inten    --      3.2040                 9.4924                15.1261

                     34                     35                     36
                      A                      A                      A
 Frequencies --   1382.7234              1415.9054              1450.0637
 Red. masses --      1.3487                 1.6482                 1.1541
 Frc consts  --      1.5193                 1.9469                 1.4298
 IR Inten    --     34.3828                 7.3716                 4.4276

                     37                     38                     39
                      A                      A                      A
 Frequencies --   1463.6572              1476.5623              1487.0347
 Red. masses --      1.0601                 1.0510                 1.6717
 Frc consts  --      1.3381                 1.3501                 2.1779
 IR Inten    --     13.9911                 8.4541                 4.6044

                     40                     41                     42
                      A                      A                      A
 Frequencies --   1517.3175              1812.0738              2994.0163
 Red. masses --      1.1260                10.6284                 1.0679
 Frc consts  --      1.5274                20.5622                 5.6399
 IR Inten    --      0.5316               120.9945                19.5967

                     43                     44                     45
                      A                      A                      A
 Frequencies --   3029.7872              3035.0971              3054.0143
 Red. masses --      1.0594                 1.0382                 1.0897
 Frc consts  --      5.7297                 5.6348                 5.9885
 IR Inten    --     55.9784                 2.7736                12.4751

                     46                     47                     48
                      A                      A                      A
 Frequencies --   3092.2935              3095.8184              3110.6627
 Red. masses --      1.1068                 1.0977                 1.0534
 Frc consts  --      6.2358                 6.1986                 6.0054
 IR Inten    --     26.6017                 8.9542                11.9524

                     49                     50                     51
                      A                      A                      A
 Frequencies --   3152.5373              3171.5472              3201.6682
 Red. masses --      1.1019                 1.0946                 1.1158
 Frc consts  --      6.4522                 6.4871                 6.7391
 IR Inten    --      9.3426                20.6005                10.5675

 - Thermochemistry -
 -------------------
 Temperature   298.150 Kelvin.  Pressure   1.00000 Atm.
 Atom     1 has atomic number  6 and mass  12.00000

 Molecular mass:   126.06808 amu.
 Principal axes and moments of inertia in atomic units:
                           1         2         3
     Eigenvalues --   452.493421861.112552008.49412
           X            0.99981   0.01270   0.01447
           Y           -0.01242   0.99974  -0.01902
           Z           -0.01471   0.01883   0.99971
 This molecule is an asymmetric top.
 Rotational symmetry number  1.
 Warning -- assumption of classical behavior for rotation
           may cause significant error
 Rotational temperatures (Kelvin)      0.19141     0.04654     0.04312
 Rotational constants (GHZ):           3.98844     0.96971     0.89855
 Zero-point vibrational energy     411898.8 (Joules/Mol)
                                   98.44618 (Kcal/Mol)
 Warning -- explicit consideration of  11 degrees of freedom as
           vibrations may cause significant error
 Vibrational temperatures:     57.30    91.31   171.75   183.17   376.79
          (Kelvin)            434.35   466.26   543.57   658.47   681.98
                              799.80  1040.04  1097.36  1139.99  1200.66
                             1258.20  1301.20  1337.04  1404.15  1419.09
                             1439.82  1446.16  1489.70  1533.86  1555.42
                             1601.47  1653.59  1681.53  1722.01  1814.83
                             1856.88  1893.50  1943.71  1989.43  2037.17
                             2086.32  2105.87  2124.44  2139.51  2183.08
                             2607.17  4307.72  4359.18  4366.82  4394.04
                             4449.12  4454.19  4475.54  4535.79  4563.14
                             4606.48

 Zero-point correction=                           0.156884 (Hartree/Particle)
 Thermal correction to Energy=                    0.165971
 Thermal correction to Enthalpy=                  0.166915
 Thermal correction to Gibbs Free Energy=         0.121869
 Sum of electronic and zero-point Energies=           -423.000730
 Sum of electronic and thermal Energies=              -422.991644
 Sum of electronic and thermal Enthalpies=            -422.990699
 Sum of electronic and thermal Free Energies=         -423.035746

                     E (Thermal)             CV                S
                      KCal/Mol        Cal/Mol-Kelvin    Cal/Mol-Kelvin
 Total                  104.148             33.023             94.808
 Electronic               0.000              0.000              0.000
 Translational            0.889              2.981             40.409
 Rotational               0.889              2.981             28.916
 Vibrational            102.371             27.061             25.484
 Vibration     1          0.594              1.981              5.268
 Vibration     2          0.597              1.972              4.346
 Vibration     3          0.609              1.933              3.111
 Vibration     4          0.611              1.926              2.986
 Vibration     5          0.669              1.743              1.649
 Vibration     6          0.694              1.670              1.406
 Vibration     7          0.709              1.627              1.290
 Vibration     8          0.748              1.517              1.048
 Vibration     9          0.816              1.344              0.773
 Vibration    10          0.831              1.308              0.726
 Vibration    11          0.911              1.127              0.532

 Normal termination of Gaussian 09 at Mon Jan 27 14:56:49 2020.
