 Gaussian 09, Revision D.01,
 Gaussian 09:  ES64L-G09RevD.01 24-Apr-2013

 -----------------------------
 # b3lyp 6-31G(2df,p) opt Freq
 -----------------------------

 -----
 titel
 -----
 Symbolic Z-matrix:
 Charge =  0 Multiplicity = 1

 SCF Done:  E(RB3LYP) =  -423.181847427     A.U. after   14 cycles
 SCF Done:  E(RB3LYP) =  -423.181846766     A.U. after    8 cycles
 SCF Done:  E(RB3LYP) =  -423.181847852     A.U. after    7 cycles
 Optimization completed.
    -- Stationary point found.
 Normal termination of Gaussian 09 at Mon Jan 27 14:11:42 2020.

 ----------------------------------------------------------------------
 #N Geom=AllCheck Guess=TCheck SCRF=Check GenChk RB3LYP/6-31G(2df,p) Fr
 eq
 ----------------------------------------------------------------------

 Structure from the checkpoint file:  "/scratch/puck/g09_cb61e99a-796d-4fc2-9bbd-feed31f8178a/Gau-2795.chk"
 -----
 titel
 -----
 Charge =  0 Multiplicity = 1

                         Standard orientation:
 ---------------------------------------------------------------------
 Center     Atomic      Atomic             Coordinates (Angstroms)
 Number     Number       Type             X           Y           Z
 ---------------------------------------------------------------------
      1          8           0       -2.606215   -0.642083   -0.050726
      2          6           0       -1.513282   -1.046626    0.253725
      3          6           0       -0.242232   -0.686796   -0.495276
      4          8           0        0.789584   -1.609830   -0.164887
      5          6           0        1.932790   -0.912797    0.341200
      6          6           0        1.803201    0.518212   -0.183332
      7          6           0        0.294734    0.710612   -0.144398
      8          6           0       -0.403288    1.965544   -0.568345
      9          6           0       -0.344828    1.602909    0.897124
     10          1           0       -1.342990   -1.714648    1.127637
     11          1           0       -0.455947   -0.752692   -1.571900
     12          1           0        1.928911   -0.930379    1.440995
     13          1           0        2.828653   -1.433534   -0.008794
     14          1           0        2.345287    1.247965    0.423174
     15          1           0        2.174269    0.580282   -1.213112
     16          1           0        0.201685    2.793019   -0.924565
     17          1           0       -1.362210    1.858439   -1.064808
     18          1           0        0.320638    2.169155    1.540462
     19          1           0       -1.267829    1.291349    1.371633
 ---------------------------------------------------------------------

 SCF Done:  E(RB3LYP) =  -423.181847852     A.U. after    1 cycles

 The electronic state is 1-A.
 Alpha  occ. eigenvalues --  -19.14588 -19.14444 -10.27099 -10.24164 -10.23523
 Alpha  occ. eigenvalues --  -10.21303 -10.19645 -10.19358 -10.19265  -1.05416
 Alpha  occ. eigenvalues --   -1.03994  -0.87299  -0.76905  -0.73493  -0.63206
 Alpha  occ. eigenvalues --   -0.61086  -0.59120  -0.55315  -0.50580  -0.49679
 Alpha  occ. eigenvalues --   -0.47932  -0.47029  -0.43966  -0.42997  -0.40848
 Alpha  occ. eigenvalues --   -0.39462  -0.38423  -0.37108  -0.35955  -0.32281
 Alpha  occ. eigenvalues --   -0.30149  -0.29106  -0.27386  -0.24362
 Alpha virt. eigenvalues --   -0.02791   0.08632   0.09360   0.09956   0.11061
 Alpha virt. eigenvalues --    0.12201   0.13533   0.14824   0.15926   0.16688
 Alpha virt. eigenvalues --    0.17539   0.19210   0.19876   0.21389   0.22199

 Mulliken charges:
               1
     1  O   -0.249925
     2  C    0.123565
     3  C   -0.002246
     4  O   -0.279912
     5  C   -0.071509
     6  C   -0.307848
     7  C    0.313040
     8  C   -0.325093
     9  C   -0.315023
    10  H    0.089226
    11  H    0.104072
    12  H    0.097992
    13  H    0.110941
    14  H    0.107310
    15  H    0.111568
    16  H    0.115247
    17  H    0.135107
    18  H    0.110991
    19  H    0.132494
 Sum of Mulliken charges =   0.00000

 Dipole moment (field-independent basis, Debye):
    X=              2.6756    Y=              1.2768    Z=              0.4460  Tot=              2.9980
 Quadrupole moment (field-independent basis, Debye-Ang):
   XX=            -58.0498   YY=            -54.5688   ZZ=            -51.4548
   XY=              0.8661   XZ=             -0.0035   YZ=             -0.7148

  Exact polarizability:  84.043  -2.245  74.474   1.207  -2.649  67.086
 Approx polarizability: 119.898  -5.184 104.578   3.820  -2.737 103.539

                      1                      2                      3
                      A                      A                      A
 Frequencies --     52.2601                81.7878               165.6138
 Red. masses --      4.1718                 4.0076                 2.1621
 Frc consts  --      0.0067                 0.0158                 0.0349
 IR Inten    --      0.1406                11.7734                 0.2745

                      4                      5                      6
                      A                      A                      A
 Frequencies --    201.6159               257.2587               321.5097
 Red. masses --      2.7680                 2.3719                 3.4141
 Frc consts  --      0.0663                 0.0925                 0.2079
 IR Inten    --      3.3557                 2.4575                 8.5046

                      7                      8                      9
                      A                      A                      A
 Frequencies --    375.5134               409.8849               488.1973
 Red. masses --      2.0658                 4.9940                 3.2317
 Frc consts  --      0.1716                 0.4943                 0.4538
 IR Inten    --      0.2237                 3.5856                11.8510

                     10                     11                     12
                      A                      A                      A
 Frequencies --    546.5817               650.0185               763.5763
 Red. masses --      4.8998                 2.5740                 3.9851
 Frc consts  --      0.8625                 0.6408                 1.3690
 IR Inten    --      2.8488                 5.2712                 4.1372

                     13                     14                     15
                      A                      A                      A
 Frequencies --    786.2263               850.6705               897.1957
 Red. masses --      1.0442                 1.8331                 2.6591
 Frc consts  --      0.3803                 0.7816                 1.2611
 IR Inten    --      0.1456                 1.6871                 7.5876

                     16                     17                     18
                      A                      A                      A
 Frequencies --    918.1125               934.4326               967.3578
 Red. masses --      2.1013                 1.3934                 2.0228
 Frc consts  --      1.0436                 0.7168                 1.1153
 IR Inten    --      8.7252                 2.6570                 5.0165

                     19                     20                     21
                      A                      A                      A
 Frequencies --    979.1221               994.9467              1050.1212
 Red. masses --      3.0974                 2.3187                 1.7446
 Frc consts  --      1.7496                 1.3524                 1.1335
 IR Inten    --     14.0808                 6.1376                10.5307

                     22                     23                     24
                      A                      A                      A
 Frequencies --   1062.4736              1074.0232              1093.6206
 Red. masses --      1.4284                 3.1788                 1.4009
 Frc consts  --      0.9500                 2.1604                 0.9872
 IR Inten    --     12.0060                46.7302                 1.0430

                     25                     26                     27
                      A                      A                      A
 Frequencies --   1112.5180              1124.9862              1192.4219
 Red. masses --      5.1125                 2.1061                 1.3585
 Frc consts  --      3.7282                 1.5705                 1.1380
 IR Inten    --     77.6907                 8.7667                 5.1667

                     28                     29                     30
                      A                      A                      A
 Frequencies --   1192.8360              1230.6410              1264.8049
 Red. masses --      1.4390                 1.2511                 1.6519
 Frc consts  --      1.2063                 1.1163                 1.5570
 IR Inten    --      9.4994                 5.1481                 1.1709

                     31                     32                     33
                      A                      A                      A
 Frequencies --   1290.7986              1316.9251              1320.1995
 Red. masses --      1.7037                 1.3007                 1.3149
 Frc consts  --      1.6725                 1.3290                 1.3502
 IR Inten    --      3.7354                 0.9906                 2.0051

                     34                     35                     36
                      A                      A                      A
 Frequencies --   1361.5413              1385.5223              1402.0977
 Red. masses --      2.2957                 1.2857                 1.3868
 Frc consts  --      2.5074                 1.4542                 1.6063
 IR Inten    --      4.4878                 2.1172                 7.8275

                     37                     38                     39
                      A                      A                      A
 Frequencies --   1464.0093              1486.5826              1505.0038
 Red. masses --      1.0896                 1.1241                 1.3905
 Frc consts  --      1.3759                 1.4636                 1.8556
 IR Inten    --      3.6337                 1.5960                 2.5258

                     40                     41                     42
                      A                      A                      A
 Frequencies --   1526.0615              1825.7732              2888.4050
 Red. masses --      1.0973                10.6850                 1.0845
 Frc consts  --      1.5057                20.9855                 5.3310
 IR Inten    --      1.0163               130.3728                85.5158

                     43                     44                     45
                      A                      A                      A
 Frequencies --   2995.8286              3001.4909              3038.4340
 Red. masses --      1.0706                 1.0828                 1.0643
 Frc consts  --      5.6611                 5.7476                 5.7890
 IR Inten    --     76.1350                12.9351                22.8368

                     46                     47                     48
                      A                      A                      A
 Frequencies --   3084.4874              3104.8889              3127.8116
 Red. masses --      1.0939                 1.1010                 1.0531
 Frc consts  --      6.1319                 6.2534                 6.0703
 IR Inten    --     44.2350                20.5226                11.6009

                     49                     50                     51
                      A                      A                      A
 Frequencies --   3136.0567              3211.5448              3226.9486
 Red. masses --      1.0563                 1.1176                 1.1154
 Frc consts  --      6.1206                 6.7914                 6.8435
 IR Inten    --     10.9583                 0.7160                 8.6964

 - Thermochemistry -
 -------------------
 Temperature   298.150 Kelvin.  Pressure   1.00000 Atm.
 Atom     1 has atomic number  8 and mass  15.99491

 Molecular mass:   126.06808 amu.
 Principal axes and moments of inertia in atomic units:
                           1         2         3
     Eigenvalues --   795.706541057.873351613.82521
           X            0.99973  -0.02303   0.00172
           Y            0.02305   0.99968  -0.01057
           Z           -0.00147   0.01061   0.99994
 This molecule is an asymmetric top.
 Rotational symmetry number  1.
 Warning -- assumption of classical behavior for rotation
           may cause significant error
 Rotational temperatures (Kelvin)      0.10885     0.08188     0.05367
 Rotational constants (GHZ):           2.26810     1.70601     1.11830
 Zero-point vibrational energy     417142.3 (Joules/Mol)
                                   99.69939 (Kcal/Mol)
 Warning -- explicit consideration of  10 degrees of freedom as
           vibrations may cause significant error
 Vibrational temperatures:     75.19   117.67   238.28   290.08   370.14
          (Kelvin)            462.58   540.28   589.73   702.41   786.41
                              935.23  1098.61  1131.20  1223.92  1290.86
                             1320.96  1344.44  1391.81  1408.74  1431.50
                             1510.89  1528.66  1545.28  1573.47  1600.66
                             1618.60  1715.63  1716.22  1770.62  1819.77
                             1857.17  1894.76  1899.47  1958.95  1993.46
                             2017.30  2106.38  2138.86  2165.36  2195.66
                             2626.88  4155.77  4310.32  4318.47  4371.62
                             4437.88  4467.24  4500.22  4512.08  4620.69
                             4642.85

 Zero-point correction=                           0.158881 (Hartree/Particle)
 Thermal correction to Energy=                    0.167360
 Thermal correction to Enthalpy=                  0.168304
 Thermal correction to Gibbs Free Energy=         0.125101
 Sum of electronic and zero-point Energies=           -423.022967
 Sum of electronic and thermal Energies=              -423.014488
 Sum of electronic and thermal Enthalpies=            -423.013544
 Sum of electronic and thermal Free Energies=         -423.056747

                     E (Thermal)             CV                S
                      KCal/Mol        Cal/Mol-Kelvin    Cal/Mol-Kelvin
 Total                  105.020             31.542             90.928
 Electronic               0.000              0.000              0.000
 Translational            0.889              2.981             40.409
 Rotational               0.889              2.981             28.698
 Vibrational            103.242             25.581             21.822
 Vibration     1          0.596              1.977              4.730
 Vibration     2          0.600              1.962              3.848
 Vibration     3          0.624              1.885              2.485
 Vibration     4          0.639              1.838              2.118
 Vibration     5          0.667              1.751              1.680
 Vibration     6          0.707              1.632              1.302
 Vibration     7          0.746              1.522              1.057
 Vibration     8          0.774              1.449              0.927
 Vibration     9          0.844              1.276              0.688
 Vibration    10          0.902              1.147              0.551

 Normal termination of Gaussian 09 at Mon Jan 27 16:10:52 2020.
