 Gaussian 09, Revision D.01,
 Gaussian 09:  ES64L-G09RevD.01 24-Apr-2013

 -----------------------------
 # b3lyp 6-31G(2df,p) opt Freq
 -----------------------------

 -----
 titel
 -----
 Symbolic Z-matrix:
 Charge =  0 Multiplicity = 1

 SCF Done:  E(RB3LYP) =  -423.109555967     A.U. after   14 cycles
 Optimization completed.
    -- Stationary point found.
 Normal termination of Gaussian 09 at Mon Jan 27 11:18:35 2020.

 ----------------------------------------------------------------------
 #N Geom=AllCheck Guess=TCheck SCRF=Check GenChk RB3LYP/6-31G(2df,p) Fr
 eq
 ----------------------------------------------------------------------

 Structure from the checkpoint file:  "/scratch/puck/g09_c063961a-a1cc-44ba-b39a-fc8cdef2c338/Gau-42036.chk"
 -----
 titel
 -----
 Charge =  0 Multiplicity = 1

                         Standard orientation:
 ---------------------------------------------------------------------
 Center     Atomic      Atomic             Coordinates (Angstroms)
 Number     Number       Type             X           Y           Z
 ---------------------------------------------------------------------
      1          6           0       -1.253501   -0.082603    1.223694
      2          6           0       -1.775556    0.718697    0.017617
      3          8           0       -1.852862   -0.568136   -0.751565
      4          6           0       -0.540148   -0.569054   -0.067532
      5          6           0        0.617802   -1.511022   -0.213400
      6          8           0        1.727365   -0.839041    0.389277
      7          6           0        2.032820    0.441768   -0.160286
      8          6           0        0.924593    1.495759    0.079040
      9          6           0       -0.326930    0.881492   -0.533225
     10          1           0       -0.671286    0.430667    1.989480
     11          1           0       -1.967079   -0.793447    1.641615
     12          1           0       -2.638939    1.380076   -0.060678
     13          1           0        0.502304   -2.455342    0.325116
     14          1           0        0.808402   -1.725115   -1.277205
     15          1           0        2.969335    0.741932    0.317550
     16          1           0        2.218633    0.349381   -1.243590
     17          1           0        0.826981    1.683544    1.151914
     18          1           0        1.207179    2.441398   -0.396341
     19          1           0       -0.326036    0.954095   -1.625005
 ---------------------------------------------------------------------

 SCF Done:  E(RB3LYP) =  -423.109555967     A.U. after    1 cycles

 The electronic state is 1-A.
 Alpha  occ. eigenvalues --  -19.14690 -19.13170 -10.25031 -10.24339 -10.23517
 Alpha  occ. eigenvalues --  -10.23506 -10.19243 -10.19029 -10.18863  -1.05451
 Alpha  occ. eigenvalues --   -1.03200  -0.80938  -0.76731  -0.72270  -0.66670
 Alpha  occ. eigenvalues --   -0.62480  -0.59820  -0.53018  -0.50971  -0.48687
 Alpha  occ. eigenvalues --   -0.47273  -0.46184  -0.43856  -0.42560  -0.39075
 Alpha  occ. eigenvalues --   -0.38493  -0.37769  -0.34808  -0.33874  -0.32521
 Alpha  occ. eigenvalues --   -0.31058  -0.29668  -0.25445  -0.23692
 Alpha virt. eigenvalues --    0.07555   0.09524   0.11009   0.11071   0.12213
 Alpha virt. eigenvalues --    0.13488   0.13842   0.14385   0.15695   0.15825
 Alpha virt. eigenvalues --    0.16414   0.17392   0.18364   0.19410   0.21307

 Mulliken charges:
               1
     1  C   -0.269381
     2  C   -0.010700
     3  O   -0.365493
     4  C    0.437368
     5  C   -0.228785
     6  O   -0.255917
     7  C   -0.054663
     8  C   -0.280120
     9  C    0.007957
    10  H    0.104511
    11  H    0.105903
    12  H    0.093283
    13  H    0.117152
    14  H    0.103221
    15  H    0.112279
    16  H    0.091870
    17  H    0.110636
    18  H    0.099186
    19  H    0.081693
 Sum of Mulliken charges =   0.00000

 Dipole moment (field-independent basis, Debye):
    X=              0.7932    Y=              1.5052    Z=              0.3264  Tot=              1.7324
 Quadrupole moment (field-independent basis, Debye-Ang):
   XX=            -56.2777   YY=            -51.2811   ZZ=            -53.6029
   XY=             -0.1775   XZ=             -4.1152   YZ=             -0.2093

  Exact polarizability:  82.557   1.655  74.370  -2.606  -0.709  67.892
 Approx polarizability: 115.098   2.634 110.693   1.872   0.230 108.071

                      1                      2                      3
                      A                      A                      A
 Frequencies --    161.2465               252.0686               339.0551
 Red. masses --      3.0468                 2.9816                 2.3999
 Frc consts  --      0.0467                 0.1116                 0.1626
 IR Inten    --      3.4533                 3.8819                 0.4979

                      4                      5                      6
                      A                      A                      A
 Frequencies --    362.0294               386.3368               429.8398
 Red. masses --      2.6986                 2.6409                 5.2372
 Frc consts  --      0.2084                 0.2322                 0.5701
 IR Inten    --      1.8324                 5.7021                 0.0184

                      7                      8                      9
                      A                      A                      A
 Frequencies --    512.0084               563.8901               609.4201
 Red. masses --      3.2763                 2.1509                 3.2830
 Frc consts  --      0.5060                 0.4029                 0.7184
 IR Inten    --      2.9101                 3.9789                 6.4944

                     10                     11                     12
                      A                      A                      A
 Frequencies --    696.5063               712.8401               812.7266
 Red. masses --      2.7181                 4.6713                 2.5144
 Frc consts  --      0.7769                 1.3985                 0.9785
 IR Inten    --      4.3161                21.3331                 1.6586

                     13                     14                     15
                      A                      A                      A
 Frequencies --    839.0327               860.9569               910.7118
 Red. masses --      2.5795                 2.6895                 2.6963
 Frc consts  --      1.0699                 1.1746                 1.3176
 IR Inten    --      3.9813                14.2047                 3.7314

                     16                     17                     18
                      A                      A                      A
 Frequencies --    929.3307               947.5052               969.8876
 Red. masses --      2.5366                 2.9584                 2.0921
 Frc consts  --      1.2908                 1.5648                 1.1595
 IR Inten    --     25.8462                21.6218                 8.6533

                     19                     20                     21
                      A                      A                      A
 Frequencies --    982.8849              1021.1686              1033.2773
 Red. masses --      2.5271                 1.4341                 1.5981
 Frc consts  --      1.4384                 0.8811                 1.0053
 IR Inten    --      4.9431                 4.6368                 2.7750

                     22                     23                     24
                      A                      A                      A
 Frequencies --   1081.4821              1102.6112              1117.9429
 Red. masses --      3.3162                 2.0798                 1.7818
 Frc consts  --      2.2852                 1.4897                 1.3120
 IR Inten    --     49.8001                12.7320                 7.0097

                     25                     26                     27
                      A                      A                      A
 Frequencies --   1139.7947              1176.3454              1196.0905
 Red. masses --      2.3348                 1.5794                 1.4963
 Frc consts  --      1.7871                 1.2877                 1.2612
 IR Inten    --     21.2837                 2.8613                19.1716

                     28                     29                     30
                      A                      A                      A
 Frequencies --   1207.8059              1222.1535              1228.6476
 Red. masses --      1.4293                 1.3415                 1.4116
 Frc consts  --      1.2285                 1.1806                 1.2555
 IR Inten    --      3.2419                 4.3403                 7.0191

                     31                     32                     33
                      A                      A                      A
 Frequencies --   1277.4104              1294.1851              1322.5437
 Red. masses --      1.6591                 1.4705                 1.4163
 Frc consts  --      1.5951                 1.4511                 1.4596
 IR Inten    --     11.0161                 8.1136                 7.9138

                     34                     35                     36
                      A                      A                      A
 Frequencies --   1345.1074              1380.8343              1396.2465
 Red. masses --      1.3709                 1.6428                 1.4351
 Frc consts  --      1.4614                 1.8455                 1.6484
 IR Inten    --      0.9262                 1.5132                 8.1130

                     37                     38                     39
                      A                      A                      A
 Frequencies --   1409.1237              1478.3379              1489.8200
 Red. masses --      1.6212                 1.1611                 1.0864
 Frc consts  --      1.8967                 1.4950                 1.4207
 IR Inten    --      3.9442                 3.1437                 0.5746

                     40                     41                     42
                      A                      A                      A
 Frequencies --   1497.3235              1509.9690              2968.7008
 Red. masses --      1.1153                 1.1966                 1.0703
 Frc consts  --      1.4733                 1.6074                 5.5579
 IR Inten    --      3.3367                 5.1971                44.3296

                     43                     44                     45
                      A                      A                      A
 Frequencies --   2984.1586              3047.4650              3067.2019
 Red. masses --      1.0680                 1.0619                 1.0849
 Frc consts  --      5.6036                 5.8106                 6.0136
 IR Inten    --     55.2768                26.4694                14.7033

                     46                     47                     48
                      A                      A                      A
 Frequencies --   3082.2459              3090.2385              3093.6047
 Red. masses --      1.0579                 1.0919                 1.0955
 Frc consts  --      5.9214                 6.1433                 6.1771
 IR Inten    --     14.1777                44.0120                18.6923

                     49                     50                     51
                      A                      A                      A
 Frequencies --   3101.8649              3115.0221              3156.6036
 Red. masses --      1.0982                 1.0932                 1.1113
 Frc consts  --      6.2258                 6.2500                 6.5241
 IR Inten    --     51.2765                60.2238                23.7162

 - Thermochemistry -
 -------------------
 Temperature   298.150 Kelvin.  Pressure   1.00000 Atm.
 Atom     1 has atomic number  6 and mass  12.00000

 Molecular mass:   126.06808 amu.
 Principal axes and moments of inertia in atomic units:
                           1         2         3
     Eigenvalues --   580.662311089.151291327.51931
           X            0.99948   0.01450  -0.02874
           Y           -0.01448   0.99989   0.00086
           Z            0.02875  -0.00045   0.99959
 This molecule is an asymmetric top.
 Rotational symmetry number  1.
 Warning -- assumption of classical behavior for rotation
           may cause significant error
 Rotational temperatures (Kelvin)      0.14916     0.07952     0.06524
 Rotational constants (GHZ):           3.10807     1.65702     1.35948
 Zero-point vibrational energy     424157.5 (Joules/Mol)
                                  101.37609 (Kcal/Mol)
 Warning -- explicit consideration of   9 degrees of freedom as
           vibrations may cause significant error
 Vibrational temperatures:    232.00   362.67   487.82   520.88   555.85
          (Kelvin)            618.44   736.67   811.31   876.82  1002.12
                             1025.62  1169.33  1207.18  1238.72  1310.31
                             1337.10  1363.25  1395.45  1414.15  1469.23
                             1486.65  1556.01  1586.41  1608.47  1639.91
                             1692.50  1720.91  1737.76  1758.40  1767.75
                             1837.91  1862.04  1902.84  1935.31  1986.71
                             2008.88  2027.41  2127.00  2143.52  2154.31
                             2172.51  4271.29  4293.53  4384.62  4413.01
                             4434.66  4446.16  4451.00  4462.89  4481.82
                             4541.64

 Zero-point correction=                           0.161553 (Hartree/Particle)
 Thermal correction to Energy=                    0.168354
 Thermal correction to Enthalpy=                  0.169298
 Thermal correction to Gibbs Free Energy=         0.130718
 Sum of electronic and zero-point Energies=           -422.948003
 Sum of electronic and thermal Energies=              -422.941202
 Sum of electronic and thermal Enthalpies=            -422.940258
 Sum of electronic and thermal Free Energies=         -422.978838

                     E (Thermal)             CV                S
                      KCal/Mol        Cal/Mol-Kelvin    Cal/Mol-Kelvin
 Total                  105.644             28.611             81.199
 Electronic               0.000              0.000              0.000
 Translational            0.889              2.981             40.409
 Rotational               0.889              2.981             28.220
 Vibrational            103.866             22.649             12.571
 Vibration     1          0.622              1.890              2.535
 Vibration     2          0.664              1.759              1.716
 Vibration     3          0.719              1.597              1.217
 Vibration     4          0.736              1.550              1.113
 Vibration     5          0.755              1.499              1.014
 Vibration     6          0.791              1.405              0.859
 Vibration     7          0.867              1.223              0.629
 Vibration     8          0.920              1.109              0.516
 Vibration     9          0.968              1.012              0.434

 Normal termination of Gaussian 09 at Mon Jan 27 12:06:11 2020.
