 Gaussian 09, Revision D.01,
 Gaussian 09:  ES64L-G09RevD.01 24-Apr-2013

 -----------------------------
 # b3lyp 6-31G(2df,p) opt Freq
 -----------------------------

 -----
 titel
 -----
 Symbolic Z-matrix:
 Charge =  0 Multiplicity = 1

 SCF Done:  E(RB3LYP) =  -423.143937345     A.U. after   13 cycles
 Optimization completed.
    -- Stationary point found.
 Normal termination of Gaussian 09 at Mon Jan 27 11:18:38 2020.

 ----------------------------------------------------------------------
 #N Geom=AllCheck Guess=TCheck SCRF=Check GenChk RB3LYP/6-31G(2df,p) Fr
 eq
 ----------------------------------------------------------------------

 Structure from the checkpoint file:  "/scratch/puck/g09_3d712927-430b-4bdc-b81d-a552466cfc6a/Gau-150498.chk"
 -----
 titel
 -----
 Charge =  0 Multiplicity = 1

                         Standard orientation:
 ---------------------------------------------------------------------
 Center     Atomic      Atomic             Coordinates (Angstroms)
 Number     Number       Type             X           Y           Z
 ---------------------------------------------------------------------
      1          6           0       -1.835147    0.400994   -0.345438
      2          6           0       -1.575084   -1.007978    0.189586
      3          8           0       -0.397542   -1.586981   -0.358197
      4          6           0        0.815965   -1.244228    0.223720
      5          6           0        1.756042   -0.250336   -0.375969
      6          8           0        1.065119    0.829329   -0.996741
      7          6           0        0.519045    1.245610    0.289802
      8          6           0       -0.979694    1.501892    0.294129
      9          6           0        1.114667    0.020343    0.990386
     10          1           0       -1.657061    0.378000   -1.425272
     11          1           0       -2.893910    0.646691   -0.196316
     12          1           0       -1.533812   -1.013450    1.289089
     13          1           0       -2.387736   -1.674983   -0.115694
     14          1           0        1.334975   -2.104330    0.649988
     15          1           0        2.775579   -0.445199   -0.689966
     16          1           0        1.051071    2.149488    0.614203
     17          1           0       -1.275382    1.651086    1.342199
     18          1           0       -1.175575    2.452409   -0.217467
     19          1           0        1.526469    0.023723    1.991440
 ---------------------------------------------------------------------

 SCF Done:  E(RB3LYP) =  -423.143937345     A.U. after    1 cycles

 The electronic state is 1-A.
 Alpha  occ. eigenvalues --  -19.13780 -19.13744 -10.24073 -10.23741 -10.23607
 Alpha  occ. eigenvalues --  -10.22538 -10.19615 -10.18462 -10.17797  -1.05850
 Alpha  occ. eigenvalues --   -1.02414  -0.82867  -0.79331  -0.71677  -0.67385
 Alpha  occ. eigenvalues --   -0.59373  -0.56756  -0.53769  -0.53029  -0.51165
 Alpha  occ. eigenvalues --   -0.47153  -0.44806  -0.42716  -0.42279  -0.41561
 Alpha  occ. eigenvalues --   -0.38642  -0.36743  -0.34501  -0.33391  -0.32473
 Alpha  occ. eigenvalues --   -0.31222  -0.27380  -0.25795  -0.22575
 Alpha virt. eigenvalues --    0.08128   0.08291   0.10789   0.11824   0.13210
 Alpha virt. eigenvalues --    0.13739   0.14856   0.15109   0.16381   0.16920
 Alpha virt. eigenvalues --    0.17362   0.17465   0.19232   0.22007   0.22654

 Mulliken charges:
               1
     1  C   -0.193167
     2  C   -0.075520
     3  O   -0.249118
     4  C    0.098084
     5  C    0.061683
     6  O   -0.296787
     7  C    0.136909
     8  C   -0.233078
     9  C   -0.240359
    10  H    0.124727
    11  H    0.090063
    12  H    0.089370
    13  H    0.104908
    14  H    0.094801
    15  H    0.102546
    16  H    0.083355
    17  H    0.099871
    18  H    0.105842
    19  H    0.095869
 Sum of Mulliken charges =   0.00000

 Dipole moment (field-independent basis, Debye):
    X=             -0.1286    Y=              0.5211    Z=              2.2199  Tot=              2.2839
 Quadrupole moment (field-independent basis, Debye-Ang):
   XX=            -48.5602   YY=            -53.9649   ZZ=            -54.4507
   XY=             -2.1227   XZ=              1.3633   YZ=              0.2178

  Exact polarizability:  82.089  -2.470  75.737   0.050   0.608  64.289
 Approx polarizability: 109.517  -2.494 108.648  -3.218   1.870 106.740

                      1                      2                      3
                      A                      A                      A
 Frequencies --    149.9249               194.1274               279.9913
 Red. masses --      3.1836                 2.9616                 4.3015
 Frc consts  --      0.0422                 0.0658                 0.1987
 IR Inten    --      3.3958                 0.2668                 3.3539

                      4                      5                      6
                      A                      A                      A
 Frequencies --    326.6503               363.5938               422.0650
 Red. masses --      3.1728                 2.2754                 2.8856
 Frc consts  --      0.1995                 0.1772                 0.3029
 IR Inten    --      2.2398                 2.3541                 3.1259

                      7                      8                      9
                      A                      A                      A
 Frequencies --    548.5759               612.6035               631.1657
 Red. masses --      2.1613                 3.2509                 5.0423
 Frc consts  --      0.3832                 0.7188                 1.1835
 IR Inten    --      0.0643                 4.4136                10.6221

                     10                     11                     12
                      A                      A                      A
 Frequencies --    726.5131               775.0441               805.0329
 Red. masses --      2.3071                 2.4466                 2.3525
 Frc consts  --      0.7175                 0.8659                 0.8983
 IR Inten    --      6.6630                 7.1519                 4.6731

                     13                     14                     15
                      A                      A                      A
 Frequencies --    815.5723               858.0300               904.1015
 Red. masses --      2.6499                 2.5356                 2.3973
 Frc consts  --      1.0385                 1.0999                 1.1545
 IR Inten    --      6.4366                 2.8176                10.3472

                     16                     17                     18
                      A                      A                      A
 Frequencies --    936.2701               958.8094               970.0658
 Red. masses --      1.9271                 3.2689                 2.1329
 Frc consts  --      0.9953                 1.7706                 1.1826
 IR Inten    --      0.8865                34.3074                 2.8322

                     19                     20                     21
                      A                      A                      A
 Frequencies --    996.1907              1022.2507              1046.0373
 Red. masses --      2.3930                 1.7045                 1.5243
 Frc consts  --      1.3992                 1.0494                 0.9827
 IR Inten    --     16.7694                19.7220                 0.1555

                     22                     23                     24
                      A                      A                      A
 Frequencies --   1067.1768              1087.5229              1101.1315
 Red. masses --      1.7651                 3.0015                 2.6426
 Frc consts  --      1.1844                 2.0916                 1.8878
 IR Inten    --     15.4526                43.7645                54.3334

                     25                     26                     27
                      A                      A                      A
 Frequencies --   1110.0552              1152.7696              1213.2790
 Red. masses --      2.1893                 1.9417                 1.2918
 Frc consts  --      1.5895                 1.5202                 1.1204
 IR Inten    --      3.5976                 6.5610                 4.8536

                     28                     29                     30
                      A                      A                      A
 Frequencies --   1234.3594              1256.2369              1265.7672
 Red. masses --      2.0818                 1.4620                 1.3179
 Frc consts  --      1.8688                 1.3594                 1.2440
 IR Inten    --     89.6966                 6.8105                 4.3018

                     31                     32                     33
                      A                      A                      A
 Frequencies --   1296.0743              1324.8207              1352.1734
 Red. masses --      1.3630                 1.3980                 1.3612
 Frc consts  --      1.3489                 1.4457                 1.4664
 IR Inten    --      5.1268                17.3257                 3.3710

                     34                     35                     36
                      A                      A                      A
 Frequencies --   1367.4867              1386.3567              1402.3161
 Red. masses --      1.5700                 1.4158                 1.5202
 Frc consts  --      1.7297                 1.6032                 1.7614
 IR Inten    --      9.8037                 1.5359                 5.4452

                     37                     38                     39
                      A                      A                      A
 Frequencies --   1412.4437              1435.5939              1466.2814
 Red. masses --      1.3282                 1.8639                 1.0791
 Frc consts  --      1.5612                 2.2632                 1.3669
 IR Inten    --     20.6338                19.3835                 3.6930

                     40                     41                     42
                      A                      A                      A
 Frequencies --   1475.3087              1494.6599              2995.2908
 Red. masses --      1.1045                 1.1250                 1.0667
 Frc consts  --      1.4164                 1.4807                 5.6385
 IR Inten    --      6.5003                 4.8182                41.8467

                     43                     44                     45
                      A                      A                      A
 Frequencies --   3007.3554              3021.5003              3033.1141
 Red. masses --      1.0707                 1.0770                 1.0661
 Frc consts  --      5.7054                 5.7930                 5.7785
 IR Inten    --      9.0447                67.3612                25.3535

                     46                     47                     48
                      A                      A                      A
 Frequencies --   3054.4477              3075.2098              3090.8392
 Red. masses --      1.0980                 1.0956                 1.0983
 Frc consts  --      6.0357                 6.1045                 6.1821
 IR Inten    --     32.6472                49.6478                23.4922

                     49                     50                     51
                      A                      A                      A
 Frequencies --   3094.7448              3172.6850              3192.4997
 Red. masses --      1.0860                 1.0904                 1.0966
 Frc consts  --      6.1283                 6.4669                 6.5852
 IR Inten    --     28.2922                25.9386                14.9518

 - Thermochemistry -
 -------------------
 Temperature   298.150 Kelvin.  Pressure   1.00000 Atm.
 Atom     1 has atomic number  6 and mass  12.00000

 Molecular mass:   126.06808 amu.
 Principal axes and moments of inertia in atomic units:
                           1         2         3
     Eigenvalues --   712.02624 884.892481263.21087
           X            0.99692  -0.07704   0.01476
           Y            0.07702   0.99703   0.00193
           Z           -0.01486  -0.00079   0.99989
 This molecule is an asymmetric top.
 Rotational symmetry number  1.
 Warning -- assumption of classical behavior for rotation
           may cause significant error
 Rotational temperatures (Kelvin)      0.12164     0.09788     0.06857
 Rotational constants (GHZ):           2.53466     2.03950     1.42869
 Zero-point vibrational energy     424567.3 (Joules/Mol)
                                  101.47403 (Kcal/Mol)
 Warning -- explicit consideration of   8 degrees of freedom as
           vibrations may cause significant error
 Vibrational temperatures:    215.71   279.31   402.84   469.98   523.13
          (Kelvin)            607.26   789.28   881.40   908.11  1045.29
                             1115.11  1158.26  1173.43  1234.51  1300.80
                             1347.08  1379.51  1395.71  1433.29  1470.79
                             1505.01  1535.43  1564.70  1584.28  1597.12
                             1658.58  1745.64  1775.97  1807.44  1821.15
                             1864.76  1906.12  1945.47  1967.51  1994.66
                             2017.62  2032.19  2065.50  2109.65  2122.64
                             2150.48  4309.55  4326.91  4347.26  4363.97
                             4394.66  4424.54  4447.02  4452.64  4564.78
                             4593.29

 Zero-point correction=                           0.161709 (Hartree/Particle)
 Thermal correction to Energy=                    0.168665
 Thermal correction to Enthalpy=                  0.169609
 Thermal correction to Gibbs Free Energy=         0.130617
 Sum of electronic and zero-point Energies=           -422.982228
 Sum of electronic and thermal Energies=              -422.975273
 Sum of electronic and thermal Enthalpies=            -422.974328
 Sum of electronic and thermal Free Energies=         -423.013320

                     E (Thermal)             CV                S
                      KCal/Mol        Cal/Mol-Kelvin    Cal/Mol-Kelvin
 Total                  105.839             28.564             82.065
 Electronic               0.000              0.000              0.000
 Translational            0.889              2.981             40.409
 Rotational               0.889              2.981             28.167
 Vibrational            104.061             22.603             13.489
 Vibration     1          0.618              1.903              2.673
 Vibration     2          0.635              1.848              2.188
 Vibration     3          0.680              1.711              1.534
 Vibration     4          0.710              1.622              1.277
 Vibration     5          0.737              1.547              1.107
 Vibration     6          0.784              1.422              0.885
 Vibration     7          0.904              1.143              0.547
 Vibration     8          0.972              1.005              0.428

 Normal termination of Gaussian 09 at Mon Jan 27 12:06:17 2020.
