 Gaussian 09, Revision D.01,
 Gaussian 09:  ES64L-G09RevD.01 24-Apr-2013

 -----------------------------
 # b3lyp 6-31G(2df,p) opt Freq
 -----------------------------

 -----
 titel
 -----
 Symbolic Z-matrix:
 Charge =  0 Multiplicity = 1

 SCF Done:  E(RB3LYP) =  -423.127657200     A.U. after   13 cycles
 Optimization completed.
    -- Stationary point found.
 Normal termination of Gaussian 09 at Tue Jan 28 03:02:06 2020.

 ----------------------------------------------------------------------
 #N Geom=AllCheck Guess=TCheck SCRF=Check GenChk RB3LYP/6-31G(2df,p) Fr
 eq
 ----------------------------------------------------------------------

 Structure from the checkpoint file:  "/scratch/puck/g09_8dd1c32d-965f-4300-9c1b-37e35a4cb85b/Gau-88175.chk"
 -----
 titel
 -----
 Charge =  0 Multiplicity = 1

                         Standard orientation:
 ---------------------------------------------------------------------
 Center     Atomic      Atomic             Coordinates (Angstroms)
 Number     Number       Type             X           Y           Z
 ---------------------------------------------------------------------
      1          8           0       -2.778808   -0.765287   -0.273955
      2          6           0       -1.646959   -0.230433    0.378811
      3          6           0       -1.373529    1.285163    0.131984
      4          6           0       -0.019808    0.944066   -0.537282
      5          6           0        1.158403    0.782368    0.451642
      6          6           0        2.464700    0.324855   -0.215902
      7          8           0        2.070809   -1.065535   -0.166013
      8          6           0        0.861108   -0.751065    0.548988
      9          6           0       -0.349749   -0.596899   -0.380237
     10          1           0       -3.565448   -0.437654    0.174917
     11          1           0       -1.633875   -0.523681    1.440288
     12          1           0       -2.095869    1.682649   -0.586014
     13          1           0       -1.340904    1.941206    1.007651
     14          1           0        0.204568    1.433584   -1.486675
     15          1           0        1.227838    1.471972    1.293788
     16          1           0        2.640079    0.673996   -1.241676
     17          1           0        3.369475    0.502033    0.380220
     18          1           0        0.754109   -1.338035    1.467468
     19          1           0       -0.460987   -1.307825   -1.198244
 ---------------------------------------------------------------------

 SCF Done:  E(RB3LYP) =  -423.127657200     A.U. after    1 cycles

 The electronic state is 1-A.
 Alpha  occ. eigenvalues --  -19.13831 -19.12936 -10.23334 -10.23099 -10.22854
 Alpha  occ. eigenvalues --  -10.19108 -10.19013 -10.18119 -10.18057  -1.03722
 Alpha  occ. eigenvalues --   -1.02083  -0.85966  -0.73936  -0.70812  -0.65302
 Alpha  occ. eigenvalues --   -0.61910  -0.56447  -0.52241  -0.50992  -0.49990
 Alpha  occ. eigenvalues --   -0.48530  -0.45984  -0.43827  -0.41474  -0.40861
 Alpha  occ. eigenvalues --   -0.37737  -0.35480  -0.33498  -0.32329  -0.31035
 Alpha  occ. eigenvalues --   -0.29806  -0.27652  -0.25554  -0.23909
 Alpha virt. eigenvalues --    0.06855   0.07772   0.09297   0.10324   0.10931
 Alpha virt. eigenvalues --    0.12649   0.14093   0.15107   0.15839   0.17710
 Alpha virt. eigenvalues --    0.18375   0.18525   0.18690   0.20523   0.22503

 Mulliken charges:
               1
     1  O   -0.434671
     2  C    0.123820
     3  C   -0.281599
     4  C   -0.029680
     5  C   -0.088752
     6  C   -0.087860
     7  O   -0.295689
     8  C    0.117624
     9  C   -0.062049
    10  H    0.281413
    11  H    0.059870
    12  H    0.106313
    13  H    0.090496
    14  H    0.069494
    15  H    0.072133
    16  H    0.100082
    17  H    0.099126
    18  H    0.073068
    19  H    0.086861
 Sum of Mulliken charges =   0.00000

 Dipole moment (field-independent basis, Debye):
    X=             -1.0629    Y=              2.2733    Z=              1.4173  Tot=              2.8821
 Quadrupole moment (field-independent basis, Debye-Ang):
   XX=            -50.6056   YY=            -55.7569   ZZ=            -52.1080
   XY=              1.5305   XZ=             -2.5140   YZ=             -1.5062

  Exact polarizability:  89.924   1.736  69.073  -1.054  -1.247  65.332
 Approx polarizability: 114.428   2.178 105.894  -1.460  -0.286 101.184

                      1                      2                      3
                      A                      A                      A
 Frequencies --     72.4057               179.0112               223.5761
 Red. masses --      3.0118                 2.9123                 3.4360
 Frc consts  --      0.0093                 0.0550                 0.1012
 IR Inten    --      0.6290                 1.4427                 0.4735

                      4                      5                      6
                      A                      A                      A
 Frequencies --    269.1757               298.1287               352.5644
 Red. masses --      1.6357                 1.7677                 4.0136
 Frc consts  --      0.0698                 0.0926                 0.2939
 IR Inten    --     41.3857                61.5125                11.0479

                      7                      8                      9
                      A                      A                      A
 Frequencies --    413.0036               453.0296               652.3289
 Red. masses --      4.3326                 2.3331                 2.9840
 Frc consts  --      0.4354                 0.2821                 0.7481
 IR Inten    --      6.7017                 6.1828                 3.8412

                     10                     11                     12
                      A                      A                      A
 Frequencies --    757.8619               788.6511               802.3373
 Red. masses --      2.4728                 1.8366                 2.6741
 Frc consts  --      0.8368                 0.6730                 1.0142
 IR Inten    --      1.5774                 6.0027                 1.6727

                     13                     14                     15
                      A                      A                      A
 Frequencies --    845.0405               886.8188               911.2977
 Red. masses --      1.9282                 2.4053                 4.4300
 Frc consts  --      0.8113                 1.1145                 2.1676
 IR Inten    --      2.0644                10.5837                 1.7824

                     16                     17                     18
                      A                      A                      A
 Frequencies --    945.0831               977.0395               991.1286
 Red. masses --      2.2962                 1.8835                 1.8200
 Frc consts  --      1.2084                 1.0594                 1.0534
 IR Inten    --     12.8022                 0.5773                10.5145

                     19                     20                     21
                      A                      A                      A
 Frequencies --   1005.7334              1016.1287              1021.4859
 Red. masses --      2.3575                 3.2284                 4.5879
 Frc consts  --      1.4049                 1.9640                 2.8205
 IR Inten    --     31.4909                12.6654                91.3448

                     22                     23                     24
                      A                      A                      A
 Frequencies --   1058.8927              1071.4048              1114.4804
 Red. masses --      1.9703                 2.4049                 2.5552
 Frc consts  --      1.3016                 1.6265                 1.8699
 IR Inten    --     14.9809                12.8135                32.7566

                     25                     26                     27
                      A                      A                      A
 Frequencies --   1131.1318              1160.1431              1163.4816
 Red. masses --      1.7705                 1.2554                 1.4197
 Frc consts  --      1.3347                 0.9956                 1.1323
 IR Inten    --      4.0084                 0.6384                 2.3441

                     28                     29                     30
                      A                      A                      A
 Frequencies --   1197.8200              1200.5006              1224.6323
 Red. masses --      1.6145                 1.3443                 1.5400
 Frc consts  --      1.3648                 1.1415                 1.3608
 IR Inten    --      6.8964                 2.4233                 4.7862

                     31                     32                     33
                      A                      A                      A
 Frequencies --   1228.0210              1248.0532              1259.4462
 Red. masses --      1.6452                 1.4068                 1.5926
 Frc consts  --      1.4617                 1.2910                 1.4884
 IR Inten    --      0.3325                31.7790                10.3829

                     34                     35                     36
                      A                      A                      A
 Frequencies --   1273.4522              1308.2765              1316.0850
 Red. masses --      1.4118                 1.4013                 1.5977
 Frc consts  --      1.3489                 1.4132                 1.6305
 IR Inten    --      3.8705                 7.3937                33.7119

                     37                     38                     39
                      A                      A                      A
 Frequencies --   1335.0065              1365.4488              1426.7207
 Red. masses --      1.6172                 1.4443                 1.4107
 Frc consts  --      1.6982                 1.5866                 1.6919
 IR Inten    --     22.6876                 7.4482                 6.7723

                     40                     41                     42
                      A                      A                      A
 Frequencies --   1467.0059              1522.9088              2968.8916
 Red. masses --      1.1292                 1.0997                 1.0844
 Frc consts  --      1.4318                 1.5027                 5.6315
 IR Inten    --      2.0920                 0.8794                55.0478

                     43                     44                     45
                      A                      A                      A
 Frequencies --   3003.8443              3045.1833              3046.4932
 Red. masses --      1.0552                 1.0618                 1.1081
 Frc consts  --      5.6099                 5.8011                 6.0592
 IR Inten    --     92.6639                37.8396                39.4267

                     46                     47                     48
                      A                      A                      A
 Frequencies --   3050.0061              3085.5824              3100.3809
 Red. masses --      1.0871                 1.0895                 1.0902
 Frc consts  --      5.9585                 6.1118                 6.1746
 IR Inten    --     57.4901                31.2770                35.4741

                     49                     50                     51
                      A                      A                      A
 Frequencies --   3107.4116              3127.2595              3805.8031
 Red. masses --      1.1049                 1.0899                 1.0660
 Frc consts  --      6.2858                 6.2799                 9.0972
 IR Inten    --     32.4958                12.0967                17.3570

 - Thermochemistry -
 -------------------
 Temperature   298.150 Kelvin.  Pressure   1.00000 Atm.
 Atom     1 has atomic number  8 and mass  15.99491

 Molecular mass:   126.06808 amu.
 Principal axes and moments of inertia in atomic units:
                           1         2         3
     Eigenvalues --   435.336701490.215701725.04122
           X            0.99997   0.00466  -0.00600
           Y           -0.00476   0.99985  -0.01654
           Z            0.00592   0.01657   0.99985
 This molecule is an asymmetric top.
 Rotational symmetry number  1.
 Warning -- assumption of classical behavior for rotation
           may cause significant error
 Rotational temperatures (Kelvin)      0.19896     0.05812     0.05021
 Rotational constants (GHZ):           4.14562     1.21106     1.04620
 Zero-point vibrational energy     420341.4 (Joules/Mol)
                                  100.46401 (Kcal/Mol)
 Warning -- explicit consideration of   8 degrees of freedom as
           vibrations may cause significant error
 Vibrational temperatures:    104.18   257.56   321.68   387.28   428.94
          (Kelvin)            507.26   594.22   651.81   938.55  1090.39
                             1134.69  1154.38  1215.82  1275.93  1311.15
                             1359.76  1405.74  1426.01  1447.02  1461.98
                             1469.69  1523.51  1541.51  1603.49  1627.44
                             1669.19  1673.99  1723.39  1727.25  1761.97
                             1766.85  1795.67  1812.06  1832.21  1882.32
                             1893.55  1920.77  1964.57  2052.73  2110.69
                             2191.12  4271.57  4321.86  4381.33  4383.22
                             4388.27  4439.46  4460.75  4470.87  4499.42
                             5475.69

 Zero-point correction=                           0.160100 (Hartree/Particle)
 Thermal correction to Energy=                    0.167728
 Thermal correction to Enthalpy=                  0.168673
 Thermal correction to Gibbs Free Energy=         0.127825
 Sum of electronic and zero-point Energies=           -422.967558
 Sum of electronic and thermal Energies=              -422.959929
 Sum of electronic and thermal Enthalpies=            -422.958985
 Sum of electronic and thermal Free Energies=         -422.999832

                     E (Thermal)             CV                S
                      KCal/Mol        Cal/Mol-Kelvin    Cal/Mol-Kelvin
 Total                  105.251             29.924             85.970
 Electronic               0.000              0.000              0.000
 Translational            0.889              2.981             40.409
 Rotational               0.889              2.981             28.505
 Vibrational            103.474             23.962             17.056
 Vibration     1          0.599              1.967              4.087
 Vibration     2          0.629              1.868              2.339
 Vibration     3          0.649              1.805              1.930
 Vibration     4          0.674              1.730              1.601
 Vibration     5          0.691              1.677              1.427
 Vibration     6          0.729              1.570              1.155
 Vibration     7          0.777              1.442              0.916
 Vibration     8          0.812              1.354              0.787

 Normal termination of Gaussian 09 at Tue Jan 28 03:45:19 2020.
