 Gaussian 09, Revision D.01,
 Gaussian 09:  ES64L-G09RevD.01 24-Apr-2013

 -----------------------------
 # b3lyp 6-31G(2df,p) opt Freq
 -----------------------------

 -----
 titel
 -----
 Symbolic Z-matrix:
 Charge =  0 Multiplicity = 1

 SCF Done:  E(RB3LYP) =  -423.085228589     A.U. after   14 cycles
 Optimization completed.
    -- Stationary point found.
 Normal termination of Gaussian 09 at Tue Jan 28 10:04:17 2020.

 ----------------------------------------------------------------------
 #N Geom=AllCheck Guess=TCheck SCRF=Check GenChk RB3LYP/6-31G(2df,p) Fr
 eq
 ----------------------------------------------------------------------

 Structure from the checkpoint file:  "/scratch/puck/g09_be71f314-c965-42f2-b023-afb595b4b2df/Gau-191355.chk"
 -----
 titel
 -----
 Charge =  0 Multiplicity = 1

                         Standard orientation:
 ---------------------------------------------------------------------
 Center     Atomic      Atomic             Coordinates (Angstroms)
 Number     Number       Type             X           Y           Z
 ---------------------------------------------------------------------
      1          6           0       -2.643423    0.506156    0.051027
      2          6           0       -1.691069   -0.439719   -0.691686
      3          6           0       -0.326305   -0.489964   -0.082857
      4          8           0       -0.164305   -0.896522    1.315620
      5          6           0        1.206860   -0.653435    0.899709
      6          6           0        1.000764   -1.175167   -0.548690
      7          8           0        1.531809    0.019111   -1.186100
      8          6           0        0.849435    0.566066   -0.013962
      9          6           0        0.866848    2.035654    0.242373
     10          1           0       -3.642158    0.477863   -0.393519
     11          1           0       -2.727203    0.220430    1.102939
     12          1           0       -2.287277    1.540306    0.010954
     13          1           0       -2.103434   -1.456128   -0.702617
     14          1           0       -1.573319   -0.134000   -1.738501
     15          1           0        2.013657   -0.807418    1.615969
     16          1           0        1.190031   -2.147959   -1.001662
     17          1           0        0.319996    2.252166    1.165003
     18          1           0        1.894487    2.395819    0.351596
     19          1           0        0.396529    2.580652   -0.581809
 ---------------------------------------------------------------------

 SCF Done:  E(RB3LYP) =  -423.085228589     A.U. after    1 cycles

 The electronic state is 1-A.
 Alpha  occ. eigenvalues --  -19.13506 -19.13471 -10.24999 -10.24711 -10.24431
 Alpha  occ. eigenvalues --  -10.24392 -10.19357 -10.19012 -10.18019  -1.09089
 Alpha  occ. eigenvalues --   -1.01291  -0.78561  -0.75973  -0.74040  -0.66919
 Alpha  occ. eigenvalues --   -0.62545  -0.60672  -0.49948  -0.48596  -0.48326
 Alpha  occ. eigenvalues --   -0.47437  -0.43904  -0.43391  -0.41925  -0.40391
 Alpha  occ. eigenvalues --   -0.39759  -0.37595  -0.35950  -0.35503  -0.34400
 Alpha  occ. eigenvalues --   -0.30708  -0.29276  -0.23901  -0.23765
 Alpha virt. eigenvalues --    0.06290   0.08248   0.10001   0.12081   0.12640
 Alpha virt. eigenvalues --    0.13393   0.13945   0.14544   0.14780   0.15734
 Alpha virt. eigenvalues --    0.17324   0.18000   0.18125   0.19217   0.20226

 Mulliken charges:
               1
     1  C   -0.384140
     2  C   -0.341551
     3  C    0.402919
     4  O   -0.360225
     5  C   -0.005388
     6  C   -0.020271
     7  O   -0.355607
     8  C    0.375717
     9  C   -0.536358
    10  H    0.115937
    11  H    0.140478
    12  H    0.119960
    13  H    0.116154
    14  H    0.119750
    15  H    0.099147
    16  H    0.099070
    17  H    0.141365
    18  H    0.136968
    19  H    0.136075
 Sum of Mulliken charges =   0.00000

 Dipole moment (field-independent basis, Debye):
    X=             -0.4991    Y=              0.4843    Z=             -0.0404  Tot=              0.6966
 Quadrupole moment (field-independent basis, Debye-Ang):
   XX=            -52.2942   YY=            -50.0780   ZZ=            -56.6981
   XY=             -1.0149   XZ=              5.1217   YZ=              2.7226

  Exact polarizability:  81.234  -0.916  76.626   2.968   1.967  67.272
 Approx polarizability: 111.018   0.921 109.887  -0.314  -0.523 108.730

                      1                      2                      3
                      A                      A                      A
 Frequencies --     80.1202               135.1930               176.1059
 Red. masses --      2.4693                 2.8124                 1.3629
 Frc consts  --      0.0093                 0.0303                 0.0249
 IR Inten    --      0.0141                 0.1518                 0.1592

                      4                      5                      6
                      A                      A                      A
 Frequencies --    215.4148               237.6000               253.4407
 Red. masses --      1.0545                 2.4843                 2.1320
 Frc consts  --      0.0288                 0.0826                 0.0807
 IR Inten    --      0.1537                 0.4906                 1.2481

                      7                      8                      9
                      A                      A                      A
 Frequencies --    296.0390               399.4534               529.6871
 Red. masses --      2.9485                 2.8200                 4.4310
 Frc consts  --      0.1522                 0.2651                 0.7325
 IR Inten    --      2.4391                 1.7556                10.4003

                     10                     11                     12
                      A                      A                      A
 Frequencies --    553.5619               656.9037               694.8255
 Red. masses --      3.8878                 3.2495                 2.7802
 Frc consts  --      0.7019                 0.8262                 0.7908
 IR Inten    --     10.5417                 1.8026                 0.3750

                     13                     14                     15
                      A                      A                      A
 Frequencies --    735.7496               769.5424               787.9040
 Red. masses --      2.3727                 3.1878                 3.4344
 Frc consts  --      0.7567                 1.1123                 1.2562
 IR Inten    --      0.9859                 6.0407                15.3925

                     16                     17                     18
                      A                      A                      A
 Frequencies --    821.5829               825.2688               872.1363
 Red. masses --      3.1951                 2.1713                 2.5329
 Frc consts  --      1.2707                 0.8713                 1.1351
 IR Inten    --     18.0598                 5.2146                 9.0026

                     19                     20                     21
                      A                      A                      A
 Frequencies --    917.0980               947.0656               977.4992
 Red. masses --      2.7216                 2.5348                 2.3400
 Frc consts  --      1.3487                 1.3395                 1.3174
 IR Inten    --     17.5413                 7.1217                40.4423

                     22                     23                     24
                      A                      A                      A
 Frequencies --    994.3954              1050.4549              1101.0833
 Red. masses --      2.4483                 1.6039                 1.7637
 Frc consts  --      1.4264                 1.0428                 1.2598
 IR Inten    --      1.6924                 7.5399                 1.1544

                     25                     26                     27
                      A                      A                      A
 Frequencies --   1108.3793              1128.5457              1153.6147
 Red. masses --      1.6807                 1.7141                 2.0937
 Frc consts  --      1.2165                 1.2862                 1.6417
 IR Inten    --     10.8458                13.8510                 0.2220

                     28                     29                     30
                      A                      A                      A
 Frequencies --   1173.1232              1216.2434              1268.6281
 Red. masses --      2.3519                 1.9123                 1.8806
 Frc consts  --      1.9071                 1.6666                 1.7833
 IR Inten    --      1.6193                30.4141                 8.2512

                     31                     32                     33
                      A                      A                      A
 Frequencies --   1297.0086              1306.6356              1362.8248
 Red. masses --      1.3542                 2.0846                 1.7278
 Frc consts  --      1.3422                 2.0969                 1.8907
 IR Inten    --      6.5978                13.0474                 2.6665

                     34                     35                     36
                      A                      A                      A
 Frequencies --   1398.3863              1409.3993              1429.1824
 Red. masses --      1.7400                 1.2616                 3.2912
 Frc consts  --      2.0047                 1.4765                 3.9608
 IR Inten    --      7.2175                 0.3291                13.5554

                     37                     38                     39
                      A                      A                      A
 Frequencies --   1469.5571              1474.7501              1489.1226
 Red. masses --      1.0720                 1.0576                 1.0524
 Frc consts  --      1.3640                 1.3552                 1.3749
 IR Inten    --      0.8299                 8.1368                 3.4840

                     40                     41                     42
                      A                      A                      A
 Frequencies --   1497.1622              1507.5921              3030.4094
 Red. masses --      1.0397                 1.0768                 1.0596
 Frc consts  --      1.3731                 1.4420                 5.7332
 IR Inten    --      6.1346                 4.8883                16.4535

                     43                     44                     45
                      A                      A                      A
 Frequencies --   3039.1356              3044.0854              3067.3174
 Red. masses --      1.0343                 1.0353                 1.1010
 Frc consts  --      5.6287                 5.6521                 6.1032
 IR Inten    --     10.9165                24.1711                 7.4805

                     46                     47                     48
                      A                      A                      A
 Frequencies --   3110.4578              3112.7253              3118.7452
 Red. masses --      1.1017                 1.1017                 1.1008
 Frc consts  --      6.2803                 6.2891                 6.3084
 IR Inten    --     26.3967                20.3501                 8.5346

                     49                     50                     51
                      A                      A                      A
 Frequencies --   3120.6716              3124.2739              3135.0443
 Red. masses --      1.0890                 1.1021                 1.0992
 Frc consts  --      6.2487                 6.3384                 6.3651
 IR Inten    --     38.8735                19.4469                42.6966

 - Thermochemistry -
 -------------------
 Temperature   298.150 Kelvin.  Pressure   1.00000 Atm.
 Atom     1 has atomic number  6 and mass  12.00000

 Molecular mass:   126.06808 amu.
 Principal axes and moments of inertia in atomic units:
                           1         2         3
     Eigenvalues --   729.392041167.174661325.73883
           X            0.99944  -0.01006   0.03205
           Y            0.00707   0.99573   0.09201
           Z           -0.03283  -0.09173   0.99524
 This molecule is an asymmetric top.
 Rotational symmetry number  1.
 Warning -- assumption of classical behavior for rotation
           may cause significant error
 Rotational temperatures (Kelvin)      0.11875     0.07421     0.06533
 Rotational constants (GHZ):           2.47431     1.54625     1.36131
 Zero-point vibrational energy     410445.6 (Joules/Mol)
                                   98.09885 (Kcal/Mol)
 Warning -- explicit consideration of  10 degrees of freedom as
           vibrations may cause significant error
 Vibrational temperatures:    115.28   194.51   253.38   309.93   341.85
          (Kelvin)            364.64   425.93   574.72   762.10   796.45
                              945.14   999.70  1058.58  1107.20  1133.62
                             1182.07  1187.38  1254.81  1319.50  1362.61
                             1406.40  1430.71  1511.37  1584.21  1594.71
                             1623.72  1659.79  1687.86  1749.90  1825.27
                             1866.10  1879.95  1960.80  2011.96  2027.81
                             2056.27  2114.36  2121.83  2142.51  2154.08
                             2169.09  4360.08  4372.63  4379.75  4413.18
                             4475.25  4478.51  4487.17  4489.94  4495.13
                             4510.62

 Zero-point correction=                           0.156330 (Hartree/Particle)
 Thermal correction to Energy=                    0.164992
 Thermal correction to Enthalpy=                  0.165936
 Thermal correction to Gibbs Free Energy=         0.123135
 Sum of electronic and zero-point Energies=           -422.928898
 Sum of electronic and thermal Energies=              -422.920236
 Sum of electronic and thermal Enthalpies=            -422.919292
 Sum of electronic and thermal Free Energies=         -422.962093

                     E (Thermal)             CV                S
                      KCal/Mol        Cal/Mol-Kelvin    Cal/Mol-Kelvin
 Total                  103.534             32.960             90.082
 Electronic               0.000              0.000              0.000
 Translational            0.889              2.981             40.409
 Rotational               0.889              2.981             28.514
 Vibrational            101.757             26.999             21.160
 Vibration     1          0.600              1.963              3.888
 Vibration     2          0.613              1.918              2.871
 Vibration     3          0.628              1.872              2.369
 Vibration     4          0.645              1.818              1.997
 Vibration     5          0.656              1.783              1.821
 Vibration     6          0.665              1.757              1.707
 Vibration     7          0.690              1.681              1.439
 Vibration     8          0.766              1.471              0.965
 Vibration     9          0.885              1.184              0.588
 Vibration    10          0.909              1.132              0.537

 Normal termination of Gaussian 09 at Tue Jan 28 10:39:38 2020.
