 Gaussian 09, Revision D.01,
 Gaussian 09:  ES64L-G09RevD.01 24-Apr-2013

 -----------------------------
 # b3lyp 6-31G(2df,p) opt Freq
 -----------------------------

 -----
 titel
 -----
 Symbolic Z-matrix:
 Charge =  0 Multiplicity = 1

 SCF Done:  E(RB3LYP) =  -423.209344679     A.U. after   14 cycles
 Optimization completed.
    -- Stationary point found.
 Normal termination of Gaussian 09 at Mon Jan 27 13:20:54 2020.

 ----------------------------------------------------------------------
 #N Geom=AllCheck Guess=TCheck SCRF=Check GenChk RB3LYP/6-31G(2df,p) Fr
 eq
 ----------------------------------------------------------------------

 Structure from the checkpoint file:  "/scratch/puck/g09_abbda73b-b507-42b9-b995-7a91505c7817/Gau-168419.chk"
 -----
 titel
 -----
 Charge =  0 Multiplicity = 1

                         Standard orientation:
 ---------------------------------------------------------------------
 Center     Atomic      Atomic             Coordinates (Angstroms)
 Number     Number       Type             X           Y           Z
 ---------------------------------------------------------------------
      1          8           0        2.731819   -0.529641    0.364039
      2          6           0        2.153371    0.256357   -0.342930
      3          6           0        0.691768    0.185635   -0.718891
      4          6           0       -0.091962    1.457641   -0.218802
      5          6           0       -1.195921    0.808367    0.639747
      6          6           0       -0.466210   -0.363030    1.307898
      7          6           0       -0.079307   -0.978846   -0.054411
      8          6           0       -1.467956   -1.038325   -0.706661
      9          8           0       -2.122888    0.161062   -0.245141
     10          1           0        2.688425    1.134752   -0.775428
     11          1           0        0.656115    0.129747   -1.814781
     12          1           0        0.542700    2.124734    0.376377
     13          1           0       -0.520529    2.037108   -1.038096
     14          1           0       -1.754810    1.496743    1.274334
     15          1           0        0.395850   -0.070792    1.910391
     16          1           0       -1.134937   -0.993554    1.898512
     17          1           0        0.464420   -1.921822   -0.034948
     18          1           0       -1.430680   -1.038741   -1.803083
     19          1           0       -2.040701   -1.916337   -0.380155
 ---------------------------------------------------------------------

 SCF Done:  E(RB3LYP) =  -423.209344679     A.U. after    1 cycles

 The electronic state is 1-A.
 Alpha  occ. eigenvalues --  -19.14420 -19.13442 -10.27407 -10.23539 -10.22746
 Alpha  occ. eigenvalues --  -10.20384 -10.19610 -10.19489 -10.18454  -1.05089
 Alpha  occ. eigenvalues --   -1.03433  -0.84167  -0.75371  -0.73621  -0.65970
 Alpha  occ. eigenvalues --   -0.60608  -0.57251  -0.53767  -0.52195  -0.50159
 Alpha  occ. eigenvalues --   -0.47471  -0.44864  -0.42994  -0.41434  -0.41138
 Alpha  occ. eigenvalues --   -0.38570  -0.37045  -0.36469  -0.35436  -0.33774
 Alpha  occ. eigenvalues --   -0.33405  -0.30863  -0.25751  -0.24412
 Alpha virt. eigenvalues --   -0.02419   0.08182   0.09591   0.12163   0.13451
 Alpha virt. eigenvalues --    0.13865   0.14063   0.14975   0.15522   0.16187
 Alpha virt. eigenvalues --    0.16666   0.18188   0.18797   0.19923   0.21229

 Mulliken charges:
               1
     1  O   -0.247630
     2  C    0.134293
     3  C   -0.078621
     4  C   -0.247418
     5  C    0.117362
     6  C   -0.238154
     7  C   -0.041714
     8  C   -0.087003
     9  O   -0.282745
    10  H    0.078919
    11  H    0.094766
    12  H    0.102656
    13  H    0.116357
    14  H    0.077522
    15  H    0.114954
    16  H    0.106023
    17  H    0.086519
    18  H    0.095565
    19  H    0.098351
 Sum of Mulliken charges =   0.00000

 Dipole moment (field-independent basis, Debye):
    X=             -0.3255    Y=              0.8379    Z=             -0.7807  Tot=              1.1906
 Quadrupole moment (field-independent basis, Debye-Ang):
   XX=            -64.2962   YY=            -50.8046   ZZ=            -50.8623
   XY=              4.5099   XZ=             -4.0980   YZ=              1.2848

  Exact polarizability:  79.486   2.334  74.435   0.193  -1.439  68.810
 Approx polarizability: 111.659  -3.339 112.244   5.212  -4.836 106.680

                      1                      2                      3
                      A                      A                      A
 Frequencies --     75.1203               141.3312               202.0270
 Red. masses --      4.9981                 3.0703                 4.4997
 Frc consts  --      0.0166                 0.0361                 0.1082
 IR Inten    --      7.0037                 3.4880                 5.0021

                      4                      5                      6
                      A                      A                      A
 Frequencies --    270.9259               369.4745               413.3332
 Red. masses --      2.5315                 3.1311                 1.9421
 Frc consts  --      0.1095                 0.2518                 0.1955
 IR Inten    --      4.2720                 0.1554                 1.7012

                      7                      8                      9
                      A                      A                      A
 Frequencies --    462.6351               585.4513               686.6291
 Red. masses --      2.0084                 4.7496                 4.1438
 Frc consts  --      0.2533                 0.9591                 1.1510
 IR Inten    --      3.3195                 6.3719                10.0421

                     10                     11                     12
                      A                      A                      A
 Frequencies --    739.1791               797.9424               805.5828
 Red. masses --      3.7656                 3.1419                 3.6719
 Frc consts  --      1.2122                 1.1787                 1.4040
 IR Inten    --      2.6117                 1.2998                 0.1630

                     13                     14                     15
                      A                      A                      A
 Frequencies --    856.9246               899.5827               922.0688
 Red. masses --      2.3939                 2.4507                 2.1226
 Frc consts  --      1.0357                 1.1685                 1.0633
 IR Inten    --      6.8939                 5.9092                34.7018

                     16                     17                     18
                      A                      A                      A
 Frequencies --    937.8990               949.4687               956.9425
 Red. masses --      1.9342                 2.6966                 2.4272
 Frc consts  --      1.0025                 1.4323                 1.3096
 IR Inten    --      5.3618                 5.2554                12.0968

                     19                     20                     21
                      A                      A                      A
 Frequencies --    966.6997               991.1998              1013.6243
 Red. masses --      1.7713                 1.6470                 1.8228
 Frc consts  --      0.9753                 0.9534                 1.1035
 IR Inten    --      3.1590                 3.9326                19.0501

                     22                     23                     24
                      A                      A                      A
 Frequencies --   1060.1726              1091.4825              1104.9314
 Red. masses --      2.0934                 1.6283                 2.0292
 Frc consts  --      1.3863                 1.1429                 1.4596
 IR Inten    --     39.5910                 7.4436                13.9143

                     25                     26                     27
                      A                      A                      A
 Frequencies --   1136.2091              1173.2987              1184.7391
 Red. masses --      1.2635                 1.3619                 1.5352
 Frc consts  --      0.9610                 1.1046                 1.2696
 IR Inten    --      1.0083                 8.1387                 8.5518

                     28                     29                     30
                      A                      A                      A
 Frequencies --   1216.2914              1243.5617              1276.3219
 Red. masses --      1.5190                 1.4733                 1.5214
 Frc consts  --      1.3240                 1.3424                 1.4602
 IR Inten    --     10.8391                 2.4572                 6.1656

                     31                     32                     33
                      A                      A                      A
 Frequencies --   1281.2806              1291.2050              1325.5747
 Red. masses --      1.3818                 1.5097                 1.3001
 Frc consts  --      1.3365                 1.4829                 1.3460
 IR Inten    --      2.5024                 3.9075                 4.2502

                     34                     35                     36
                      A                      A                      A
 Frequencies --   1331.6138              1355.5828              1385.9261
 Red. masses --      1.4926                 1.9514                 1.4059
 Frc consts  --      1.5594                 2.1128                 1.5910
 IR Inten    --      0.7521                 1.6145                 8.6871

                     37                     38                     39
                      A                      A                      A
 Frequencies --   1424.7083              1481.3536              1497.6859
 Red. masses --      1.2054                 1.0939                 1.1092
 Frc consts  --      1.4416                 1.4144                 1.4659
 IR Inten    --      8.9888                 3.5055                 4.9217

                     40                     41                     42
                      A                      A                      A
 Frequencies --   1530.2150              1823.9627              2854.1344
 Red. masses --      1.0947                10.4791                 1.0822
 Frc consts  --      1.5103                20.5402                 5.1938
 IR Inten    --      0.3840               151.4713               129.9248

                     43                     44                     45
                      A                      A                      A
 Frequencies --   3008.4974              3025.0962              3039.8319
 Red. masses --      1.0577                 1.0830                 1.0669
 Frc consts  --      5.6403                 5.8391                 5.8086
 IR Inten    --     76.7711                15.9055                24.3678

                     46                     47                     48
                      A                      A                      A
 Frequencies --   3046.9126              3074.9460              3116.5360
 Red. masses --      1.1080                 1.0589                 1.0963
 Frc consts  --      6.0606                 5.8989                 6.2739
 IR Inten    --     44.0379                16.6263                22.3996

                     49                     50                     51
                      A                      A                      A
 Frequencies --   3118.9616              3133.1154              3137.9358
 Red. masses --      1.0912                 1.1080                 1.0888
 Frc consts  --      6.2543                 6.4083                 6.3164
 IR Inten    --     34.2009                18.1434                 9.3603

 - Thermochemistry -
 -------------------
 Temperature   298.150 Kelvin.  Pressure   1.00000 Atm.
 Atom     1 has atomic number  8 and mass  15.99491

 Molecular mass:   126.06808 amu.
 Principal axes and moments of inertia in atomic units:
                           1         2         3
     Eigenvalues --   526.130951351.128801447.10323
           X            0.99959   0.02658  -0.01078
           Y           -0.02656   0.99965   0.00195
           Z            0.01083  -0.00167   0.99994
 This molecule is an asymmetric top.
 Rotational symmetry number  1.
 Warning -- assumption of classical behavior for rotation
           may cause significant error
 Rotational temperatures (Kelvin)      0.16462     0.06410     0.05985
 Rotational constants (GHZ):           3.43021     1.33573     1.24714
 Zero-point vibrational energy     423574.5 (Joules/Mol)
                                  101.23673 (Kcal/Mol)
 Warning -- explicit consideration of   8 degrees of freedom as
           vibrations may cause significant error
 Vibrational temperatures:    108.08   203.34   290.67   389.80   531.59
          (Kelvin)            594.69   665.63   842.33   987.90  1063.51
                             1148.06  1159.05  1232.92  1294.30  1326.65
                             1349.43  1366.07  1376.83  1390.86  1426.11
                             1458.38  1525.35  1570.40  1589.75  1634.75
                             1688.11  1704.57  1749.97  1789.21  1836.34
                             1843.47  1857.75  1907.20  1915.89  1950.38
                             1994.04  2049.83  2131.33  2154.83  2201.64
                             2624.27  4106.46  4328.55  4352.43  4373.63
                             4383.82  4424.16  4483.99  4487.48  4507.85
                             4514.78

 Zero-point correction=                           0.161331 (Hartree/Particle)
 Thermal correction to Energy=                    0.168731
 Thermal correction to Enthalpy=                  0.169675
 Thermal correction to Gibbs Free Energy=         0.129154
 Sum of electronic and zero-point Energies=           -423.048014
 Sum of electronic and thermal Energies=              -423.040614
 Sum of electronic and thermal Enthalpies=            -423.039670
 Sum of electronic and thermal Free Energies=         -423.080190

                     E (Thermal)             CV                S
                      KCal/Mol        Cal/Mol-Kelvin    Cal/Mol-Kelvin
 Total                  105.880             28.950             85.282
 Electronic               0.000              0.000              0.000
 Translational            0.889              2.981             40.409
 Rotational               0.889              2.981             28.422
 Vibrational            104.103             22.989             16.452
 Vibration     1          0.599              1.966              4.014
 Vibration     2          0.615              1.912              2.786
 Vibration     3          0.639              1.837              2.115
 Vibration     4          0.675              1.727              1.590
 Vibration     5          0.742              1.535              1.082
 Vibration     6          0.777              1.441              0.915
 Vibration     7          0.820              1.333              0.758
 Vibration     8          0.942              1.063              0.475

 Optimization completed.
    -- Stationary point found.
 Normal termination of Gaussian 09 at Mon Jan 27 14:10:21 2020.
