 Gaussian 09, Revision D.01,
 Gaussian 09:  ES64L-G09RevD.01 24-Apr-2013

 -----------------------------
 # b3lyp 6-31G(2df,p) opt Freq
 -----------------------------

 -----
 titel
 -----
 Symbolic Z-matrix:
 Charge =  0 Multiplicity = 1

 SCF Done:  E(RB3LYP) =  -423.122061422     A.U. after   13 cycles
 Optimization completed.
    -- Stationary point found.
 Normal termination of Gaussian 09 at Mon Jan 27 22:14:32 2020.

 ----------------------------------------------------------------------
 #N Geom=AllCheck Guess=TCheck SCRF=Check GenChk RB3LYP/6-31G(2df,p) Fr
 eq
 ----------------------------------------------------------------------

 Structure from the checkpoint file:  "/scratch/puck/g09_48e88ce3-f4e1-42c5-b7bc-dd61dedd4261/Gau-29078.chk"
 -----
 titel
 -----
 Charge =  0 Multiplicity = 1

                         Standard orientation:
 ---------------------------------------------------------------------
 Center     Atomic      Atomic             Coordinates (Angstroms)
 Number     Number       Type             X           Y           Z
 ---------------------------------------------------------------------
      1          6           0       -2.665402    0.935163   -0.000023
      2          6           0       -1.158333    0.717705   -0.000028
      3          6           0       -0.650824   -0.380718    0.973477
      4          8           0       -1.129372   -1.376346    0.000023
      5          6           0       -0.650816   -0.380778   -0.973464
      6          6           0        0.874936   -0.458868   -0.768049
      7          6           0        1.608504    0.613503   -0.000010
      8          8           0        3.004988    0.608375    0.000011
      9          6           0        0.874925   -0.458824    0.768095
     10          1           0       -2.973182    1.505478    0.883177
     11          1           0       -2.973153    1.505773   -0.883040
     12          1           0       -3.196914   -0.018260   -0.000175
     13          1           0       -0.642718    1.679840   -0.000056
     14          1           0       -1.048795   -0.521403    1.978604
     15          1           0       -1.048754   -0.521519   -1.978597
     16          1           0        1.447222   -1.174181   -1.349402
     17          1           0        1.273635    1.643347   -0.000040
     18          1           0        3.312584   -0.304313   -0.000233
     19          1           0        1.447213   -1.174092    1.349497
 ---------------------------------------------------------------------

 SCF Done:  E(RB3LYP) =  -423.122061422     A.U. after    1 cycles

 The electronic state is 1-A.
 Alpha  occ. eigenvalues --  -19.14955 -19.12859 -10.24627 -10.24137 -10.24136
 Alpha  occ. eigenvalues --  -10.19589 -10.19135 -10.19113 -10.17532  -1.04608
 Alpha  occ. eigenvalues --   -1.03365  -0.85446  -0.76775  -0.69954  -0.67239
 Alpha  occ. eigenvalues --   -0.62828  -0.56131  -0.55625  -0.51765  -0.50076
 Alpha  occ. eigenvalues --   -0.49296  -0.43177  -0.42560  -0.39738  -0.39392
 Alpha  occ. eigenvalues --   -0.38009  -0.37676  -0.36178  -0.36064  -0.32143
 Alpha  occ. eigenvalues --   -0.30765  -0.26673  -0.25012  -0.24746
 Alpha virt. eigenvalues --    0.07058   0.08445   0.09968   0.10161   0.11813
 Alpha virt. eigenvalues --    0.13053   0.13550   0.14904   0.15430   0.17534
 Alpha virt. eigenvalues --    0.17552   0.18037   0.19228   0.22713   0.22975

 Mulliken charges:
               1
     1  C   -0.430847
     2  C    0.023615
     3  C    0.045042
     4  O   -0.300385
     5  C    0.045033
     6  C   -0.116548
     7  C    0.119718
     8  O   -0.442381
     9  C   -0.116534
    10  H    0.113553
    11  H    0.113551
    12  H    0.138715
    13  H    0.068886
    14  H    0.077842
    15  H    0.077841
    16  H    0.092541
    17  H    0.112446
    18  H    0.285366
    19  H    0.092546
 Sum of Mulliken charges =   0.00000

 Dipole moment (field-independent basis, Debye):
    X=              0.0885    Y=              0.1717    Z=             -0.0004  Tot=              0.1932
 Quadrupole moment (field-independent basis, Debye-Ang):
   XX=            -55.2795   YY=            -55.4157   ZZ=            -50.8896
   XY=             -8.0076   XZ=             -0.0013   YZ=              0.0003

  Exact polarizability:  88.393  -3.214  66.146  -0.001   0.000  68.125
 Approx polarizability: 114.711   3.041 106.111  -0.001   0.001 109.382

                      1                      2                      3
                      A                      A                      A
 Frequencies --    194.9757               223.0794               228.5499
 Red. masses --      3.9837                 1.1246                 1.1964
 Frc consts  --      0.0892                 0.0330                 0.0368
 IR Inten    --      2.7676                 3.1779                46.4593

                      4                      5                      6
                      A                      A                      A
 Frequencies --    253.8676               299.6887               325.6601
 Red. masses --      1.8123                 3.7568                 2.9334
 Frc consts  --      0.0688                 0.1988                 0.1833
 IR Inten    --     32.7468                 8.8980                 0.0314

                      7                      8                      9
                      A                      A                      A
 Frequencies --    343.2877               410.5981               544.7613
 Red. masses --      3.7956                 4.3256                 6.5754
 Frc consts  --      0.2635                 0.4297                 1.1497
 IR Inten    --      8.5481                 1.4545                 1.4340

                     10                     11                     12
                      A                      A                      A
 Frequencies --    615.9319               701.2185               789.9510
 Red. masses --      3.2132                 4.9931                 2.0440
 Frc consts  --      0.7182                 1.4465                 0.7515
 IR Inten    --      0.3902                 0.9973                 9.1660

                     13                     14                     15
                      A                      A                      A
 Frequencies --    804.9842               835.5675               854.3444
 Red. masses --      3.2121                 1.4010                 5.1099
 Frc consts  --      1.2263                 0.5763                 2.1975
 IR Inten    --     13.2997                12.5401                13.2012

                     16                     17                     18
                      A                      A                      A
 Frequencies --    864.0454               882.3942               935.4824
 Red. masses --      4.7735                 3.9299                 2.3557
 Frc consts  --      2.0997                 1.8029                 1.2146
 IR Inten    --      1.9374                67.1672                37.7168

                     19                     20                     21
                      A                      A                      A
 Frequencies --    966.6776               986.1098              1034.7428
 Red. masses --      2.2333                 1.8169                 3.6915
 Frc consts  --      1.2296                 1.0410                 2.3287
 IR Inten    --      7.0623                11.3031                 9.2104

                     22                     23                     24
                      A                      A                      A
 Frequencies --   1038.1306              1071.3714              1086.3331
 Red. masses --      1.2696                 1.4268                 2.2371
 Frc consts  --      0.8061                 0.9649                 1.5554
 IR Inten    --      0.0327                 0.8616                18.0822

                     25                     26                     27
                      A                      A                      A
 Frequencies --   1088.7996              1092.2898              1129.5758
 Red. masses --      3.0332                 1.2600                 1.6308
 Frc consts  --      2.1186                 0.8857                 1.2260
 IR Inten    --     29.0828                 0.0730                19.8039

                     28                     29                     30
                      A                      A                      A
 Frequencies --   1168.8835              1177.5294              1228.9981
 Red. masses --      2.3551                 1.4122                 1.5179
 Frc consts  --      1.8959                 1.1537                 1.3508
 IR Inten    --     55.0227                 1.2632                 0.9226

                     31                     32                     33
                      A                      A                      A
 Frequencies --   1247.2575              1252.3439              1281.0550
 Red. masses --      1.5421                 1.6198                 1.4822
 Frc consts  --      1.4134                 1.4968                 1.4331
 IR Inten    --      0.0441                71.8388                 4.4907

                     34                     35                     36
                      A                      A                      A
 Frequencies --   1284.1409              1295.9212              1358.6713
 Red. masses --      1.3585                 1.5506                 1.6325
 Frc consts  --      1.3199                 1.5343                 1.7755
 IR Inten    --      8.6565                 1.8876                 5.4800

                     37                     38                     39
                      A                      A                      A
 Frequencies --   1405.9928              1413.4967              1458.3657
 Red. masses --      1.2575                 1.6564                 1.4829
 Frc consts  --      1.4647                 1.9498                 1.8582
 IR Inten    --      4.2859                 1.4196                71.9916

                     40                     41                     42
                      A                      A                      A
 Frequencies --   1495.0901              1509.6313              3035.0421
 Red. masses --      1.0514                 1.0488                 1.0381
 Frc consts  --      1.3846                 1.4083                 5.6340
 IR Inten    --      2.4968                 3.2185                33.4566

                     43                     44                     45
                      A                      A                      A
 Frequencies --   3083.0523              3091.9177              3120.0706
 Red. masses --      1.0837                 1.1010                 1.0884
 Frc consts  --      6.0690                 6.2012                 6.2425
 IR Inten    --     27.8247                21.3270                61.8797

                     46                     47                     48
                      A                      A                      A
 Frequencies --   3123.1126              3137.7871              3162.1161
 Red. masses --      1.0925                 1.0987                 1.0891
 Frc consts  --      6.2782                 6.3733                 6.4160
 IR Inten    --     10.3589                14.8109                16.2869

                     49                     50                     51
                      A                      A                      A
 Frequencies --   3171.5944              3182.3355              3812.2571
 Red. masses --      1.0948                 1.0877                 1.0658
 Frc consts  --      6.4884                 6.4899                 9.1258
 IR Inten    --     11.6726                22.8643                20.6109

 - Thermochemistry -
 -------------------
 Temperature   298.150 Kelvin.  Pressure   1.00000 Atm.
 Atom     1 has atomic number  6 and mass  12.00000

 Molecular mass:   126.06808 amu.
 Principal axes and moments of inertia in atomic units:
                           1         2         3
     Eigenvalues --   460.870281513.235821616.74678
           X            0.99928  -0.03796   0.00000
           Y            0.03796   0.99928   0.00000
           Z            0.00000   0.00000   1.00000
 This molecule is an asymmetric top.
 Rotational symmetry number  1.
 Warning -- assumption of classical behavior for rotation
           may cause significant error
 Rotational temperatures (Kelvin)      0.18794     0.05724     0.05357
 Rotational constants (GHZ):           3.91594     1.19264     1.11628
 Zero-point vibrational energy     419285.6 (Joules/Mol)
                                  100.21167 (Kcal/Mol)
 Warning -- explicit consideration of  10 degrees of freedom as
           vibrations may cause significant error
 Vibrational temperatures:    280.53   320.96   328.83   365.26   431.18
          (Kelvin)            468.55   493.91   590.76   783.79   886.19
                             1008.90  1136.56  1158.19  1202.19  1229.21
                             1243.17  1269.57  1345.95  1390.83  1418.79
                             1488.76  1493.64  1541.46  1562.99  1566.54
                             1571.56  1625.21  1681.76  1694.20  1768.25
                             1794.52  1801.84  1843.15  1847.59  1864.54
                             1954.82  2022.91  2033.70  2098.26  2151.10
                             2172.02  4366.74  4435.82  4448.57  4489.08
                             4493.46  4514.57  4549.57  4563.21  4578.67
                             5484.98

 Zero-point correction=                           0.159697 (Hartree/Particle)
 Thermal correction to Energy=                    0.167441
 Thermal correction to Enthalpy=                  0.168385
 Thermal correction to Gibbs Free Energy=         0.128001
 Sum of electronic and zero-point Energies=           -422.962364
 Sum of electronic and thermal Energies=              -422.954620
 Sum of electronic and thermal Enthalpies=            -422.953676
 Sum of electronic and thermal Free Energies=         -422.994061

                     E (Thermal)             CV                S
                      KCal/Mol        Cal/Mol-Kelvin    Cal/Mol-Kelvin
 Total                  105.071             31.400             84.996
 Electronic               0.000              0.000              0.000
 Translational            0.889              2.981             40.409
 Rotational               0.889              2.981             28.513
 Vibrational            103.293             25.439             16.075
 Vibration     1          0.636              1.847              2.180
 Vibration     2          0.649              1.806              1.934
 Vibration     3          0.651              1.797              1.890
 Vibration     4          0.665              1.756              1.704
 Vibration     5          0.692              1.674              1.419
 Vibration     6          0.710              1.624              1.282
 Vibration     7          0.722              1.589              1.197
 Vibration     8          0.775              1.447              0.925
 Vibration     9          0.900              1.151              0.555
 Vibration    10          0.976              0.998              0.423

 Optimization completed.
    -- Stationary point found.
 Normal termination of Gaussian 09 at Tue Jan 28 00:29:13 2020.
