 Gaussian 09, Revision D.01,
 Gaussian 09:  ES64L-G09RevD.01 24-Apr-2013

 -----------------------------
 # b3lyp 6-31G(2df,p) opt Freq
 -----------------------------

 -----
 titel
 -----
 Symbolic Z-matrix:
 Charge =  0 Multiplicity = 1

 SCF Done:  E(RB3LYP) =  -423.093840901     A.U. after   14 cycles
 Optimization completed.
    -- Stationary point found.
 Normal termination of Gaussian 09 at Tue Jan 28 09:09:40 2020.

 ----------------------------------------------------------------------
 #N Geom=AllCheck Guess=TCheck SCRF=Check GenChk RB3LYP/6-31G(2df,p) Fr
 eq
 ----------------------------------------------------------------------

 Structure from the checkpoint file:  "/scratch/puck/g09_5a1c1dce-7055-447c-a61e-dc2a804d4f37/Gau-20283.chk"
 -----
 titel
 -----
 Charge =  0 Multiplicity = 1

                         Standard orientation:
 ---------------------------------------------------------------------
 Center     Atomic      Atomic             Coordinates (Angstroms)
 Number     Number       Type             X           Y           Z
 ---------------------------------------------------------------------
      1          6           0       -2.438617   -1.184861   -0.382907
      2          6           0       -1.586746   -0.496977    0.694229
      3          6           0       -0.208659   -0.155773    0.202077
      4          6           0        0.166889    1.152436   -0.463866
      5          8           0       -0.737468    2.216104   -0.402288
      6          6           0        0.889831    0.744418    0.798802
      7          6           0        1.923458   -0.384152    0.522390
      8          8           0        1.940512   -0.687061   -0.882216
      9          6           0        0.893504   -1.235371   -0.064271
     10          1           0       -2.573735   -0.527293   -1.246624
     11          1           0       -1.964587   -2.106782   -0.736250
     12          1           0       -3.427252   -1.447032    0.006070
     13          1           0       -2.092637    0.419882    1.019541
     14          1           0       -1.520221   -1.138584    1.583092
     15          1           0        0.685404    1.159873   -1.413514
     16          1           0       -1.013008    2.348474    0.510191
     17          1           0        0.865791    1.343456    1.702220
     18          1           0        2.816562   -0.611253    1.092119
     19          1           0        0.761369   -2.311405   -0.079540
 ---------------------------------------------------------------------

 SCF Done:  E(RB3LYP) =  -423.093840902     A.U. after    1 cycles

 The electronic state is 1-A.
 Alpha  occ. eigenvalues --  -19.15410 -19.14904 -10.24260 -10.23970 -10.23786
 Alpha  occ. eigenvalues --  -10.19687 -10.19355 -10.19240 -10.17650  -1.07980
 Alpha  occ. eigenvalues --   -1.03311  -0.86373  -0.76685  -0.68426  -0.65709
 Alpha  occ. eigenvalues --   -0.62756  -0.59144  -0.54536  -0.51743  -0.49597
 Alpha  occ. eigenvalues --   -0.47678  -0.44579  -0.43057  -0.39949  -0.39118
 Alpha  occ. eigenvalues --   -0.37863  -0.37484  -0.36882  -0.34519  -0.34359
 Alpha  occ. eigenvalues --   -0.33100  -0.26370  -0.24755  -0.22662
 Alpha virt. eigenvalues --    0.05855   0.06220   0.09545   0.09932   0.11343
 Alpha virt. eigenvalues --    0.13851   0.14273   0.14832   0.16053   0.17792
 Alpha virt. eigenvalues --    0.17996   0.18956   0.19447   0.19687   0.21535

 Mulliken charges:
               1
     1  C   -0.374675
     2  C   -0.293216
     3  C    0.257532
     4  C    0.111780
     5  O   -0.445286
     6  C   -0.265548
     7  C    0.022088
     8  O   -0.244337
     9  C   -0.038921
    10  H    0.133262
    11  H    0.116911
    12  H    0.111737
    13  H    0.087093
    14  H    0.098715
    15  H    0.130381
    16  H    0.286391
    17  H    0.087615
    18  H    0.111676
    19  H    0.106802
 Sum of Mulliken charges =   0.00000

 Dipole moment (field-independent basis, Debye):
    X=             -0.7483    Y=             -0.7683    Z=              2.7019  Tot=              2.9070
 Quadrupole moment (field-independent basis, Debye-Ang):
   XX=            -53.7940   YY=            -53.1879   ZZ=            -53.2221
   XY=              0.4655   XZ=              1.8158   YZ=              2.7266

  Exact polarizability:  83.196   0.500  75.652   2.061   2.073  64.632
 Approx polarizability: 114.056   1.093 111.851   1.261   3.409 105.176

                      1                      2                      3
                      A                      A                      A
 Frequencies --     62.1084               137.0051               162.8689
 Red. masses --      2.4015                 2.7642                 1.5277
 Frc consts  --      0.0055                 0.0306                 0.0239
 IR Inten    --      0.0116                23.1354                54.3600

                      4                      5                      6
                      A                      A                      A
 Frequencies --    203.4091               249.5804               283.6214
 Red. masses --      1.1050                 3.6187                 2.0126
 Frc consts  --      0.0269                 0.1328                 0.0954
 IR Inten    --     26.6794                 5.9705                 0.9550

                      7                      8                      9
                      A                      A                      A
 Frequencies --    302.9042               378.2646               434.5485
 Red. masses --      3.1072                 3.2661                 3.4039
 Frc consts  --      0.1680                 0.2753                 0.3787
 IR Inten    --      0.2574                 8.1386                 0.4160

                     10                     11                     12
                      A                      A                      A
 Frequencies --    452.9305               609.0531               680.5790
 Red. masses --      5.1366                 4.5170                 3.3254
 Frc consts  --      0.6209                 0.9872                 0.9075
 IR Inten    --      7.4830                11.4361                 9.0867

                     13                     14                     15
                      A                      A                      A
 Frequencies --    749.5135               773.5494               796.6081
 Red. masses --      2.5097                 1.6450                 5.2343
 Frc consts  --      0.8307                 0.5799                 1.9570
 IR Inten    --      3.9420                 3.3367                 2.7367

                     16                     17                     18
                      A                      A                      A
 Frequencies --    829.2308               857.6706               896.7913
 Red. masses --      1.9599                 2.5849                 2.1339
 Frc consts  --      0.7940                 1.1203                 1.0111
 IR Inten    --     22.0236                15.5174                 1.1873

                     19                     20                     21
                      A                      A                      A
 Frequencies --    914.6631               951.4716               972.4571
 Red. masses --      1.5171                 2.8302                 2.2110
 Frc consts  --      0.7478                 1.5096                 1.2319
 IR Inten    --     12.7626                 8.5928                10.6810

                     22                     23                     24
                      A                      A                      A
 Frequencies --    985.2839              1040.3879              1044.5439
 Red. masses --      2.4193                 1.8692                 1.5743
 Frc consts  --      1.3838                 1.1921                 1.0120
 IR Inten    --     22.4307                13.3208                 2.8343

                     25                     26                     27
                      A                      A                      A
 Frequencies --   1100.1490              1116.3806              1146.6846
 Red. masses --      1.5923                 1.5751                 2.5437
 Frc consts  --      1.1354                 1.1566                 1.9707
 IR Inten    --      8.1196                 2.6515                73.8443

                     28                     29                     30
                      A                      A                      A
 Frequencies --   1172.3989              1182.9342              1232.5869
 Red. masses --      1.4814                 1.7577                 1.3683
 Frc consts  --      1.1997                 1.4492                 1.2248
 IR Inten    --     26.3426                 5.3085                34.8520

                     31                     32                     33
                      A                      A                      A
 Frequencies --   1244.2865              1294.7538              1315.2262
 Red. masses --      1.4180                 1.4262                 1.5727
 Frc consts  --      1.2935                 1.4086                 1.6029
 IR Inten    --      4.3341                 2.7658                 2.1979

                     34                     35                     36
                      A                      A                      A
 Frequencies --   1337.2306              1370.5014              1382.2288
 Red. masses --      1.9779                 2.1569                 2.0010
 Frc consts  --      2.0839                 2.3869                 2.2524
 IR Inten    --      3.6808                 9.2188                45.3731

                     37                     38                     39
                      A                      A                      A
 Frequencies --   1408.4255              1449.5572              1477.7965
 Red. masses --      1.2263                 2.4292                 1.0756
 Frc consts  --      1.4332                 3.0074                 1.3840
 IR Inten    --      2.4964                45.3917                 2.0289

                     40                     41                     42
                      A                      A                      A
 Frequencies --   1497.4551              1505.5316              3015.2841
 Red. masses --      1.0395                 1.0746                 1.0630
 Frc consts  --      1.3733                 1.4351                 5.6940
 IR Inten    --      4.6982                 3.6862                32.7495

                     43                     44                     45
                      A                      A                      A
 Frequencies --   3037.0460              3051.7240              3103.8932
 Red. masses --      1.0356                 1.0967                 1.1012
 Frc consts  --      5.6280                 6.0176                 6.2505
 IR Inten    --     22.8662                19.1403                36.4338

                     46                     47                     48
                      A                      A                      A
 Frequencies --   3115.7362              3172.3194              3177.1501
 Red. masses --      1.1023                 1.0891                 1.0906
 Frc consts  --      6.3047                 6.4578                 6.4864
 IR Inten    --     26.3199                 4.4111                23.4222

                     49                     50                     51
                      A                      A                      A
 Frequencies --   3193.3564              3202.7258              3821.4517
 Red. masses --      1.1018                 1.0891                 1.0659
 Frc consts  --      6.6200                 6.5819                 9.1715
 IR Inten    --     21.0792                 5.0466                17.6070

 - Thermochemistry -
 -------------------
 Temperature   298.150 Kelvin.  Pressure   1.00000 Atm.
 Atom     1 has atomic number  6 and mass  12.00000

 Molecular mass:   126.06808 amu.
 Principal axes and moments of inertia in atomic units:
                           1         2         3
     Eigenvalues --   784.759581155.498901593.14774
           X            0.99732   0.07190   0.01355
           Y           -0.07214   0.99723   0.01800
           Z           -0.01222  -0.01893   0.99975
 This molecule is an asymmetric top.
 Rotational symmetry number  1.
 Warning -- assumption of classical behavior for rotation
           may cause significant error
 Rotational temperatures (Kelvin)      0.11037     0.07496     0.05437
 Rotational constants (GHZ):           2.29974     1.56187     1.13281
 Zero-point vibrational energy     412076.8 (Joules/Mol)
                                   98.48871 (Kcal/Mol)
 Warning -- explicit consideration of  11 degrees of freedom as
           vibrations may cause significant error
 Vibrational temperatures:     89.36   197.12   234.33   292.66   359.09
          (Kelvin)            408.07   435.81   544.24   625.22   651.67
                              876.29   979.20  1078.38  1112.96  1146.14
                             1193.08  1234.00  1290.28  1315.99  1368.95
                             1399.15  1417.60  1496.88  1502.86  1582.87
                             1606.22  1649.82  1686.82  1701.98  1773.42
                             1790.25  1862.86  1892.31  1923.97  1971.84
                             1988.72  2026.41  2085.59  2126.22  2154.50
                             2166.12  4338.32  4369.63  4390.74  4465.80
                             4482.84  4564.25  4571.20  4594.52  4608.00
                             5498.21

 Zero-point correction=                           0.156952 (Hartree/Particle)
 Thermal correction to Energy=                    0.165824
 Thermal correction to Enthalpy=                  0.166768
 Thermal correction to Gibbs Free Energy=         0.123333
 Sum of electronic and zero-point Energies=           -422.936889
 Sum of electronic and thermal Energies=              -422.928017
 Sum of electronic and thermal Enthalpies=            -422.927073
 Sum of electronic and thermal Free Energies=         -422.970508

                     E (Thermal)             CV                S
                      KCal/Mol        Cal/Mol-Kelvin    Cal/Mol-Kelvin
 Total                  104.056             33.659             91.417
 Electronic               0.000              0.000              0.000
 Translational            0.889              2.981             40.409
 Rotational               0.889              2.981             28.759
 Vibrational            102.279             27.698             22.249
 Vibration     1          0.597              1.972              4.389
 Vibration     2          0.614              1.916              2.845
 Vibration     3          0.623              1.888              2.516
 Vibration     4          0.639              1.835              2.102
 Vibration     5          0.662              1.763              1.734
 Vibration     6          0.682              1.704              1.512
 Vibration     7          0.694              1.668              1.401
 Vibration     8          0.749              1.516              1.046
 Vibration     9          0.795              1.395              0.844
 Vibration    10          0.811              1.354              0.787
 Vibration    11          0.968              1.013              0.434

 Optimization completed.
    -- Stationary point found.
 Normal termination of Gaussian 09 at Tue Jan 28 09:52:40 2020.
