 Gaussian 09, Revision D.01,
 Gaussian 09:  ES64L-G09RevD.01 24-Apr-2013

 -----------------------------
 # b3lyp 6-31G(2df,p) opt Freq
 -----------------------------

 -----
 titel
 -----
 Symbolic Z-matrix:
 Charge =  0 Multiplicity = 1

 SCF Done:  E(RB3LYP) =  -423.217801356     A.U. after   14 cycles
 Optimization completed.
    -- Stationary point found.
 Normal termination of Gaussian 09 at Mon Jan 27 10:22:11 2020.

 ----------------------------------------------------------------------
 #N Geom=AllCheck Guess=TCheck SCRF=Check GenChk RB3LYP/6-31G(2df,p) Fr
 eq
 ----------------------------------------------------------------------

 Structure from the checkpoint file:  "/scratch/puck/g09_c61e8dc0-e0b9-45d3-9f9c-cabe68345fc7/Gau-19566.chk"
 -----
 titel
 -----
 Charge =  0 Multiplicity = 1

                         Standard orientation:
 ---------------------------------------------------------------------
 Center     Atomic      Atomic             Coordinates (Angstroms)
 Number     Number       Type             X           Y           Z
 ---------------------------------------------------------------------
      1          6           0       -3.070147    0.402521    0.018658
      2          8           0       -2.221413   -0.741415   -0.017341
      3          6           0       -0.900946   -0.523802   -0.007467
      4          6           0        0.133235   -1.402124   -0.000742
      5          6           0        1.329026   -0.592733    0.001535
      6          6           0        2.732839   -1.113547    0.008818
      7          6           0        0.924364    0.705885   -0.003047
      8          6           0        1.615224    2.020353   -0.001599
      9          8           0       -0.462906    0.755801   -0.009050
     10          1           0       -2.902908    0.993401    0.925347
     11          1           0       -2.912112    1.042770   -0.855399
     12          1           0       -4.089025    0.013908    0.013059
     13          1           0        0.061325   -2.477127    0.002349
     14          1           0        3.466740   -0.303311    0.009671
     15          1           0        2.923468   -1.734401    0.892091
     16          1           0        2.930806   -1.739177   -0.869442
     17          1           0        1.362377    2.617596   -0.886523
     18          1           0        1.354889    2.619507    0.879873
     19          1           0        2.697420    1.872432    0.003168
 ---------------------------------------------------------------------

 SCF Done:  E(RB3LYP) =  -423.217801356     A.U. after    1 cycles

 The electronic state is 1-A.
 Alpha  occ. eigenvalues --  -19.19026 -19.17460 -10.27079 -10.23747 -10.21354
 Alpha  occ. eigenvalues --  -10.18449 -10.17812 -10.17485 -10.15619  -1.11328
 Alpha  occ. eigenvalues --   -1.05113  -0.80070  -0.76749  -0.72345  -0.69555
 Alpha  occ. eigenvalues --   -0.64619  -0.58005  -0.54204  -0.51427  -0.48070
 Alpha  occ. eigenvalues --   -0.45349  -0.44440  -0.43905  -0.40981  -0.40247
 Alpha  occ. eigenvalues --   -0.39452  -0.39404  -0.38356  -0.36303  -0.35251
 Alpha  occ. eigenvalues --   -0.33841  -0.32602  -0.25038  -0.18139
 Alpha virt. eigenvalues --    0.04401   0.08874   0.09713   0.10903   0.12215
 Alpha virt. eigenvalues --    0.13546   0.14292   0.15743   0.16263   0.17215
 Alpha virt. eigenvalues --    0.17989   0.18679   0.20363   0.22046   0.22939

 Mulliken charges:
               1
     1  C   -0.243865
     2  O   -0.269938
     3  C    0.454055
     4  C   -0.429471
     5  C    0.196805
     6  C   -0.503293
     7  C    0.243927
     8  C   -0.491090
     9  O   -0.229566
    10  H    0.131811
    11  H    0.132587
    12  H    0.135390
    13  H    0.104312
    14  H    0.120037
    15  H    0.128017
    16  H    0.128080
    17  H    0.129862
    18  H    0.129747
    19  H    0.132596
 Sum of Mulliken charges =   0.00000

 Dipole moment (field-independent basis, Debye):
    X=             -0.1069    Y=              1.0335    Z=              0.0439  Tot=              1.0399
 Quadrupole moment (field-independent basis, Debye-Ang):
   XX=            -46.1646   YY=            -51.8034   ZZ=            -54.2957
   XY=             -2.2016   XZ=             -0.1013   YZ=             -0.0207

  Exact polarizability: 104.087  -2.464  88.446  -0.011  -0.049  51.504
 Approx polarizability: 137.756  -4.309 137.844   0.125  -0.074  78.492

                      1                      2                      3
                      A                      A                      A
 Frequencies --      9.1487               105.8228               139.1600
 Red. masses --      2.9425                 1.0224                 1.0341
 Frc consts  --      0.0001                 0.0067                 0.0118
 IR Inten    --      4.8469                 0.0789                 0.0520

                      4                      5                      6
                      A                      A                      A
 Frequencies --    152.2210               193.0179               205.2870
 Red. masses --      1.4401                 2.9172                 2.0824
 Frc consts  --      0.0197                 0.0640                 0.0517
 IR Inten    --      1.0580                 2.7799                 0.0627

                      7                      8                      9
                      A                      A                      A
 Frequencies --    208.7138               264.4033               358.1727
 Red. masses --      3.3079                 2.5208                 4.3636
 Frc consts  --      0.0849                 0.1038                 0.3298
 IR Inten    --      0.8154                 0.1526                 2.2970

                     10                     11                     12
                      A                      A                      A
 Frequencies --    361.3825               526.6153               609.9375
 Red. masses --      3.4975                 3.8960                 4.5932
 Frc consts  --      0.2691                 0.6366                 1.0068
 IR Inten    --      3.2549                 1.9476                13.5114

                     13                     14                     15
                      A                      A                      A
 Frequencies --    633.7264               634.3221               674.7325
 Red. masses --      4.3952                 4.0186                 4.9975
 Frc consts  --      1.0400                 0.9527                 1.3405
 IR Inten    --      5.3879                 1.5480                 0.1382

                     16                     17                     18
                      A                      A                      A
 Frequencies --    745.3743               779.4442               959.2885
 Red. masses --      1.3689                 3.8823                 2.9095
 Frc consts  --      0.4481                 1.3897                 1.5775
 IR Inten    --     30.5917                 2.0982                 1.8101

                     19                     20                     21
                      A                      A                      A
 Frequencies --    986.4105              1011.0872              1058.6859
 Red. masses --      1.4656                 3.4246                 1.4038
 Frc consts  --      0.8402                 2.0627                 0.9270
 IR Inten    --      1.1077                11.6784                 1.1387

                     22                     23                     24
                      A                      A                      A
 Frequencies --   1062.4855              1066.1352              1150.3297
 Red. masses --      3.7978                 1.4745                 2.7776
 Frc consts  --      2.5260                 0.9875                 2.1656
 IR Inten    --     52.6576                 0.0122                56.0679

                     25                     26                     27
                      A                      A                      A
 Frequencies --   1177.1445              1192.1017              1209.0922
 Red. masses --      1.2609                 1.8463                 1.5680
 Frc consts  --      1.0294                 1.5459                 1.3506
 IR Inten    --      0.6884                34.8678                13.7708

                     28                     29                     30
                      A                      A                      A
 Frequencies --   1236.8591              1333.7352              1400.5465
 Red. masses --      4.9421                 5.6759                 1.5733
 Frc consts  --      4.4545                 5.9487                 1.8183
 IR Inten    --     22.1575               142.8984                17.3101

                     31                     32                     33
                      A                      A                      A
 Frequencies --   1424.5662              1429.6957              1469.9312
 Red. masses --      1.3774                 2.2233                 1.0424
 Frc consts  --      1.6469                 2.6775                 1.3270
 IR Inten    --      2.9051                19.8690                 3.1647

                     34                     35                     36
                      A                      A                      A
 Frequencies --   1479.2849              1481.4444              1484.7666
 Red. masses --      1.2368                 1.0426                 1.0478
 Frc consts  --      1.5946                 1.3482                 1.3609
 IR Inten    --     12.9568                 5.0127                 5.4305

                     37                     38                     39
                      A                      A                      A
 Frequencies --   1495.8158              1497.4162              1503.0193
 Red. masses --      1.0897                 1.0792                 1.0511
 Frc consts  --      1.4365                 1.4257                 1.3991
 IR Inten    --     11.0978                 0.7461                28.9219

                     40                     41                     42
                      A                      A                      A
 Frequencies --   1652.1118              1691.4265              3017.4115
 Red. masses --      7.6164                 7.2127                 1.0396
 Frc consts  --     12.2484                12.1578                 5.5770
 IR Inten    --    274.4826                76.3267                48.4226

                     43                     44                     45
                      A                      A                      A
 Frequencies --   3026.4677              3030.6452              3060.3077
 Red. masses --      1.0379                 1.0319                 1.1004
 Frc consts  --      5.6013                 5.5843                 6.0717
 IR Inten    --     45.6554                42.7463                21.5028

                     46                     47                     48
                      A                      A                      A
 Frequencies --   3073.7252              3096.3373              3111.0029
 Red. masses --      1.0998                 1.1055                 1.0983
 Frc consts  --      6.1217                 6.2447                 6.2627
 IR Inten    --     21.0811                30.2151                21.8896

                     49                     50                     51
                      A                      A                      A
 Frequencies --   3125.7461              3147.1241              3266.8590
 Red. masses --      1.0951                 1.1030                 1.0971
 Frc consts  --      6.3038                 6.4364                 6.8987
 IR Inten    --     14.1759                19.4628                 3.1622

 - Thermochemistry -
 -------------------
 Temperature   298.150 Kelvin.  Pressure   1.00000 Atm.
 Atom     1 has atomic number  6 and mass  12.00000

 Molecular mass:   126.06808 amu.
 Principal axes and moments of inertia in atomic units:
                           1         2         3
     Eigenvalues --   561.403141559.775622087.26220
           X            0.99984  -0.01797  -0.00036
           Y            0.01797   0.99984  -0.00015
           Z            0.00037   0.00014   1.00000
 This molecule is an asymmetric top.
 Rotational symmetry number  1.
 Warning -- assumption of classical behavior for rotation
           may cause significant error
 Rotational temperatures (Kelvin)      0.15428     0.05553     0.04150
 Rotational constants (GHZ):           3.21470     1.15705     0.86465
 Zero-point vibrational energy     412774.4 (Joules/Mol)
                                   98.65545 (Kcal/Mol)
 Warning -- explicit consideration of  12 degrees of freedom as
           vibrations may cause significant error
 Vibrational temperatures:     13.16   152.26   200.22   219.01   277.71
          (Kelvin)            295.36   300.29   380.42   515.33   519.95
                              757.68   877.56   911.79   912.65   970.79
                             1072.43  1121.44  1380.20  1419.22  1454.73
                             1523.21  1528.68  1533.93  1655.07  1693.65
                             1715.17  1739.61  1779.56  1918.95  2015.07
                             2049.63  2057.01  2114.90  2128.36  2131.47
                             2136.25  2152.14  2154.45  2162.51  2377.02
                             2433.58  4341.38  4354.41  4360.42  4403.09
                             4422.40  4454.93  4476.03  4497.25  4528.00
                             4700.28

 Zero-point correction=                           0.157217 (Hartree/Particle)
 Thermal correction to Energy=                    0.167148
 Thermal correction to Enthalpy=                  0.168092
 Thermal correction to Gibbs Free Energy=         0.120508
 Sum of electronic and zero-point Energies=           -423.060584
 Sum of electronic and thermal Energies=              -423.050653
 Sum of electronic and thermal Enthalpies=            -423.049709
 Sum of electronic and thermal Free Energies=         -423.097293

                     E (Thermal)             CV                S
                      KCal/Mol        Cal/Mol-Kelvin    Cal/Mol-Kelvin
 Total                  104.887             34.733            100.149
 Electronic               0.000              0.000              0.000
 Translational            0.889              2.981             40.409
 Rotational               0.889              2.981             28.993
 Vibrational            103.109             28.771             30.748
 Vibration     1          0.593              1.987              8.188
 Vibration     2          0.605              1.945              3.344
 Vibration     3          0.615              1.914              2.815
 Vibration     4          0.619              1.900              2.644
 Vibration     5          0.635              1.850              2.199
 Vibration     6          0.640              1.832              2.085
 Vibration     7          0.642              1.827              2.055
 Vibration     8          0.671              1.738              1.633
 Vibration     9          0.733              1.558              1.130
 Vibration    10          0.736              1.552              1.116
 Vibration    11          0.882              1.191              0.595
 Vibration    12          0.969              1.011              0.433

 Normal termination of Gaussian 09 at Mon Jan 27 11:03:43 2020.
