 Gaussian 09, Revision D.01,
 Gaussian 09:  ES64L-G09RevD.01 24-Apr-2013

 -----------------------------
 # b3lyp 6-31G(2df,p) opt Freq
 -----------------------------

 -----
 titel
 -----
 Symbolic Z-matrix:
 Charge =  0 Multiplicity = 1

 SCF Done:  E(RB3LYP) =  -423.187644689     A.U. after   14 cycles
 Optimization completed.
    -- Stationary point found.
 Normal termination of Gaussian 09 at Mon Jan 27 13:15:44 2020.

 ----------------------------------------------------------------------
 #N Geom=AllCheck Guess=TCheck SCRF=Check GenChk RB3LYP/6-31G(2df,p) Fr
 eq
 ----------------------------------------------------------------------

 Structure from the checkpoint file:  "/scratch/puck/g09_720a88a1-b5fd-48f4-bfef-a8d5d0ca49d6/Gau-169527.chk"
 -----
 titel
 -----
 Charge =  0 Multiplicity = 1

                         Standard orientation:
 ---------------------------------------------------------------------
 Center     Atomic      Atomic             Coordinates (Angstroms)
 Number     Number       Type             X           Y           Z
 ---------------------------------------------------------------------
      1          8           0       -3.165985    0.000308   -0.611134
      2          6           0       -2.202767   -0.000244    0.113465
      3          6           0       -0.779372   -0.000118   -0.366614
      4          6           0        0.121614   -1.009271    0.396305
      5          6           0        1.402025   -1.292778   -0.397070
      6          6           0        2.255773    0.000263   -0.457656
      7          6           0        1.401725    1.293085   -0.396592
      8          6           0        0.121390    1.008995    0.396680
      9          8           0        0.389922   -0.000297    1.413089
     10          1           0       -2.309927   -0.000812    1.221541
     11          1           0       -0.745935    0.000110   -1.457687
     12          1           0       -0.344690   -1.903051    0.820084
     13          1           0        1.977400   -2.090458    0.083332
     14          1           0        1.130479   -1.654684   -1.395497
     15          1           0        2.916544    0.000180    0.411959
     16          1           0        2.900417    0.000500   -1.340475
     17          1           0        1.976923    2.090720    0.084100
     18          1           0        1.130096    1.655300   -1.394885
     19          1           0       -0.345133    1.902510    0.820773
 ---------------------------------------------------------------------

 SCF Done:  E(RB3LYP) =  -423.187644689     A.U. after    1 cycles

 The electronic state is 1-A.
 Alpha  occ. eigenvalues --  -19.14278 -19.13860 -10.26958 -10.25059 -10.25059
 Alpha  occ. eigenvalues --  -10.20084 -10.19320 -10.19318 -10.19217  -1.05471
 Alpha  occ. eigenvalues --   -1.04371  -0.80969  -0.76458  -0.75636  -0.64146
 Alpha  occ. eigenvalues --   -0.62423  -0.58411  -0.54056  -0.51826  -0.48637
 Alpha  occ. eigenvalues --   -0.46761  -0.45348  -0.43370  -0.42098  -0.40787
 Alpha  occ. eigenvalues --   -0.39785  -0.38740  -0.36533  -0.35724  -0.34378
 Alpha  occ. eigenvalues --   -0.31587  -0.30704  -0.26959  -0.23972
 Alpha virt. eigenvalues --   -0.02486   0.06501   0.09395   0.10515   0.11190
 Alpha virt. eigenvalues --    0.12400   0.13976   0.14307   0.15179   0.15621
 Alpha virt. eigenvalues --    0.17225   0.17768   0.19286   0.20856   0.21929

 Mulliken charges:
               1
     1  O   -0.262717
     2  C    0.142188
     3  C   -0.088664
     4  C    0.077096
     5  C   -0.232387
     6  C   -0.185787
     7  C   -0.232389
     8  C    0.077119
     9  O   -0.297273
    10  H    0.090754
    11  H    0.087303
    12  H    0.086578
    13  H    0.107940
    14  H    0.106677
    15  H    0.121947
    16  H    0.100404
    17  H    0.107941
    18  H    0.106681
    19  H    0.086589
 Sum of Mulliken charges =   0.00000

 Dipole moment (field-independent basis, Debye):
    X=              2.6400    Y=             -0.0005    Z=             -0.4438  Tot=              2.6770
 Quadrupole moment (field-independent basis, Debye-Ang):
   XX=            -62.7475   YY=            -49.4388   ZZ=            -56.0049
   XY=              0.0027   XZ=             -4.9175   YZ=              0.0016

  Exact polarizability:  87.925  -0.001  70.907   0.081  -0.002  66.627
 Approx polarizability: 117.610  -0.005 102.667   8.431  -0.006 109.580

                      1                      2                      3
                      A                      A                      A
 Frequencies --     83.6721               114.7773               190.4239
 Red. masses --      4.6494                 2.6939                 2.4132
 Frc consts  --      0.0192                 0.0209                 0.0516
 IR Inten    --      6.2224                 1.0692                 5.4882

                      4                      5                      6
                      A                      A                      A
 Frequencies --    254.5729               299.8902               361.1509
 Red. masses --      2.1737                 2.0055                 5.4620
 Frc consts  --      0.0830                 0.1063                 0.4197
 IR Inten    --      1.9329                 0.1947                 1.3880

                      7                      8                      9
                      A                      A                      A
 Frequencies --    422.6305               490.7126               563.0074
 Red. masses --      4.2604                 3.8617                 5.3749
 Frc consts  --      0.4484                 0.5479                 1.0038
 IR Inten    --      2.2664                22.5811                 0.8530

                     10                     11                     12
                      A                      A                      A
 Frequencies --    656.2024               768.7044               816.4686
 Red. masses --      2.2458                 2.0263                 2.1208
 Frc consts  --      0.5698                 0.7055                 0.8330
 IR Inten    --      1.0167                 1.8745                 0.1564

                     13                     14                     15
                      A                      A                      A
 Frequencies --    855.1287               872.4384               893.1781
 Red. masses --      3.2303                 2.5097                 2.9493
 Frc consts  --      1.3917                 1.1255                 1.3863
 IR Inten    --      0.5816                 5.0874                34.9318

                     16                     17                     18
                      A                      A                      A
 Frequencies --    927.8892               951.9773               977.7563
 Red. masses --      2.3913                 3.3161                 2.6855
 Frc consts  --      1.2130                 1.7706                 1.5127
 IR Inten    --     14.8562                 1.2905                43.0617

                     19                     20                     21
                      A                      A                      A
 Frequencies --    989.5319              1033.6180              1042.9811
 Red. masses --      2.8587                 1.7526                 1.7822
 Frc consts  --      1.6492                 1.1032                 1.1423
 IR Inten    --      2.3087                 0.1426                29.3103

                     22                     23                     24
                      A                      A                      A
 Frequencies --   1083.0517              1092.4728              1149.0772
 Red. masses --      1.9154                 2.3641                 1.0606
 Frc consts  --      1.3237                 1.6624                 0.8251
 IR Inten    --      0.4021                18.4691                 1.6469

                     25                     26                     27
                      A                      A                      A
 Frequencies --   1152.1144              1197.9750              1222.3545
 Red. masses --      4.0364                 1.4232                 1.5838
 Frc consts  --      3.1567                 1.2034                 1.3943
 IR Inten    --     24.3535                 6.1429                 4.1093

                     28                     29                     30
                      A                      A                      A
 Frequencies --   1224.3884              1259.5499              1264.2645
 Red. masses --      1.2783                 1.3355                 1.2499
 Frc consts  --      1.1291                 1.2483                 1.1771
 IR Inten    --      9.1599                 0.8538                 1.3597

                     31                     32                     33
                      A                      A                      A
 Frequencies --   1322.7968              1335.6092              1344.6813
 Red. masses --      1.2288                 1.5564                 1.3164
 Frc consts  --      1.2668                 1.6358                 1.4024
 IR Inten    --      1.2160                 7.4837                 0.4300

                     34                     35                     36
                      A                      A                      A
 Frequencies --   1351.5139              1380.2558              1386.4532
 Red. masses --      1.6959                 1.3355                 1.4332
 Frc consts  --      1.8251                 1.4990                 1.6231
 IR Inten    --     12.3363                 2.6081                 8.9485

                     37                     38                     39
                      A                      A                      A
 Frequencies --   1427.0592              1481.8509              1486.1560
 Red. masses --      1.2498                 1.0730                 1.0852
 Frc consts  --      1.4997                 1.3883                 1.4122
 IR Inten    --      7.5497                 2.0215                 1.8012

                     40                     41                     42
                      A                      A                      A
 Frequencies --   1502.8001              1827.1148              2885.1713
 Red. masses --      1.0963                 9.9934                 1.0828
 Frc consts  --      1.4588                19.6560                 5.3106
 IR Inten    --      2.9896               217.1009                72.9520

                     43                     44                     45
                      A                      A                      A
 Frequencies --   3038.0612              3038.3080              3065.5063
 Red. masses --      1.0617                 1.0606                 1.0727
 Frc consts  --      5.7735                 5.7688                 5.9391
 IR Inten    --      9.6537                31.1498                10.2545

                     46                     47                     48
                      A                      A                      A
 Frequencies --   3069.9487              3070.2999              3081.0323
 Red. masses --      1.0888                 1.0874                 1.0935
 Frc consts  --      6.0459                 6.0394                 6.1159
 IR Inten    --     53.6782                39.8045                18.3906

                     49                     50                     51
                      A                      A                      A
 Frequencies --   3081.2563              3100.3336              3112.1927
 Red. masses --      1.1003                 1.0883                 1.1040
 Frc consts  --      6.1547                 6.1631                 6.2999
 IR Inten    --     36.0814                 8.7823                39.5775

 - Thermochemistry -
 -------------------
 Temperature   298.150 Kelvin.  Pressure   1.00000 Atm.
 Atom     1 has atomic number  8 and mass  15.99491

 Molecular mass:   126.06808 amu.
 Principal axes and moments of inertia in atomic units:
                           1         2         3
     Eigenvalues --   523.590331537.826471629.80717
           X            0.99968   0.00001  -0.02543
           Y           -0.00001   1.00000   0.00003
           Z            0.02543  -0.00003   0.99968
 This molecule is an asymmetric top.
 Rotational symmetry number  1.
 Warning -- assumption of classical behavior for rotation
           may cause significant error
 Rotational temperatures (Kelvin)      0.16542     0.05632     0.05314
 Rotational constants (GHZ):           3.44686     1.17357     1.10733
 Zero-point vibrational energy     422283.9 (Joules/Mol)
                                  100.92828 (Kcal/Mol)
 Warning -- explicit consideration of   9 degrees of freedom as
           vibrations may cause significant error
 Vibrational temperatures:    120.39   165.14   273.98   366.27   431.47
          (Kelvin)            519.61   608.07   706.03   810.04   944.13
                             1105.99  1174.71  1230.34  1255.24  1285.08
                             1335.02  1369.68  1406.77  1423.71  1487.14
                             1500.62  1558.27  1571.82  1653.26  1657.63
                             1723.62  1758.69  1761.62  1812.21  1818.99
                             1903.21  1921.64  1934.69  1944.52  1985.88
                             1994.79  2053.22  2132.05  2138.24  2162.19
                             2628.81  4151.11  4371.09  4371.44  4410.57
                             4416.97  4417.47  4432.91  4433.23  4460.68
                             4477.75

 Zero-point correction=                           0.160839 (Hartree/Particle)
 Thermal correction to Energy=                    0.168623
 Thermal correction to Enthalpy=                  0.169567
 Thermal correction to Gibbs Free Energy=         0.128203
 Sum of electronic and zero-point Energies=           -423.026805
 Sum of electronic and thermal Energies=              -423.019022
 Sum of electronic and thermal Enthalpies=            -423.018078
 Sum of electronic and thermal Free Energies=         -423.059442

                     E (Thermal)             CV                S
                      KCal/Mol        Cal/Mol-Kelvin    Cal/Mol-Kelvin
 Total                  105.812             29.794             87.058
 Electronic               0.000              0.000              0.000
 Translational            0.889              2.981             40.409
 Rotational               0.889              2.981             28.664
 Vibrational            104.035             23.832             17.986
 Vibration     1          0.601              1.960              3.803
 Vibration     2          0.608              1.937              3.186
 Vibration     3          0.634              1.853              2.224
 Vibration     4          0.665              1.755              1.699
 Vibration     5          0.692              1.674              1.418
 Vibration     6          0.735              1.552              1.117
 Vibration     7          0.785              1.421              0.883
 Vibration     8          0.847              1.271              0.682
 Vibration     9          0.919              1.111              0.518

 Optimization completed.
    -- Stationary point found.
 Normal termination of Gaussian 09 at Mon Jan 27 14:00:00 2020.
