 Gaussian 09, Revision D.01,
 Gaussian 09:  ES64L-G09RevD.01 24-Apr-2013

 -----------------------------
 # b3lyp 6-31G(2df,p) opt Freq
 -----------------------------

 -----
 titel
 -----
 Symbolic Z-matrix:
 Charge =  0 Multiplicity = 1

 SCF Done:  E(RB3LYP) =  -423.123933349     A.U. after   14 cycles
 Optimization completed.
    -- Stationary point found.
 Normal termination of Gaussian 09 at Mon Jan 27 12:08:21 2020.

 ----------------------------------------------------------------------
 #N Geom=AllCheck Guess=TCheck SCRF=Check GenChk RB3LYP/6-31G(2df,p) Fr
 eq
 ----------------------------------------------------------------------

 Structure from the checkpoint file:  "/scratch/puck/g09_9c63b2c2-6930-473d-85f2-5718058205dc/Gau-71562.chk"
 -----
 titel
 -----
 Charge =  0 Multiplicity = 1

                         Standard orientation:
 ---------------------------------------------------------------------
 Center     Atomic      Atomic             Coordinates (Angstroms)
 Number     Number       Type             X           Y           Z
 ---------------------------------------------------------------------
      1          6           0        2.869229   -0.359659   -0.385915
      2          8           0        2.549828    0.927454    0.147541
      3          6           0        1.640724   -0.149891    0.387449
      4          6           0        0.299918   -0.031626   -0.285720
      5          8           0       -0.410506   -1.297030   -0.244718
      6          6           0       -1.463594   -0.739304    0.572428
      7          6           0       -2.667502   -0.233091   -0.254057
      8          6           0       -2.001969    1.178319   -0.338536
      9          6           0       -0.811002    0.672010    0.519835
     10          1           0        2.812027   -0.443529   -1.470365
     11          1           0        3.717527   -0.860833    0.077244
     12          1           0        1.612132   -0.502167    1.419862
     13          1           0        0.439667    0.335545   -1.311620
     14          1           0       -1.648264   -1.337429    1.468546
     15          1           0       -2.808037   -0.767676   -1.195953
     16          1           0       -3.610567   -0.235905    0.299343
     17          1           0       -1.734167    1.528341   -1.339200
     18          1           0       -2.584649    1.961505    0.150954
     19          1           0       -0.505069    1.258201    1.385706
 ---------------------------------------------------------------------

 SCF Done:  E(RB3LYP) =  -423.123933350     A.U. after    1 cycles

 The electronic state is 1-A.
 Alpha  occ. eigenvalues --  -19.15341 -19.13543 -10.23745 -10.23700 -10.23513
 Alpha  occ. eigenvalues --  -10.23348 -10.19198 -10.18794 -10.18273  -1.07324
 Alpha  occ. eigenvalues --   -1.04063  -0.82393  -0.74229  -0.67333  -0.64968
 Alpha  occ. eigenvalues --   -0.64308  -0.59296  -0.53369  -0.51298  -0.49338
 Alpha  occ. eigenvalues --   -0.48122  -0.46549  -0.45353  -0.41463  -0.38919
 Alpha  occ. eigenvalues --   -0.38437  -0.37180  -0.34952  -0.33511  -0.32647
 Alpha  occ. eigenvalues --   -0.28892  -0.28480  -0.27582  -0.24603
 Alpha virt. eigenvalues --    0.06259   0.09359   0.09447   0.10104   0.11153
 Alpha virt. eigenvalues --    0.12391   0.13070   0.13617   0.15897   0.16444
 Alpha virt. eigenvalues --    0.16939   0.17924   0.18906   0.20922   0.21735

 Mulliken charges:
               1
     1  C   -0.179461
     2  O   -0.237306
     3  C    0.069589
     4  C    0.112735
     5  O   -0.312400
     6  C    0.123309
     7  C   -0.230341
     8  C   -0.244165
     9  C   -0.094470
    10  H    0.117473
    11  H    0.118397
    12  H    0.094300
    13  H    0.078076
    14  H    0.076133
    15  H    0.112401
    16  H    0.102613
    17  H    0.104561
    18  H    0.106460
    19  H    0.082096
 Sum of Mulliken charges =   0.00000

 Dipole moment (field-independent basis, Debye):
    X=             -0.9783    Y=             -0.1039    Z=              0.4008  Tot=              1.0623
 Quadrupole moment (field-independent basis, Debye-Ang):
   XX=            -50.8936   YY=            -57.3538   ZZ=            -50.6539
   XY=             -5.1315   XZ=             -2.0714   YZ=             -1.2306

  Exact polarizability:  94.643  -2.274  65.466  -3.336  -1.538  66.642
 Approx polarizability: 115.456   0.519 103.640  -6.499  -0.246 101.321

                      1                      2                      3
                      A                      A                      A
 Frequencies --     64.4399                69.6531               160.5836
 Red. masses --      3.0347                 3.9180                 3.1973
 Frc consts  --      0.0074                 0.0112                 0.0486
 IR Inten    --      1.5262                 2.4061                 3.6672

                      4                      5                      6
                      A                      A                      A
 Frequencies --    202.3802               316.5443               380.6045
 Red. masses --      2.2676                 4.4898                 3.3793
 Frc consts  --      0.0547                 0.2651                 0.2884
 IR Inten    --      2.8058                 1.4751                 7.0662

                      7                      8                      9
                      A                      A                      A
 Frequencies --    398.8887               489.1706               711.9382
 Red. masses --      2.6453                 4.5798                 3.6779
 Frc consts  --      0.2480                 0.6457                 1.0983
 IR Inten    --      1.6262                 0.5780                 0.8265

                     10                     11                     12
                      A                      A                      A
 Frequencies --    731.8576               821.6625               825.0815
 Red. masses --      1.3086                 2.1407                 1.8020
 Frc consts  --      0.4129                 0.8515                 0.7228
 IR Inten    --      0.2213                 7.9486                 2.6890

                     13                     14                     15
                      A                      A                      A
 Frequencies --    855.2477               868.6228               913.1463
 Red. masses --      1.9045                 6.0390                 4.0101
 Frc consts  --      0.8208                 2.6846                 1.9701
 IR Inten    --      8.5343                15.2796                43.6369

                     16                     17                     18
                      A                      A                      A
 Frequencies --    929.2709               949.5215               969.6499
 Red. masses --      2.4930                 2.7896                 2.6284
 Frc consts  --      1.2684                 1.4818                 1.4560
 IR Inten    --      5.8362                 7.5613                24.1915

                     19                     20                     21
                      A                      A                      A
 Frequencies --    974.7409              1015.3644              1047.9628
 Red. masses --      2.0824                 2.5787                 2.9574
 Frc consts  --      1.1657                 1.5664                 1.9136
 IR Inten    --      1.7093                55.2613                52.2596

                     22                     23                     24
                      A                      A                      A
 Frequencies --   1060.4190              1093.5051              1124.2331
 Red. masses --      1.7728                 1.3177                 1.6878
 Frc consts  --      1.1746                 0.9284                 1.2568
 IR Inten    --      7.3891                 1.9204                 3.2820

                     25                     26                     27
                      A                      A                      A
 Frequencies --   1153.5874              1164.8572              1170.2559
 Red. masses --      1.4042                 1.6087                 1.6595
 Frc consts  --      1.1010                 1.2861                 1.3390
 IR Inten    --      0.2932                 2.7315                 4.6880

                     28                     29                     30
                      A                      A                      A
 Frequencies --   1189.4552              1204.7120              1239.0348
 Red. masses --      1.9633                 1.3895                 1.3162
 Frc consts  --      1.6366                 1.1881                 1.1905
 IR Inten    --      7.8514                 0.3647                 0.3256

                     31                     32                     33
                      A                      A                      A
 Frequencies --   1245.6021              1268.4571              1277.6473
 Red. masses --      1.3088                 1.5007                 1.4606
 Frc consts  --      1.1964                 1.4226                 1.4047
 IR Inten    --      1.0247                 2.9388                 1.5811

                     34                     35                     36
                      A                      A                      A
 Frequencies --   1284.3500              1296.7665              1326.8628
 Red. masses --      1.5152                 1.4750                 1.4777
 Frc consts  --      1.4726                 1.4614                 1.5328
 IR Inten    --      5.4370                15.4398                15.9436

                     37                     38                     39
                      A                      A                      A
 Frequencies --   1343.0107              1457.0293              1462.7669
 Red. masses --      1.5377                 1.6976                 1.1110
 Frc consts  --      1.6341                 2.1234                 1.4006
 IR Inten    --      5.7063                 0.4902                 1.3084

                     40                     41                     42
                      A                      A                      A
 Frequencies --   1489.6626              1528.4222              3013.8996
 Red. masses --      1.1096                 1.3750                 1.0850
 Frc consts  --      1.4507                 1.8925                 5.8067
 IR Inten    --      2.3062                 2.0003                36.2718

                     43                     44                     45
                      A                      A                      A
 Frequencies --   3058.0304              3062.1869              3074.6014
 Red. masses --      1.0600                 1.0642                 1.0841
 Frc consts  --      5.8401                 5.8794                 6.0382
 IR Inten    --     17.5186                54.6830                51.4832

                     46                     47                     48
                      A                      A                      A
 Frequencies --   3085.3761              3101.4342              3105.2285
 Red. masses --      1.0500                 1.0890                 1.1052
 Frc consts  --      5.8891                 6.1715                 6.2788
 IR Inten    --     27.7964                19.9727                 4.1274

                     49                     50                     51
                      A                      A                      A
 Frequencies --   3117.7314              3126.9867              3173.9768
 Red. masses --      1.0936                 1.1050                 1.1197
 Frc consts  --      6.2630                 6.3662                 6.6459
 IR Inten    --     10.7113                47.1899                25.3693

 - Thermochemistry -
 -------------------
 Temperature   298.150 Kelvin.  Pressure   1.00000 Atm.
 Atom     1 has atomic number  6 and mass  12.00000

 Molecular mass:   126.06808 amu.
 Principal axes and moments of inertia in atomic units:
                           1         2         3
     Eigenvalues --   399.303451760.878161956.16333
           X            0.99977  -0.02160  -0.00176
           Y            0.02153   0.99931  -0.03036
           Z            0.00242   0.03032   0.99954
 This molecule is an asymmetric top.
 Rotational symmetry number  1.
 Rotational temperatures (Kelvin)      0.21691     0.04919     0.04428
 Rotational constants (GHZ):           4.51972     1.02491     0.92259
 Zero-point vibrational energy     418671.6 (Joules/Mol)
                                  100.06491 (Kcal/Mol)
 Warning -- explicit consideration of   8 degrees of freedom as
           vibrations may cause significant error
 Vibrational temperatures:     92.71   100.22   231.04   291.18   455.44
          (Kelvin)            547.60   573.91   703.81  1024.32  1052.98
                             1182.19  1187.11  1230.51  1249.75  1313.81
                             1337.01  1366.15  1395.11  1402.43  1460.88
                             1507.78  1525.70  1573.31  1617.52  1659.75
                             1675.97  1683.74  1711.36  1733.31  1782.69
                             1792.14  1825.02  1838.25  1847.89  1865.76
                             1909.06  1932.29  2096.34  2104.59  2143.29
                             2199.06  4336.32  4399.82  4405.80  4423.66
                             4439.16  4462.27  4467.73  4485.71  4499.03
                             4566.64

 Zero-point correction=                           0.159464 (Hartree/Particle)
 Thermal correction to Energy=                    0.167404
 Thermal correction to Enthalpy=                  0.168348
 Thermal correction to Gibbs Free Energy=         0.126067
 Sum of electronic and zero-point Energies=           -422.964470
 Sum of electronic and thermal Energies=              -422.956529
 Sum of electronic and thermal Enthalpies=            -422.955585
 Sum of electronic and thermal Free Energies=         -422.997866

                     E (Thermal)             CV                S
                      KCal/Mol        Cal/Mol-Kelvin    Cal/Mol-Kelvin
 Total                  105.048             29.860             88.989
 Electronic               0.000              0.000              0.000
 Translational            0.889              2.981             40.409
 Rotational               0.889              2.981             28.710
 Vibrational            103.270             23.898             19.870
 Vibration     1          0.597              1.971              4.316
 Vibration     2          0.598              1.969              4.163
 Vibration     3          0.622              1.891              2.543
 Vibration     4          0.639              1.837              2.111
 Vibration     5          0.703              1.642              1.328
 Vibration     6          0.750              1.512              1.037
 Vibration     7          0.765              1.473              0.967
 Vibration     8          0.845              1.274              0.686

 Normal termination of Gaussian 09 at Mon Jan 27 12:48:55 2020.
