 Gaussian 09, Revision D.01,
 Gaussian 09:  ES64L-G09RevD.01 24-Apr-2013

 -----------------------------
 # b3lyp 6-31G(2df,p) opt Freq
 -----------------------------

 -----
 titel
 -----
 Symbolic Z-matrix:
 Charge =  0 Multiplicity = 1

 SCF Done:  E(RB3LYP) =  -423.168412376     A.U. after   14 cycles
 Optimization completed.
    -- Stationary point found.
 Normal termination of Gaussian 09 at Mon Jan 27 12:15:16 2020.

 ----------------------------------------------------------------------
 #N Geom=AllCheck Guess=TCheck SCRF=Check GenChk RB3LYP/6-31G(2df,p) Fr
 eq
 ----------------------------------------------------------------------

 Structure from the checkpoint file:  "/scratch/puck/g09_65e69389-65e4-4ba0-9f6a-a71fb7c252f3/Gau-153286.chk"
 -----
 titel
 -----
 Charge =  0 Multiplicity = 1

                         Standard orientation:
 ---------------------------------------------------------------------
 Center     Atomic      Atomic             Coordinates (Angstroms)
 Number     Number       Type             X           Y           Z
 ---------------------------------------------------------------------
      1          6           0       -1.533405   -0.279991    1.026376
      2          8           0       -2.608401    0.090403    0.142327
      3          6           0       -1.719589    0.145919   -0.989806
      4          6           0       -0.471518    0.006387   -0.085047
      5          8           0        0.320894   -1.088489   -0.481068
      6          6           0        1.563643   -1.182686    0.203962
      7          6           0        2.449158    0.027123   -0.093833
      8          6           0        1.648590    1.288637    0.088068
      9          6           0        0.318074    1.263776    0.115428
     10          1           0       -1.507828    0.344169    1.926214
     11          1           0       -1.565133   -1.341428    1.305512
     12          1           0       -1.833982   -0.716731   -1.657650
     13          1           0       -1.825532    1.076566   -1.557501
     14          1           0        1.396119   -1.261695    1.289869
     15          1           0        2.022519   -2.115091   -0.134795
     16          1           0        3.320152    0.023012    0.573309
     17          1           0        2.842990   -0.032754   -1.117657
     18          1           0        2.183560    2.226757    0.207776
     19          1           0       -0.262534    2.166901    0.283967
 ---------------------------------------------------------------------

 SCF Done:  E(RB3LYP) =  -423.168412376     A.U. after    1 cycles

 The electronic state is 1-A.
 Alpha  occ. eigenvalues --  -19.14516 -19.13117 -10.24403 -10.23304 -10.22574
 Alpha  occ. eigenvalues --  -10.22496 -10.19184 -10.19048 -10.18582  -1.05180
 Alpha  occ. eigenvalues --   -1.02543  -0.80597  -0.77646  -0.69085  -0.68359
 Alpha  occ. eigenvalues --   -0.64265  -0.57875  -0.52750  -0.51204  -0.49290
 Alpha  occ. eigenvalues --   -0.47517  -0.45949  -0.43042  -0.41818  -0.40494
 Alpha  occ. eigenvalues --   -0.40030  -0.39380  -0.37401  -0.35132  -0.31760
 Alpha  occ. eigenvalues --   -0.30133  -0.25800  -0.24929  -0.24491
 Alpha virt. eigenvalues --    0.01202   0.07349   0.09463   0.11516   0.12226
 Alpha virt. eigenvalues --    0.13520   0.14424   0.15156   0.15625   0.16524
 Alpha virt. eigenvalues --    0.18332   0.18364   0.18895   0.20363   0.21818

 Mulliken charges:
               1
     1  C   -0.118401
     2  O   -0.274120
     3  C   -0.120604
     4  C    0.318102
     5  O   -0.301224
     6  C   -0.096215
     7  C   -0.259835
     8  C   -0.101906
     9  C   -0.087770
    10  H    0.100230
    11  H    0.101546
    12  H    0.109270
    13  H    0.103460
    14  H    0.094436
    15  H    0.108746
    16  H    0.106668
    17  H    0.119322
    18  H    0.095191
    19  H    0.103105
 Sum of Mulliken charges =   0.00000

 Dipole moment (field-independent basis, Debye):
    X=              2.4603    Y=              0.4588    Z=              0.4985  Tot=              2.5518
 Quadrupole moment (field-independent basis, Debye-Ang):
   XX=            -56.2812   YY=            -52.0929   ZZ=            -52.0999
   XY=             -0.4195   XZ=              1.2109   YZ=             -1.1343

  Exact polarizability:  95.540  -0.819  72.037   0.486  -0.579  64.809
 Approx polarizability: 135.755  -2.091 102.545  -0.197   0.921  97.797

                      1                      2                      3
                      A                      A                      A
 Frequencies --     63.6977                93.1966               210.9920
 Red. masses --      4.0625                 3.4162                 2.2434
 Frc consts  --      0.0097                 0.0175                 0.0588
 IR Inten    --      3.3369                 1.5929                 0.3360

                      4                      5                      6
                      A                      A                      A
 Frequencies --    274.4009               338.5899               396.9229
 Red. masses --      1.8993                 2.6526                 3.3454
 Frc consts  --      0.0843                 0.1792                 0.3105
 IR Inten    --      1.0919                 2.9925                 3.3101

                      7                      8                      9
                      A                      A                      A
 Frequencies --    404.1231               499.1756               534.4869
 Red. masses --      3.3356                 3.4768                 2.8632
 Frc consts  --      0.3210                 0.5104                 0.4819
 IR Inten    --      2.3814                 2.6083                 0.1959

                     10                     11                     12
                      A                      A                      A
 Frequencies --    633.8557               733.8098               786.9947
 Red. masses --      3.6441                 1.5916                 2.0215
 Frc consts  --      0.8626                 0.5050                 0.7377
 IR Inten    --      0.1587                24.3453                 9.7928

                     13                     14                     15
                      A                      A                      A
 Frequencies --    824.0857               873.7860               898.3230
 Red. masses --      2.7983                 2.8870                 2.5263
 Frc consts  --      1.1197                 1.2987                 1.2011
 IR Inten    --      2.6769                 2.3804                10.7431

                     16                     17                     18
                      A                      A                      A
 Frequencies --    933.5200               958.0815               997.3158
 Red. masses --      2.2255                 1.3907                 3.5891
 Frc consts  --      1.1427                 0.7521                 2.1033
 IR Inten    --     24.0245                 1.2461                 4.1385

                     19                     20                     21
                      A                      A                      A
 Frequencies --   1005.6585              1011.5405              1033.9795
 Red. masses --      1.2941                 1.8718                10.5449
 Frc consts  --      0.7711                 1.1284                 6.6423
 IR Inten    --      1.2045                 2.5885                77.1883

                     22                     23                     24
                      A                      A                      A
 Frequencies --   1054.4435              1079.0446              1107.9777
 Red. masses --      4.2644                 2.7068                 3.0548
 Frc consts  --      2.7935                 1.8569                 2.2095
 IR Inten    --     23.1277                10.2245                48.8127

                     25                     26                     27
                      A                      A                      A
 Frequencies --   1148.9303              1153.9854              1165.6256
 Red. masses --      1.5469                 1.1097                 1.3492
 Frc consts  --      1.2031                 0.8707                 1.0800
 IR Inten    --     24.8168                 4.1782                 5.4872

                     28                     29                     30
                      A                      A                      A
 Frequencies --   1213.1525              1233.5808              1274.0540
 Red. masses --      1.8498                 1.3727                 1.5969
 Frc consts  --      1.6040                 1.2307                 1.5272
 IR Inten    --     34.8789                20.6323                11.1843

                     31                     32                     33
                      A                      A                      A
 Frequencies --   1295.0878              1303.3552              1363.7515
 Red. masses --      1.2860                 1.4200                 1.5221
 Frc consts  --      1.2708                 1.4212                 1.6679
 IR Inten    --      0.8845                16.1740                 7.6019

                     34                     35                     36
                      A                      A                      A
 Frequencies --   1370.1773              1400.7195              1426.6259
 Red. masses --      1.5378                 1.5110                 1.4996
 Frc consts  --      1.7010                 1.7466                 1.7983
 IR Inten    --      1.2391                 8.6065                 1.3731

                     37                     38                     39
                      A                      A                      A
 Frequencies --   1468.4743              1497.7880              1501.2687
 Red. masses --      1.0932                 1.0765                 1.0923
 Frc consts  --      1.3889                 1.4229                 1.4505
 IR Inten    --      2.5974                 0.4084                 1.3447

                     40                     41                     42
                      A                      A                      A
 Frequencies --   1526.0786              1721.2346              2980.7848
 Red. masses --      1.1134                 6.9881                 1.0707
 Frc consts  --      1.5278                12.1981                 5.6050
 IR Inten    --      2.4683                 1.5731                35.7339

                     43                     44                     45
                      A                      A                      A
 Frequencies --   3008.2345              3016.0755              3023.6307
 Red. masses --      1.0546                 1.0619                 1.0576
 Frc consts  --      5.6230                 5.6914                 5.6970
 IR Inten    --     85.8698                28.3947                21.9926

                     46                     47                     48
                      A                      A                      A
 Frequencies --   3053.2652              3070.8721              3077.5129
 Red. masses --      1.0979                 1.1090                 1.1111
 Frc consts  --      6.0303                 6.1618                 6.2003
 IR Inten    --     29.5051                31.3477                34.2596

                     49                     50                     51
                      A                      A                      A
 Frequencies --   3093.7573              3154.1110              3176.1702
 Red. masses --      1.0940                 1.0838                 1.0980
 Frc consts  --      6.1694                 6.3528                 6.5262
 IR Inten    --     38.0570                 5.4097                20.5447

 - Thermochemistry -
 -------------------
 Temperature   298.150 Kelvin.  Pressure   1.00000 Atm.
 Atom     1 has atomic number  6 and mass  12.00000

 Molecular mass:   126.06808 amu.
 Principal axes and moments of inertia in atomic units:
                           1         2         3
     Eigenvalues --   496.575451417.425591604.23904
           X            0.99998  -0.00295   0.00523
           Y            0.00313   0.99942  -0.03396
           Z           -0.00513   0.03398   0.99941
 This molecule is an asymmetric top.
 Rotational symmetry number  1.
 Warning -- assumption of classical behavior for rotation
           may cause significant error
 Rotational temperatures (Kelvin)      0.17442     0.06111     0.05399
 Rotational constants (GHZ):           3.63437     1.27325     1.12498
 Zero-point vibrational energy     421482.1 (Joules/Mol)
                                  100.73664 (Kcal/Mol)
 Warning -- explicit consideration of   9 degrees of freedom as
           vibrations may cause significant error
 Vibrational temperatures:     91.65   134.09   303.57   394.80   487.15
          (Kelvin)            571.08   581.44   718.20   769.01   911.98
                             1055.79  1132.31  1185.67  1257.18  1292.48
                             1343.13  1378.46  1434.91  1446.92  1455.38
                             1487.66  1517.11  1552.50  1594.13  1653.05
                             1660.33  1677.07  1745.45  1774.85  1833.08
                             1863.34  1875.24  1962.13  1971.38  2015.32
                             2052.59  2112.80  2154.98  2159.99  2195.68
                             2476.47  4288.68  4328.17  4339.45  4350.32
                             4392.96  4418.29  4427.85  4451.22  4538.06
                             4569.79

 Zero-point correction=                           0.160534 (Hartree/Particle)
 Thermal correction to Energy=                    0.168335
 Thermal correction to Enthalpy=                  0.169279
 Thermal correction to Gibbs Free Energy=         0.127738
 Sum of electronic and zero-point Energies=           -423.007878
 Sum of electronic and thermal Energies=              -423.000077
 Sum of electronic and thermal Enthalpies=            -422.999133
 Sum of electronic and thermal Free Energies=         -423.040674

                     E (Thermal)             CV                S
                      KCal/Mol        Cal/Mol-Kelvin    Cal/Mol-Kelvin
 Total                  105.632             29.997             87.430
 Electronic               0.000              0.000              0.000
 Translational            0.889              2.981             40.409
 Rotational               0.889              2.981             28.514
 Vibrational            103.854             24.035             18.508
 Vibration     1          0.597              1.972              4.339
 Vibration     2          0.602              1.954              3.592
 Vibration     3          0.643              1.824              2.035
 Vibration     4          0.677              1.721              1.568
 Vibration     5          0.719              1.598              1.219
 Vibration     6          0.763              1.477              0.974
 Vibration     7          0.769              1.461              0.948
 Vibration     8          0.855              1.252              0.660
 Vibration     9          0.889              1.174              0.577

 Optimization completed.
    -- Stationary point found.
 Normal termination of Gaussian 09 at Mon Jan 27 12:58:46 2020.
