 Gaussian 09, Revision D.01,
 Gaussian 09:  ES64L-G09RevD.01 24-Apr-2013

 -----------------------------
 # b3lyp 6-31G(2df,p) opt Freq
 -----------------------------

 -----
 titel
 -----
 Symbolic Z-matrix:
 Charge =  0 Multiplicity = 1

 SCF Done:  E(RB3LYP) =  -423.199445449     A.U. after   14 cycles
 Optimization completed.
    -- Stationary point found.
 Normal termination of Gaussian 09 at Tue Jan 28 03:17:13 2020.

 ----------------------------------------------------------------------
 #N Geom=AllCheck Guess=TCheck SCRF=Check GenChk RB3LYP/6-31G(2df,p) Fr
 eq
 ----------------------------------------------------------------------

 Structure from the checkpoint file:  "/scratch/puck/g09_d39ba58d-a555-4049-b0f5-20f3d2cccc30/Gau-1279.chk"
 -----
 titel
 -----
 Charge =  0 Multiplicity = 1

                         Standard orientation:
 ---------------------------------------------------------------------
 Center     Atomic      Atomic             Coordinates (Angstroms)
 Number     Number       Type             X           Y           Z
 ---------------------------------------------------------------------
      1          8           0       -2.614966   -1.037421   -0.189283
      2          6           0       -1.589781   -0.195907    0.310347
      3          6           0       -1.326913    0.925597   -0.714392
      4          6           0        0.127664    1.318602   -0.531383
      5          6           0        0.656240    1.527785    0.847488
      6          6           0        0.823635    0.154863    0.203561
      7          6           0       -0.223713   -0.901366    0.501053
      8          6           0        2.179450   -0.248562   -0.209594
      9          8           0        2.560672   -1.390318   -0.309272
     10          1           0       -2.821376   -1.692741    0.484436
     11          1           0       -1.909581    0.248250    1.264810
     12          1           0       -1.477599    0.510691   -1.716964
     13          1           0       -2.019846    1.764184   -0.595221
     14          1           0        0.637463    1.816225   -1.349405
     15          1           0        1.556721    2.126099    0.946757
     16          1           0       -0.022657    1.610176    1.689651
     17          1           0       -0.130685   -1.709349   -0.231955
     18          1           0       -0.115192   -1.345010    1.496354
     19          1           0        2.857615    0.607313   -0.442507
 ---------------------------------------------------------------------

 SCF Done:  E(RB3LYP) =  -423.199445449     A.U. after    1 cycles

 The electronic state is 1-A.
 Alpha  occ. eigenvalues --  -19.14029 -19.12960 -10.26456 -10.23915 -10.21123
 Alpha  occ. eigenvalues --  -10.20832 -10.20582 -10.19024 -10.18493  -1.03725
 Alpha  occ. eigenvalues --   -1.02321  -0.89888  -0.76577  -0.72729  -0.65357
 Alpha  occ. eigenvalues --   -0.62137  -0.56924  -0.54689  -0.52683  -0.49660
 Alpha  occ. eigenvalues --   -0.46372  -0.45299  -0.42597  -0.41824  -0.40698
 Alpha  occ. eigenvalues --   -0.39429  -0.37669  -0.36705  -0.36571  -0.32144
 Alpha  occ. eigenvalues --   -0.30794  -0.28158  -0.27137  -0.24652
 Alpha virt. eigenvalues --   -0.01560   0.06944   0.08755   0.09379   0.11900
 Alpha virt. eigenvalues --    0.12501   0.13614   0.14803   0.15867   0.16424
 Alpha virt. eigenvalues --    0.17954   0.19614   0.20155   0.20890   0.23975

 Mulliken charges:
               1
     1  O   -0.433330
     2  C    0.110428
     3  C   -0.224466
     4  C   -0.079409
     5  C   -0.340610
     6  C    0.260247
     7  C   -0.325558
     8  C    0.083507
     9  O   -0.271608
    10  H    0.284383
    11  H    0.069635
    12  H    0.122755
    13  H    0.108703
    14  H    0.098764
    15  H    0.122065
    16  H    0.124993
    17  H    0.128402
    18  H    0.100448
    19  H    0.060653
 Sum of Mulliken charges =   0.00000

 Dipole moment (field-independent basis, Debye):
    X=             -1.3849    Y=              2.1782    Z=              1.4966  Tot=              2.9837
 Quadrupole moment (field-independent basis, Debye-Ang):
   XX=            -59.8037   YY=            -53.6334   ZZ=            -51.1782
   XY=              7.6956   XZ=             -3.0033   YZ=             -2.8558

  Exact polarizability:  85.599  -1.289  80.350  -1.199  -0.445  63.833
 Approx polarizability: 114.117  -9.040 127.689  -0.894   1.464  99.988

                      1                      2                      3
                      A                      A                      A
 Frequencies --     97.6377               126.0034               194.3628
 Red. masses --      5.1634                 3.2642                 3.6648
 Frc consts  --      0.0290                 0.0305                 0.0816
 IR Inten    --      2.5426                 2.2548                16.9061

                      4                      5                      6
                      A                      A                      A
 Frequencies --    242.9284               279.6181               340.2784
 Red. masses --      2.1863                 1.1153                 2.9360
 Frc consts  --      0.0760                 0.0514                 0.2003
 IR Inten    --      2.0734                89.4141                 6.8002

                      7                      8                      9
                      A                      A                      A
 Frequencies --    375.5682               389.9274               465.8626
 Red. masses --      2.8996                 2.3531                 3.4879
 Frc consts  --      0.2410                 0.2108                 0.4460
 IR Inten    --      2.2112                 3.0866                 7.4333

                     10                     11                     12
                      A                      A                      A
 Frequencies --    474.0064               584.9831               624.5565
 Red. masses --      2.4928                 3.5343                 4.1254
 Frc consts  --      0.3300                 0.7126                 0.9481
 IR Inten    --      8.6011                 9.8717                 8.0319

                     13                     14                     15
                      A                      A                      A
 Frequencies --    774.4973               796.5791               863.1659
 Red. masses --      3.1692                 4.3235                 1.5754
 Frc consts  --      1.1200                 1.6164                 0.6916
 IR Inten    --      5.0332                 5.0724                13.6624

                     16                     17                     18
                      A                      A                      A
 Frequencies --    867.5866               896.3668               927.5565
 Red. masses --      2.8255                 1.8765                 1.3719
 Frc consts  --      1.2531                 0.8883                 0.6954
 IR Inten    --      1.1391                 6.0684                13.4859

                     19                     20                     21
                      A                      A                      A
 Frequencies --    976.0717              1027.5557              1047.9174
 Red. masses --      1.4655                 2.0168                 1.9441
 Frc consts  --      0.8226                 1.2547                 1.2578
 IR Inten    --     16.4762                14.3534                20.9907

                     22                     23                     24
                      A                      A                      A
 Frequencies --   1056.5369              1071.9174              1076.1781
 Red. masses --      1.8695                 1.7557                 1.7469
 Frc consts  --      1.2296                 1.1885                 1.1920
 IR Inten    --     32.3460                32.2167                28.4286

                     25                     26                     27
                      A                      A                      A
 Frequencies --   1097.8473              1126.4414              1178.4810
 Red. masses --      1.6064                 2.1525                 1.3444
 Frc consts  --      1.1408                 1.6092                 1.1001
 IR Inten    --      3.8315                18.3493                 3.3217

                     28                     29                     30
                      A                      A                      A
 Frequencies --   1213.7698              1244.5796              1271.4147
 Red. masses --      1.3339                 1.5988                 1.7219
 Frc consts  --      1.1578                 1.4591                 1.6400
 IR Inten    --      4.9088                38.2465                 8.4465

                     31                     32                     33
                      A                      A                      A
 Frequencies --   1288.0062              1312.7225              1350.0896
 Red. masses --      1.2204                 1.6581                 2.7713
 Frc consts  --      1.1929                 1.6835                 2.9761
 IR Inten    --     15.5714                13.0754                 5.0016

                     34                     35                     36
                      A                      A                      A
 Frequencies --   1364.9144              1392.3911              1437.0190
 Red. masses --      1.4257                 1.8343                 1.3251
 Frc consts  --      1.5649                 2.0953                 1.6122
 IR Inten    --     23.5447                16.0914                 6.8380

                     37                     38                     39
                      A                      A                      A
 Frequencies --   1444.3277              1484.4861              1487.2582
 Red. masses --      1.4469                 1.1878                 1.1080
 Frc consts  --      1.7784                 1.5422                 1.4440
 IR Inten    --      3.8722                 5.9722                 2.6305

                     40                     41                     42
                      A                      A                      A
 Frequencies --   1502.1517              1808.4358              2842.2681
 Red. masses --      1.1324                10.6332                 1.0815
 Frc consts  --      1.5055                20.4889                 5.1476
 IR Inten    --      3.9838               254.4363               117.3198

                     43                     44                     45
                      A                      A                      A
 Frequencies --   2980.0934              3046.0234              3049.4317
 Red. masses --      1.0837                 1.0590                 1.0599
 Frc consts  --      5.6706                 5.7889                 5.8071
 IR Inten    --     41.5236                36.3451                12.7539

                     46                     47                     48
                      A                      A                      A
 Frequencies --   3091.0434              3094.2362              3127.6863
 Red. masses --      1.1042                 1.1043                 1.0544
 Frc consts  --      6.2161                 6.2296                 6.0770
 IR Inten    --     11.4152                25.0350                12.7454

                     49                     50                     51
                      A                      A                      A
 Frequencies --   3167.5068              3211.8913              3822.0456
 Red. masses --      1.0905                 1.1159                 1.0663
 Frc consts  --      6.4466                 6.7825                 9.1771
 IR Inten    --     10.7902                 7.1978                23.7807

 - Thermochemistry -
 -------------------
 Temperature   298.150 Kelvin.  Pressure   1.00000 Atm.
 Atom     1 has atomic number  8 and mass  15.99491

 Molecular mass:   126.06808 amu.
 Principal axes and moments of inertia in atomic units:
                           1         2         3
     Eigenvalues --   638.920771445.191271807.93907
           X            0.99960   0.02813  -0.00316
           Y           -0.02819   0.99941  -0.01955
           Z            0.00261   0.01963   0.99980
 This molecule is an asymmetric top.
 Rotational symmetry number  1.
 Warning -- assumption of classical behavior for rotation
           may cause significant error
 Rotational temperatures (Kelvin)      0.13556     0.05993     0.04791
 Rotational constants (GHZ):           2.82467     1.24879     0.99823
 Zero-point vibrational energy     418778.1 (Joules/Mol)
                                  100.09036 (Kcal/Mol)
 Warning -- explicit consideration of  11 degrees of freedom as
           vibrations may cause significant error
 Vibrational temperatures:    140.48   181.29   279.64   349.52   402.31
          (Kelvin)            489.58   540.36   561.02   670.27   681.99
                              841.66   898.60  1114.33  1146.10  1241.90
                             1248.26  1289.67  1334.55  1404.35  1478.42
                             1507.72  1520.12  1542.25  1548.38  1579.56
                             1620.70  1695.57  1746.34  1790.67  1829.28
                             1853.15  1888.71  1942.48  1963.80  2003.34
                             2067.55  2078.06  2135.84  2139.83  2161.26
                             2601.93  4089.38  4287.68  4382.54  4387.45
                             4447.32  4451.91  4500.04  4557.33  4621.19
                             5499.06

 Zero-point correction=                           0.159504 (Hartree/Particle)
 Thermal correction to Energy=                    0.167876
 Thermal correction to Enthalpy=                  0.168820
 Thermal correction to Gibbs Free Energy=         0.126577
 Sum of electronic and zero-point Energies=           -423.039941
 Sum of electronic and thermal Energies=              -423.031570
 Sum of electronic and thermal Enthalpies=            -423.030626
 Sum of electronic and thermal Free Energies=         -423.072869

                     E (Thermal)             CV                S
                      KCal/Mol        Cal/Mol-Kelvin    Cal/Mol-Kelvin
 Total                  105.344             32.268             88.909
 Electronic               0.000              0.000              0.000
 Translational            0.889              2.981             40.409
 Rotational               0.889              2.981             28.903
 Vibrational            103.566             26.306             19.597
 Vibration     1          0.603              1.951              3.501
 Vibration     2          0.611              1.927              3.006
 Vibration     3          0.635              1.848              2.186
 Vibration     4          0.659              1.774              1.781
 Vibration     5          0.680              1.711              1.536
 Vibration     6          0.720              1.595              1.211
 Vibration     7          0.746              1.522              1.057
 Vibration     8          0.758              1.492              1.000
 Vibration     9          0.823              1.326              0.749
 Vibration    10          0.831              1.308              0.726
 Vibration    11          0.942              1.064              0.476

 Optimization completed.
    -- Stationary point found.
 Normal termination of Gaussian 09 at Tue Jan 28 04:00:39 2020.
