 Gaussian 09, Revision D.01,
 Gaussian 09:  ES64L-G09RevD.01 24-Apr-2013

 -----------------------------
 # b3lyp 6-31G(2df,p) opt Freq
 -----------------------------

 -----
 titel
 -----
 Symbolic Z-matrix:
 Charge =  0 Multiplicity = 1

 SCF Done:  E(RB3LYP) =  -423.166548082     A.U. after   14 cycles
 Optimization completed.
    -- Stationary point found.
 Normal termination of Gaussian 09 at Mon Jan 27 12:58:43 2020.

 ----------------------------------------------------------------------
 #N Geom=AllCheck Guess=TCheck SCRF=Check GenChk RB3LYP/6-31G(2df,p) Fr
 eq
 ----------------------------------------------------------------------

 Structure from the checkpoint file:  "/scratch/puck/g09_d694b8dd-dfa1-4b40-9832-8fccc9125481/Gau-36833.chk"
 -----
 titel
 -----
 Charge =  0 Multiplicity = 1

                         Standard orientation:
 ---------------------------------------------------------------------
 Center     Atomic      Atomic             Coordinates (Angstroms)
 Number     Number       Type             X           Y           Z
 ---------------------------------------------------------------------
      1          8           0        3.573250   -0.000005    0.054023
      2          6           0        2.377938   -0.000001    0.032400
      3          6           0        1.313268    1.107236   -0.034154
      4          6           0        0.257965    0.000006   -0.365028
      5          6           0        1.313261   -1.107232   -0.034161
      6          6           0       -1.025051    0.000006    0.439111
      7          6           0       -2.110036   -1.036547    0.058388
      8          8           0       -3.067713   -0.000007   -0.233045
      9          6           0       -2.110046    1.036545    0.058379
     10          1           0        1.158459    1.572866    0.946449
     11          1           0        1.484811    1.898042   -0.768551
     12          1           0        0.023669    0.000010   -1.434529
     13          1           0        1.158449   -1.572874    0.946435
     14          1           0        1.484801   -1.898030   -0.768568
     15          1           0       -0.793183    0.000012    1.509185
     16          1           0       -1.880159   -1.645565   -0.826788
     17          1           0       -2.452371   -1.698567    0.862877
     18          1           0       -1.880175    1.645558   -0.826802
     19          1           0       -2.452388    1.698568    0.862862
 ---------------------------------------------------------------------

 SCF Done:  E(RB3LYP) =  -423.166548083     A.U. after    1 cycles

 The electronic state is 1-A.
 Alpha  occ. eigenvalues --  -19.14053 -19.13496 -10.27524 -10.23501 -10.23501
 Alpha  occ. eigenvalues --  -10.21010 -10.20375 -10.19861 -10.19860  -1.04971
 Alpha  occ. eigenvalues --   -1.04066  -0.85887  -0.75786  -0.69876  -0.68673
 Alpha  occ. eigenvalues --   -0.62564  -0.56352  -0.53548  -0.51096  -0.49403
 Alpha  occ. eigenvalues --   -0.46775  -0.45633  -0.43580  -0.43015  -0.41315
 Alpha  occ. eigenvalues --   -0.40710  -0.38124  -0.36594  -0.36531  -0.34072
 Alpha  occ. eigenvalues --   -0.31440  -0.30104  -0.25165  -0.24690
 Alpha virt. eigenvalues --   -0.02413   0.06640   0.08060   0.09522   0.10352
 Alpha virt. eigenvalues --    0.10447   0.14082   0.15269   0.15271   0.16063
 Alpha virt. eigenvalues --    0.16766   0.18031   0.18152   0.18990   0.20099

 Mulliken charges:
               1
     1  O   -0.284858
     2  C    0.407170
     3  C   -0.369874
     4  C    0.009681
     5  C   -0.369874
     6  C   -0.038697
     7  C   -0.086324
     8  O   -0.269521
     9  C   -0.086324
    10  H    0.129887
    11  H    0.132315
    12  H    0.085782
    13  H    0.129887
    14  H    0.132315
    15  H    0.075933
    16  H    0.098317
    17  H    0.102932
    18  H    0.098317
    19  H    0.102932
 Sum of Mulliken charges =   0.00000

 Dipole moment (field-independent basis, Debye):
    X=             -1.0334    Y=              0.0000    Z=              0.4603  Tot=              1.1313
 Quadrupole moment (field-independent basis, Debye-Ang):
   XX=            -76.8545   YY=            -49.6134   ZZ=            -50.7542
   XY=              0.0000   XZ=             -2.3173   YZ=              0.0000

  Exact polarizability:  88.460   0.000  77.586  -1.123   0.000  61.628
 Approx polarizability: 119.686   0.000 111.053   0.014   0.000  96.534

                      1                      2                      3
                      A                      A                      A
 Frequencies --     32.9368                47.8986                71.0914
 Red. masses --      4.8215                 3.4903                 3.7286
 Frc consts  --      0.0031                 0.0047                 0.0111
 IR Inten    --      9.3894                 1.1681                 2.9234

                      4                      5                      6
                      A                      A                      A
 Frequencies --    158.9136               302.6892               313.5026
 Red. masses --      2.5401                 3.0715                 2.7015
 Frc consts  --      0.0378                 0.1658                 0.1564
 IR Inten    --      0.8775                 0.6267                 0.2629

                      7                      8                      9
                      A                      A                      A
 Frequencies --    388.1160               415.5734               499.8142
 Red. masses --      3.9281                 1.8664                 2.7300
 Frc consts  --      0.3486                 0.1899                 0.4018
 IR Inten    --      0.2917                 0.6499                 2.4328

                     10                     11                     12
                      A                      A                      A
 Frequencies --    654.0962               661.7425               723.4698
 Red. masses --      2.6896                 1.4170                 2.6743
 Frc consts  --      0.6780                 0.3656                 0.8247
 IR Inten    --      3.0302                 0.0673                 0.4762

                     13                     14                     15
                      A                      A                      A
 Frequencies --    829.3041               890.1258               891.4094
 Red. masses --      4.3043                 1.3115                 3.0695
 Frc consts  --      1.7441                 0.6122                 1.4371
 IR Inten    --     15.5547                 0.0335                 1.4950

                     16                     17                     18
                      A                      A                      A
 Frequencies --    928.0679               947.8291               980.1531
 Red. masses --      2.2183                 3.3384                 1.4620
 Frc consts  --      1.1257                 1.7671                 0.8275
 IR Inten    --      4.9532                14.0506                13.1049

                     19                     20                     21
                      A                      A                      A
 Frequencies --    989.1099              1018.4704              1041.0307
 Red. masses --      1.6090                 3.6856                 6.9684
 Frc consts  --      0.9275                 2.2525                 4.4495
 IR Inten    --      6.2315                 5.3357                31.8699

                     22                     23                     24
                      A                      A                      A
 Frequencies --   1055.8100              1096.4101              1113.2141
 Red. masses --      4.3457                 2.6277                 2.9544
 Frc consts  --      2.8542                 1.8611                 2.1571
 IR Inten    --     63.2786                 2.9865                42.8654

                     25                     26                     27
                      A                      A                      A
 Frequencies --   1151.3408              1159.4183              1165.1271
 Red. masses --      1.5886                 1.2448                 1.0674
 Frc consts  --      1.2407                 0.9859                 0.8537
 IR Inten    --      1.4124                 0.4008                 0.2996

                     28                     29                     30
                      A                      A                      A
 Frequencies --   1193.2701              1234.7814              1247.2740
 Red. masses --      1.3957                 1.6262                 1.7618
 Frc consts  --      1.1709                 1.4609                 1.6148
 IR Inten    --      2.7306                 0.5138                 0.6446

                     31                     32                     33
                      A                      A                      A
 Frequencies --   1262.0289              1267.3419              1305.1665
 Red. masses --      1.3368                 1.3572                 1.3067
 Frc consts  --      1.2544                 1.2843                 1.3114
 IR Inten    --      0.9923                 6.6017                18.8075

                     34                     35                     36
                      A                      A                      A
 Frequencies --   1313.2957              1379.3575              1412.9825
 Red. masses --      1.2774                 1.3877                 1.6740
 Frc consts  --      1.2981                 1.5556                 1.9692
 IR Inten    --      0.6074                 1.3969                 2.9332

                     37                     38                     39
                      A                      A                      A
 Frequencies --   1425.6735              1447.1413              1513.1862
 Red. masses --      1.0891                 1.1326                 1.0797
 Frc consts  --      1.3042                 1.3976                 1.4566
 IR Inten    --     14.1672                 2.4584                 1.3384

                     40                     41                     42
                      A                      A                      A
 Frequencies --   1538.7440              1896.8058              2998.4462
 Red. masses --      1.1096                12.6266                 1.0548
 Frc consts  --      1.5480                26.7660                 5.5875
 IR Inten    --      1.2210               303.5877               115.3619

                     43                     44                     45
                      A                      A                      A
 Frequencies --   3009.3221              3038.5382              3043.8158
 Red. masses --      1.0610                 1.0937                 1.0610
 Frc consts  --      5.6614                 5.9492                 5.7915
 IR Inten    --      6.9297                19.9171                 9.0781

                     46                     47                     48
                      A                      A                      A
 Frequencies --   3047.5517              3049.1575              3051.2326
 Red. masses --      1.0701                 1.1064                 1.0860
 Frc consts  --      5.8556                 6.0607                 5.9572
 IR Inten    --      1.7796                 9.4226                18.2078

                     49                     50                     51
                      A                      A                      A
 Frequencies --   3067.4184              3111.5420              3112.1368
 Red. masses --      1.0933                 1.1012                 1.1020
 Frc consts  --      6.0607                 6.2817                 6.2884
 IR Inten    --     83.5726                 5.2860                17.7264

 - Thermochemistry -
 -------------------
 Temperature   298.150 Kelvin.  Pressure   1.00000 Atm.
 Atom     1 has atomic number  8 and mass  15.99491

 Molecular mass:   126.06808 amu.
 Principal axes and moments of inertia in atomic units:
                           1         2         3
     Eigenvalues --   335.372522236.735072463.66998
           X            0.99999   0.00000  -0.00409
           Y            0.00000   1.00000   0.00000
           Z            0.00409   0.00000   0.99999
 This molecule is an asymmetric top.
 Rotational symmetry number  1.
 Rotational temperatures (Kelvin)      0.25826     0.03872     0.03516
 Rotational constants (GHZ):           5.38130     0.80686     0.73254
 Zero-point vibrational energy     415659.7 (Joules/Mol)
                                   99.34505 (Kcal/Mol)
 Warning -- explicit consideration of   9 degrees of freedom as
           vibrations may cause significant error
 Vibrational temperatures:     47.39    68.92   102.28   228.64   435.50
          (Kelvin)            451.06   558.41   597.92   719.12   941.10
                              952.10  1040.91  1193.18  1280.69  1282.54
                             1335.28  1363.71  1410.22  1423.11  1465.35
                             1497.81  1519.07  1577.49  1601.66  1656.52
                             1668.14  1676.36  1716.85  1776.57  1794.55
                             1815.78  1823.42  1877.84  1889.54  1984.59
                             2032.96  2051.22  2082.11  2177.13  2213.91
                             2729.08  4314.09  4329.74  4371.77  4379.37
                             4384.74  4387.05  4390.04  4413.33  4476.81
                             4477.67

 Zero-point correction=                           0.158316 (Hartree/Particle)
 Thermal correction to Energy=                    0.166993
 Thermal correction to Enthalpy=                  0.167937
 Thermal correction to Gibbs Free Energy=         0.122939
 Sum of electronic and zero-point Energies=           -423.008232
 Sum of electronic and thermal Energies=              -422.999556
 Sum of electronic and thermal Enthalpies=            -422.998611
 Sum of electronic and thermal Free Energies=         -423.043609

                     E (Thermal)             CV                S
                      KCal/Mol        Cal/Mol-Kelvin    Cal/Mol-Kelvin
 Total                  104.789             31.220             94.706
 Electronic               0.000              0.000              0.000
 Translational            0.889              2.981             40.409
 Rotational               0.889              2.981             29.004
 Vibrational            103.012             25.259             25.294
 Vibration     1          0.594              1.983              5.644
 Vibration     2          0.595              1.978              4.902
 Vibration     3          0.598              1.968              4.123
 Vibration     4          0.621              1.893              2.563
 Vibration     5          0.694              1.669              1.402
 Vibration     6          0.701              1.648              1.344
 Vibration     7          0.756              1.496              1.007
 Vibration     8          0.779              1.436              0.907
 Vibration     9          0.855              1.250              0.659

 Optimization completed on the basis of negligible forces.
    -- Stationary point found.
 Normal termination of Gaussian 09 at Mon Jan 27 13:36:41 2020.
