 Gaussian 09, Revision D.01,
 Gaussian 09:  ES64L-G09RevD.01 24-Apr-2013

 -----------------------------
 # b3lyp 6-31G(2df,p) opt Freq
 -----------------------------

 -----
 titel
 -----
 Symbolic Z-matrix:
 Charge =  0 Multiplicity = 1

 SCF Done:  E(RB3LYP) =  -423.203568213     A.U. after   14 cycles
 Optimization completed.
    -- Stationary point found.
 Normal termination of Gaussian 09 at Mon Jan 27 16:14:20 2020.

 ----------------------------------------------------------------------
 #N Geom=AllCheck Guess=TCheck SCRF=Check GenChk RB3LYP/6-31G(2df,p) Fr
 eq
 ----------------------------------------------------------------------

 Structure from the checkpoint file:  "/scratch/puck/g09_e76bb9e4-f623-4e00-aad7-68ceef125f6b/Gau-47084.chk"
 -----
 titel
 -----
 Charge =  0 Multiplicity = 1

                         Standard orientation:
 ---------------------------------------------------------------------
 Center     Atomic      Atomic             Coordinates (Angstroms)
 Number     Number       Type             X           Y           Z
 ---------------------------------------------------------------------
      1          6           0       -1.742668   -1.291258    0.847396
      2          6           0       -1.279846   -0.086158    0.019034
      3          6           0       -2.391443    0.392573   -0.925142
      4          8           0       -0.139629   -0.490821   -0.780072
      5          6           0        0.995745    0.309470   -0.502122
      6          6           0        2.142457   -0.567053    0.008118
      7          8           0        3.302221   -0.258837   -0.051048
      8          6           0        0.545581    1.271160    0.571202
      9          6           0       -0.725409    1.033324    0.868681
     10          1           0       -2.024281   -2.114382    0.184166
     11          1           0       -0.941546   -1.634811    1.506950
     12          1           0       -2.611107   -1.032364    1.461668
     13          1           0       -3.274542    0.709462   -0.360817
     14          1           0       -2.044827    1.235113   -1.529017
     15          1           0       -2.686132   -0.418966   -1.597004
     16          1           0        1.347522    0.827368   -1.407104
     17          1           0        1.790848   -1.519456    0.466070
     18          1           0        1.204924    2.011877    1.003600
     19          1           0       -1.328101    1.561073    1.597455
 ---------------------------------------------------------------------

 SCF Done:  E(RB3LYP) =  -423.203568213     A.U. after    1 cycles

 The electronic state is 1-A.
 Alpha  occ. eigenvalues --  -19.14585 -19.14356 -10.27051 -10.25146 -10.24563
 Alpha  occ. eigenvalues --  -10.20124 -10.19778 -10.18166 -10.18072  -1.05464
 Alpha  occ. eigenvalues --   -1.04193  -0.80867  -0.79403  -0.70249  -0.69611
 Alpha  occ. eigenvalues --   -0.60598  -0.57173  -0.56519  -0.51633  -0.46966
 Alpha  occ. eigenvalues --   -0.46655  -0.44158  -0.43546  -0.42402  -0.41542
 Alpha  occ. eigenvalues --   -0.39532  -0.38821  -0.37572  -0.36128  -0.34512
 Alpha  occ. eigenvalues --   -0.32934  -0.28672  -0.27698  -0.23560
 Alpha virt. eigenvalues --   -0.03278   0.01368   0.08260   0.10411   0.12031
 Alpha virt. eigenvalues --    0.13156   0.14030   0.15532   0.16006   0.16841
 Alpha virt. eigenvalues --    0.17661   0.18606   0.19587   0.20275   0.20309

 Mulliken charges:
               1
     1  C   -0.405504
     2  C    0.322154
     3  C   -0.407172
     4  O   -0.307821
     5  C   -0.023796
     6  C    0.136813
     7  O   -0.241490
     8  C   -0.116866
     9  C   -0.109889
    10  H    0.127151
    11  H    0.118051
    12  H    0.114381
    13  H    0.113368
    14  H    0.121929
    15  H    0.126343
    16  H    0.108563
    17  H    0.085985
    18  H    0.125998
    19  H    0.111805
 Sum of Mulliken charges =   0.00000

 Dipole moment (field-independent basis, Debye):
    X=             -2.9488    Y=              0.8434    Z=              0.9960  Tot=              3.2247
 Quadrupole moment (field-independent basis, Debye-Ang):
   XX=            -61.5440   YY=            -51.5904   ZZ=            -52.7268
   XY=              0.6250   XZ=             -0.8121   YZ=              0.2023

  Exact polarizability: 102.075   3.816  69.691  -3.689  -0.121  63.583
 Approx polarizability: 148.575   8.260 101.135 -10.459   1.987  95.569

                      1                      2                      3
                      A                      A                      A
 Frequencies --     57.5958                68.9686               165.9938
 Red. masses --      4.6920                 3.9243                 2.6064
 Frc consts  --      0.0092                 0.0110                 0.0423
 IR Inten    --      1.1485                 7.3392                 1.0755

                      4                      5                      6
                      A                      A                      A
 Frequencies --    200.2361               240.8284               265.8396
 Red. masses --      1.0288                 1.1745                 2.4436
 Frc consts  --      0.0243                 0.0401                 0.1017
 IR Inten    --      0.0712                 1.4742                 5.5725

                      7                      8                      9
                      A                      A                      A
 Frequencies --    301.7672               327.5887               371.9367
 Red. masses --      2.7469                 2.5721                 2.5747
 Frc consts  --      0.1474                 0.1626                 0.2098
 IR Inten    --      1.3834                 0.4901                 2.8630

                     10                     11                     12
                      A                      A                      A
 Frequencies --    443.2015               470.7487               552.4389
 Red. masses --      3.4880                 4.3860                 2.8169
 Frc consts  --      0.4037                 0.5727                 0.5065
 IR Inten    --     17.3831                 0.3270                 6.2959

                     13                     14                     15
                      A                      A                      A
 Frequencies --    643.7128               765.4185               786.3424
 Red. masses --      4.1307                 1.3786                 5.6982
 Frc consts  --      1.0085                 0.4759                 2.0759
 IR Inten    --      0.8509                43.1283                 7.5070

                     16                     17                     18
                      A                      A                      A
 Frequencies --    838.1055               875.3770               896.3604
 Red. masses --      5.1465                 2.1409                 2.4870
 Frc consts  --      2.1299                 0.9666                 1.1773
 IR Inten    --     12.3488                10.0739                 1.3820

                     19                     20                     21
                      A                      A                      A
 Frequencies --    924.8649               960.9776               965.1725
 Red. masses --      1.5083                 1.2673                 1.9259
 Frc consts  --      0.7602                 0.6895                 1.0571
 IR Inten    --      0.2029                 0.2516                 1.0390

                     22                     23                     24
                      A                      A                      A
 Frequencies --   1010.7447              1037.3118              1064.8801
 Red. masses --      1.3314                 1.8308                 3.3361
 Frc consts  --      0.8014                 1.1607                 2.2289
 IR Inten    --      0.6405                 5.5887                18.7013

                     25                     26                     27
                      A                      A                      A
 Frequencies --   1078.3145              1123.9195              1191.0000
 Red. masses --      1.7868                 2.3998                 2.2076
 Frc consts  --      1.2241                 1.7860                 1.8450
 IR Inten    --     51.7438                77.4404                25.3478

                     28                     29                     30
                      A                      A                      A
 Frequencies --   1200.1179              1239.6044              1279.6705
 Red. masses --      2.7489                 1.6966                 1.8974
 Frc consts  --      2.3327                 1.5361                 1.8306
 IR Inten    --     19.2362                19.1692                 5.5843

                     31                     32                     33
                      A                      A                      A
 Frequencies --   1307.4056              1351.0778              1385.9629
 Red. masses --      1.2914                 1.9390                 1.2277
 Frc consts  --      1.3006                 2.0854                 1.3895
 IR Inten    --      6.7439                 8.9154                 4.9492

                     34                     35                     36
                      A                      A                      A
 Frequencies --   1392.7218              1412.3085              1475.5372
 Red. masses --      1.2565                 1.2332                 1.0484
 Frc consts  --      1.4360                 1.4493                 1.3449
 IR Inten    --      7.1357                 3.0723                 1.5954

                     37                     38                     39
                      A                      A                      A
 Frequencies --   1479.5546              1494.3363              1503.7705
 Red. masses --      1.0461                 1.0643                 1.0583
 Frc consts  --      1.3492                 1.4003                 1.4100
 IR Inten    --      0.5268                 0.5230                 5.8588

                     40                     41                     42
                      A                      A                      A
 Frequencies --   1684.0459              1836.6136              2881.5844
 Red. masses --      7.0171                10.8563                 1.0846
 Frc consts  --     11.7251                21.5758                 5.3061
 IR Inten    --      1.3084               198.0639                81.3874

                     43                     44                     45
                      A                      A                      A
 Frequencies --   2995.2089              3036.7778              3041.6110
 Red. masses --      1.0831                 1.0343                 1.0348
 Frc consts  --      5.7248                 5.6200                 5.6404
 IR Inten    --     39.0775                15.9589                16.8723

                     46                     47                     48
                      A                      A                      A
 Frequencies --   3109.1904              3115.5144              3121.3046
 Red. masses --      1.1013                 1.1011                 1.1029
 Frc consts  --      6.2726                 6.2971                 6.3309
 IR Inten    --      1.1958                33.0586                15.2433

                     49                     50                     51
                      A                      A                      A
 Frequencies --   3123.7845              3208.7600              3236.3972
 Red. masses --      1.1026                 1.0865                 1.1056
 Frc consts  --      6.3389                 6.5910                 6.8231
 IR Inten    --     27.8825                 1.0830                 4.5740

 - Thermochemistry -
 -------------------
 Temperature   298.150 Kelvin.  Pressure   1.00000 Atm.
 Atom     1 has atomic number  6 and mass  12.00000

 Molecular mass:   126.06808 amu.
 Principal axes and moments of inertia in atomic units:
                           1         2         3
     Eigenvalues --   514.496131705.392991794.40172
           X            0.99994   0.01086   0.00122
           Y           -0.01062   0.99172  -0.12802
           Z           -0.00260   0.12799   0.99177
 This molecule is an asymmetric top.
 Rotational symmetry number  1.
 Warning -- assumption of classical behavior for rotation
           may cause significant error
 Rotational temperatures (Kelvin)      0.16835     0.05079     0.04827
 Rotational constants (GHZ):           3.50778     1.05826     1.00576
 Zero-point vibrational energy     409975.2 (Joules/Mol)
                                   97.98643 (Kcal/Mol)
 Warning -- explicit consideration of  12 degrees of freedom as
           vibrations may cause significant error
 Vibrational temperatures:     82.87    99.23   238.83   288.09   346.50
          (Kelvin)            382.48   434.18   471.33   535.13   637.67
                              677.30   794.84   926.16  1101.27  1131.37
                             1205.85  1259.47  1289.66  1330.67  1382.63
                             1388.67  1454.23  1492.46  1532.12  1551.45
                             1617.07  1713.58  1726.70  1783.51  1841.16
                             1881.06  1943.90  1994.09  2003.81  2031.99
                             2122.97  2128.75  2150.01  2163.59  2422.96
                             2642.47  4145.95  4309.43  4369.24  4376.19
                             4473.43  4482.52  4490.86  4494.42  4616.68
                             4656.45

 Zero-point correction=                           0.156151 (Hartree/Particle)
 Thermal correction to Energy=                    0.165484
 Thermal correction to Enthalpy=                  0.166428
 Thermal correction to Gibbs Free Energy=         0.121681
 Sum of electronic and zero-point Energies=           -423.047417
 Sum of electronic and thermal Energies=              -423.038084
 Sum of electronic and thermal Enthalpies=            -423.037140
 Sum of electronic and thermal Free Energies=         -423.081887

                     E (Thermal)             CV                S
                      KCal/Mol        Cal/Mol-Kelvin    Cal/Mol-Kelvin
 Total                  103.843             34.341             94.177
 Electronic               0.000              0.000              0.000
 Translational            0.889              2.981             40.409
 Rotational               0.889              2.981             28.845
 Vibrational            102.065             28.379             24.924
 Vibration     1          0.596              1.974              4.538
 Vibration     2          0.598              1.969              4.183
 Vibration     3          0.624              1.884              2.480
 Vibration     4          0.638              1.840              2.131
 Vibration     5          0.658              1.778              1.797
 Vibration     6          0.672              1.736              1.623
 Vibration     7          0.694              1.670              1.407
 Vibration     8          0.711              1.620              1.272
 Vibration     9          0.744              1.530              1.072
 Vibration    10          0.803              1.376              0.817
 Vibration    11          0.828              1.315              0.735
 Vibration    12          0.908              1.134              0.539

 Normal termination of Gaussian 09 at Mon Jan 27 16:55:45 2020.
 Normal termination of Gaussian 09 at Mon Jan 27 16:05:29 2020.
