 Gaussian 09, Revision D.01,
 Gaussian 09:  ES64L-G09RevD.01 24-Apr-2013

 -----------------------------
 # b3lyp 6-31G(2df,p) opt Freq
 -----------------------------

 -----
 titel
 -----
 Symbolic Z-matrix:
 Charge =  0 Multiplicity = 1

 SCF Done:  E(RB3LYP) =  -423.163580892     A.U. after   14 cycles
 Optimization completed.
    -- Stationary point found.
 Normal termination of Gaussian 09 at Mon Jan 27 16:24:05 2020.

 ----------------------------------------------------------------------
 #N Geom=AllCheck Guess=TCheck SCRF=Check GenChk RB3LYP/6-31G(2df,p) Fr
 eq
 ----------------------------------------------------------------------

 Structure from the checkpoint file:  "/scratch/puck/g09_3074b2bb-34f4-4e6d-b2fc-66b95be202f2/Gau-69764.chk"
 -----
 titel
 -----
 Charge =  0 Multiplicity = 1

                         Standard orientation:
 ---------------------------------------------------------------------
 Center     Atomic      Atomic             Coordinates (Angstroms)
 Number     Number       Type             X           Y           Z
 ---------------------------------------------------------------------
      1          6           0        1.294417    1.776895   -0.006161
      2          6           0        1.169357    0.264412   -0.000415
      3          6           0        2.260309   -0.549835   -0.695845
      4          6           0        2.197314   -0.539631    0.792234
      5          6           0       -0.188372   -0.373042   -0.055793
      6          8           0       -0.334174   -1.577306   -0.012144
      7          6           0       -1.404295    0.523688   -0.141140
      8          6           0       -2.578125    0.181945    0.693542
      9          8           0       -2.572373   -0.077292   -0.696071
     10          1           0        2.345443    2.066143    0.084636
     11          1           0        0.917067    2.218865   -0.934843
     12          1           0        0.758183    2.236955    0.831229
     13          1           0        1.932500   -1.448952   -1.203563
     14          1           0        3.040808    0.015723   -1.193127
     15          1           0        1.827690   -1.433303    1.280609
     16          1           0        2.935579    0.030932    1.345013
     17          1           0       -1.257433    1.563004   -0.421333
     18          1           0       -2.512998   -0.699587    1.328233
     19          1           0       -3.238093    0.980420    1.030338
 ---------------------------------------------------------------------

 SCF Done:  E(RB3LYP) =  -423.163580892     A.U. after    1 cycles

 The electronic state is 1-A.
 Alpha  occ. eigenvalues --  -19.16238 -19.12607 -10.26930 -10.24616 -10.24554
 Alpha  occ. eigenvalues --  -10.21144 -10.19701 -10.19628 -10.19381  -1.08759
 Alpha  occ. eigenvalues --   -1.03493  -0.87366  -0.74194  -0.70053  -0.66112
 Alpha  occ. eigenvalues --   -0.61059  -0.60939  -0.54271  -0.51771  -0.49365
 Alpha  occ. eigenvalues --   -0.46521  -0.45514  -0.43076  -0.41497  -0.40576
 Alpha  occ. eigenvalues --   -0.40208  -0.39472  -0.37977  -0.36334  -0.31441
 Alpha  occ. eigenvalues --   -0.31076  -0.28640  -0.27905  -0.24737
 Alpha virt. eigenvalues --   -0.03083   0.08460   0.10180   0.11287   0.11402
 Alpha virt. eigenvalues --    0.12561   0.13084   0.14084   0.14859   0.15441
 Alpha virt. eigenvalues --    0.17129   0.18513   0.19345   0.19955   0.22371

 Mulliken charges:
               1
     1  C   -0.491523
     2  C    0.227953
     3  C   -0.272634
     4  C   -0.275075
     5  C    0.309601
     6  O   -0.334538
     7  C   -0.040797
     8  C   -0.158457
     9  O   -0.205513
    10  H    0.119644
    11  H    0.128164
    12  H    0.124009
    13  H    0.140951
    14  H    0.116126
    15  H    0.138900
    16  H    0.114743
    17  H    0.103243
    18  H    0.135386
    19  H    0.119818
 Sum of Mulliken charges =   0.00000

 Dipole moment (field-independent basis, Debye):
    X=              1.5551    Y=              2.9498    Z=              1.3536  Tot=              3.5989
 Quadrupole moment (field-independent basis, Debye-Ang):
   XX=            -51.9218   YY=            -55.4485   ZZ=            -52.3952
   XY=             -1.7824   XZ=             -4.6947   YZ=             -0.5874

  Exact polarizability:  95.194  -1.840  73.858  -4.696  -1.059  63.212
 Approx polarizability: 124.107   0.900 114.037  -3.876  -0.885  99.971

                      1                      2                      3
                      A                      A                      A
 Frequencies --     37.0686                43.5913               192.7045
 Red. masses --      3.4454                 4.1143                 4.0122
 Frc consts  --      0.0028                 0.0046                 0.0878
 IR Inten    --      2.2591                 2.5204                 0.4372

                      4                      5                      6
                      A                      A                      A
 Frequencies --    245.0753               262.4825               295.0507
 Red. masses --      1.7501                 1.5738                 3.0573
 Frc consts  --      0.0619                 0.0639                 0.1568
 IR Inten    --      2.3888                 2.2485                 1.2228

                      7                      8                      9
                      A                      A                      A
 Frequencies --    312.6147               323.2224               357.9284
 Red. masses --      4.8898                 2.6846                 2.4705
 Frc consts  --      0.2816                 0.1652                 0.1865
 IR Inten    --      2.6140                 2.3481                 0.4517

                     10                     11                     12
                      A                      A                      A
 Frequencies --    404.3819               564.8422               743.4689
 Red. masses --      3.7303                 3.9903                 2.8182
 Frc consts  --      0.3594                 0.7501                 0.9178
 IR Inten    --      1.7099                 9.1302                 0.7436

                     13                     14                     15
                      A                      A                      A
 Frequencies --    756.9630               794.6303               827.5044
 Red. masses --      5.6807                 1.0773                 3.4233
 Frc consts  --      1.9178                 0.4008                 1.3811
 IR Inten    --     11.6453                 0.0820                 0.7726

                     16                     17                     18
                      A                      A                      A
 Frequencies --    830.2875               878.7865               909.2545
 Red. masses --      2.8580                 5.9388                 3.4081
 Frc consts  --      1.1608                 2.7022                 1.6601
 IR Inten    --     14.4564                27.7006                14.5227

                     19                     20                     21
                      A                      A                      A
 Frequencies --    959.2150               961.6342              1008.4925
 Red. masses --      1.3468                 1.4256                 1.8903
 Frc consts  --      0.7301                 0.7767                 1.1327
 IR Inten    --      6.2068                 4.0961                68.0457

                     22                     23                     24
                      A                      A                      A
 Frequencies --   1041.9402              1079.4226              1087.6220
 Red. masses --      1.5143                 1.8125                 1.6237
 Frc consts  --      0.9686                 1.2443                 1.1317
 IR Inten    --     29.4676                 6.5493                65.7256

                     25                     26                     27
                      A                      A                      A
 Frequencies --   1092.1093              1099.4371              1119.5995
 Red. masses --      1.3322                 1.3729                 1.5514
 Frc consts  --      0.9361                 0.9777                 1.1458
 IR Inten    --      0.6384                27.0607                 2.4623

                     28                     29                     30
                      A                      A                      A
 Frequencies --   1162.1384              1170.8991              1206.0727
 Red. masses --      1.3498                 1.3347                 1.2973
 Frc consts  --      1.0741                 1.0781                 1.1118
 IR Inten    --      2.8992                 4.4405                 0.0813

                     31                     32                     33
                      A                      A                      A
 Frequencies --   1283.2626              1312.7447              1322.2922
 Red. masses --      1.8559                 3.0247                 3.1274
 Frc consts  --      1.8007                 3.0710                 3.2217
 IR Inten    --     12.3636                 2.2918                46.3002

                     34                     35                     36
                      A                      A                      A
 Frequencies --   1417.0038              1423.5410              1451.2732
 Red. masses --      1.9669                 1.2749                 1.0872
 Frc consts  --      2.3268                 1.5222                 1.3491
 IR Inten    --     48.7302                 4.4071                 4.6096

                     37                     38                     39
                      A                      A                      A
 Frequencies --   1482.8389              1497.5965              1504.8769
 Red. masses --      1.3191                 1.0440                 1.0834
 Frc consts  --      1.7088                 1.3795                 1.4456
 IR Inten    --      4.5126                 3.5564                19.5328

                     40                     41                     42
                      A                      A                      A
 Frequencies --   1505.4594              1775.1222              3028.2756
 Red. masses --      1.2156                11.4436                 1.0366
 Frc consts  --      1.6233                21.2457                 5.6010
 IR Inten    --      5.1710                85.5106                24.1638

                     43                     44                     45
                      A                      A                      A
 Frequencies --   3085.7075              3089.6774              3103.7288
 Red. masses --      1.0492                 1.1015                 1.0997
 Frc consts  --      5.8859                 6.1952                 6.2413
 IR Inten    --     26.3562                21.3687                20.1110

                     46                     47                     48
                      A                      A                      A
 Frequencies --   3138.2283              3140.1611              3153.8318
 Red. masses --      1.0502                 1.0582                 1.0889
 Frc consts  --      6.0936                 6.1479                 6.3814
 IR Inten    --     13.4114                11.8817                13.0389

                     49                     50                     51
                      A                      A                      A
 Frequencies --   3185.5440              3229.0635              3242.3694
 Red. masses --      1.1194                 1.1180                 1.1167
 Frc consts  --      6.6930                 6.8681                 6.9166
 IR Inten    --     16.6832                 0.0748                 4.0502

 - Thermochemistry -
 -------------------
 Temperature   298.150 Kelvin.  Pressure   1.00000 Atm.
 Atom     1 has atomic number  6 and mass  12.00000

 Molecular mass:   126.06808 amu.
 Principal axes and moments of inertia in atomic units:
                           1         2         3
     Eigenvalues --   540.237121626.975281895.81482
           X            0.99989   0.00054  -0.01494
           Y           -0.00066   0.99997  -0.00785
           Z            0.01494   0.00786   0.99986
 This molecule is an asymmetric top.
 Rotational symmetry number  1.
 Warning -- assumption of classical behavior for rotation
           may cause significant error
 Rotational temperatures (Kelvin)      0.16033     0.05324     0.04569
 Rotational constants (GHZ):           3.34065     1.10926     0.95196
 Zero-point vibrational energy     413555.2 (Joules/Mol)
                                   98.84208 (Kcal/Mol)
 Warning -- explicit consideration of  11 degrees of freedom as
           vibrations may cause significant error
 Vibrational temperatures:     53.33    62.72   277.26   352.61   377.65
          (Kelvin)            424.51   449.78   465.04   514.98   581.81
                              812.68  1069.68  1089.10  1143.29  1190.59
                             1194.60  1264.38  1308.21  1380.09  1383.58
                             1450.99  1499.12  1553.05  1564.84  1571.30
                             1581.84  1610.85  1672.06  1684.66  1735.27
                             1846.33  1888.74  1902.48  2038.75  2048.16
                             2088.06  2133.47  2154.70  2165.18  2166.02
                             2554.00  4357.01  4439.64  4445.35  4465.57
                             4515.20  4517.99  4537.65  4583.28  4645.90
                             4665.04

 Zero-point correction=                           0.157515 (Hartree/Particle)
 Thermal correction to Energy=                    0.166582
 Thermal correction to Enthalpy=                  0.167526
 Thermal correction to Gibbs Free Energy=         0.122630
 Sum of electronic and zero-point Energies=           -423.006066
 Sum of electronic and thermal Energies=              -422.996999
 Sum of electronic and thermal Enthalpies=            -422.996055
 Sum of electronic and thermal Free Energies=         -423.040951

                     E (Thermal)             CV                S
                      KCal/Mol        Cal/Mol-Kelvin    Cal/Mol-Kelvin
 Total                  104.532             33.409             94.493
 Electronic               0.000              0.000              0.000
 Translational            0.889              2.981             40.409
 Rotational               0.889              2.981             28.901
 Vibrational            102.754             27.447             25.183
 Vibration     1          0.594              1.982              5.410
 Vibration     2          0.595              1.980              5.089
 Vibration     3          0.635              1.850              2.202
 Vibration     4          0.660              1.771              1.766
 Vibration     5          0.670              1.742              1.645
 Vibration     6          0.689              1.683              1.445
 Vibration     7          0.701              1.650              1.348
 Vibration     8          0.708              1.629              1.294
 Vibration     9          0.733              1.559              1.131
 Vibration    10          0.770              1.461              0.947
 Vibration    11          0.921              1.107              0.514

 Optimization completed.
    -- Stationary point found.
 Normal termination of Gaussian 09 at Mon Jan 27 17:18:20 2020.
