 Gaussian 09, Revision D.01,
 Gaussian 09:  ES64L-G09RevD.01 24-Apr-2013

 -----------------------------
 # b3lyp 6-31G(2df,p) opt Freq
 -----------------------------

 -----
 titel
 -----
 Symbolic Z-matrix:
 Charge =  0 Multiplicity = 1

 SCF Done:  E(RB3LYP) =  -423.129568758     A.U. after   13 cycles
 Optimization completed.
    -- Stationary point found.
 Normal termination of Gaussian 09 at Mon Jan 27 22:05:33 2020.

 ----------------------------------------------------------------------
 #N Geom=AllCheck Guess=TCheck SCRF=Check GenChk RB3LYP/6-31G(2df,p) Fr
 eq
 ----------------------------------------------------------------------

 Structure from the checkpoint file:  "/scratch/puck/g09_00488dd8-2eb3-439b-999c-ec9b43a66131/Gau-111371.chk"
 -----
 titel
 -----
 Charge =  0 Multiplicity = 1

                         Standard orientation:
 ---------------------------------------------------------------------
 Center     Atomic      Atomic             Coordinates (Angstroms)
 Number     Number       Type             X           Y           Z
 ---------------------------------------------------------------------
      1          6           0       -2.652221   -0.636848   -0.014658
      2          6           0       -1.168067   -0.719226   -0.307894
      3          6           0       -0.207190   -0.513377    0.861476
      4          6           0        1.302658   -0.764292    0.712650
      5          6           0        1.557556   -0.935159   -0.800246
      6          6           0        1.112071    0.540045   -0.723787
      7          8           0        1.822565    0.617763    0.568840
      8          6           0       -0.352894    0.536162   -0.235763
      9          8           0       -0.984392    1.762456   -0.079996
     10          1           0       -3.212774   -0.393123   -0.922840
     11          1           0       -3.023634   -1.593867    0.365966
     12          1           0       -2.868239    0.139710    0.722240
     13          1           0       -0.918246   -1.457226   -1.063638
     14          1           0       -0.623341   -0.352847    1.849391
     15          1           0        1.817582   -1.342676    1.478966
     16          1           0        2.624751   -1.002225   -1.009630
     17          1           0        0.999413   -1.665459   -1.386373
     18          1           0        1.403160    1.308233   -1.440006
     19          1           0       -0.455526    2.273897    0.544503
 ---------------------------------------------------------------------

 SCF Done:  E(RB3LYP) =  -423.129568758     A.U. after    1 cycles

 The electronic state is 1-A.
 Alpha  occ. eigenvalues --  -19.14661 -19.12922 -10.24304 -10.23917 -10.23542
 Alpha  occ. eigenvalues --  -10.19958 -10.19067 -10.18422 -10.17667  -1.05001
 Alpha  occ. eigenvalues --   -1.02352  -0.86028  -0.74753  -0.70648  -0.69430
 Alpha  occ. eigenvalues --   -0.60410  -0.57225  -0.54934  -0.52806  -0.49071
 Alpha  occ. eigenvalues --   -0.47020  -0.43405  -0.41957  -0.40878  -0.39911
 Alpha  occ. eigenvalues --   -0.37375  -0.37161  -0.36012  -0.34925  -0.32856
 Alpha  occ. eigenvalues --   -0.30696  -0.28551  -0.24609  -0.23753
 Alpha virt. eigenvalues --    0.08079   0.08973   0.09963   0.10717   0.11771
 Alpha virt. eigenvalues --    0.12916   0.13759   0.15572   0.16902   0.17399
 Alpha virt. eigenvalues --    0.18077   0.18477   0.18881   0.21068   0.22495

 Mulliken charges:
               1
     1  C   -0.420258
     2  C   -0.084671
     3  C   -0.149652
     4  C    0.057228
     5  C   -0.245553
     6  C   -0.021998
     7  O   -0.314463
     8  C    0.435888
     9  O   -0.470204
    10  H    0.123539
    11  H    0.115333
    12  H    0.129481
    13  H    0.084023
    14  H    0.093020
    15  H    0.080559
    16  H    0.114693
    17  H    0.102560
    18  H    0.081970
    19  H    0.288504
 Sum of Mulliken charges =   0.00000

 Dipole moment (field-independent basis, Debye):
    X=             -0.0906    Y=             -1.1870    Z=             -0.1069  Tot=              1.1952
 Quadrupole moment (field-independent basis, Debye-Ang):
   XX=            -56.2810   YY=            -51.8166   ZZ=            -51.1970
   XY=             -0.1799   XZ=             -2.4574   YZ=              1.0493

  Exact polarizability:  84.454   0.723  71.034  -0.214  -0.625  66.873
 Approx polarizability: 111.674   2.633 111.019   4.697  -1.847 106.808

                      1                      2                      3
                      A                      A                      A
 Frequencies --    176.3370               199.1263               229.5843
 Red. masses --      1.0730                 3.8401                 3.4741
 Frc consts  --      0.0197                 0.0897                 0.1079
 IR Inten    --      0.2977                 3.9876                 2.3447

                      4                      5                      6
                      A                      A                      A
 Frequencies --    233.0513               343.8181               386.7955
 Red. masses --      2.8298                 2.8882                 1.4924
 Frc consts  --      0.0906                 0.2012                 0.1316
 IR Inten    --      1.6548                 4.5478                41.4697

                      7                      8                      9
                      A                      A                      A
 Frequencies --    428.4356               463.2355               523.4777
 Red. masses --      2.1266                 3.1864                 2.6628
 Frc consts  --      0.2300                 0.4029                 0.4299
 IR Inten    --     41.2754                 6.4262                 3.1151

                     10                     11                     12
                      A                      A                      A
 Frequencies --    612.9541               642.0030               708.9014
 Red. masses --      3.7356                 4.8454                 3.2437
 Frc consts  --      0.8269                 1.1767                 0.9604
 IR Inten    --     12.4074                 5.5951                 6.8242

                     13                     14                     15
                      A                      A                      A
 Frequencies --    775.7556               828.6459               847.4002
 Red. masses --      3.8798                 3.9227                 3.5229
 Frc consts  --      1.3756                 1.5870                 1.4905
 IR Inten    --     19.1271                19.7730                16.1216

                     16                     17                     18
                      A                      A                      A
 Frequencies --    879.4816               909.3176               929.6735
 Red. masses --      2.6397                 2.8049                 1.9294
 Frc consts  --      1.2030                 1.3665                 0.9825
 IR Inten    --     21.2115                29.6775                 5.6652

                     19                     20                     21
                      A                      A                      A
 Frequencies --    960.5401               987.9551              1001.5668
 Red. masses --      2.0500                 2.1060                 1.7106
 Frc consts  --      1.1144                 1.2111                 1.0110
 IR Inten    --     10.8561                12.0374                 1.1524

                     22                     23                     24
                      A                      A                      A
 Frequencies --   1022.4332              1038.0513              1053.0606
 Red. masses --      1.3643                 1.9884                 1.4967
 Frc consts  --      0.8403                 1.2624                 0.9779
 IR Inten    --      2.5188                 2.2155                15.7465

                     25                     26                     27
                      A                      A                      A
 Frequencies --   1103.8154              1132.5125              1140.3938
 Red. masses --      1.8191                 2.2709                 1.5802
 Frc consts  --      1.3059                 1.7161                 1.2108
 IR Inten    --      3.9324                 1.8970                 0.9836

                     28                     29                     30
                      A                      A                      A
 Frequencies --   1179.0940              1194.8227              1224.2253
 Red. masses --      1.4749                 1.7159                 1.5339
 Frc consts  --      1.2081                 1.4433                 1.3545
 IR Inten    --      5.1284                 0.0786                24.6933

                     31                     32                     33
                      A                      A                      A
 Frequencies --   1248.5162              1268.7768              1285.6920
 Red. masses --      1.6468                 1.5072                 1.5027
 Frc consts  --      1.5125                 1.4295                 1.4636
 IR Inten    --     55.6993                 3.7121                23.2721

                     34                     35                     36
                      A                      A                      A
 Frequencies --   1297.7347              1328.8615              1356.9174
 Red. masses --      1.7065                 1.6377                 1.6433
 Frc consts  --      1.6933                 1.7039                 1.7826
 IR Inten    --     32.8294                59.1148                 9.8241

                     37                     38                     39
                      A                      A                      A
 Frequencies --   1414.2634              1455.5041              1490.5248
 Red. masses --      1.2832                 2.4060                 1.0582
 Frc consts  --      1.5122                 3.0032                 1.3852
 IR Inten    --      0.6028                 3.0748                 1.9027

                     40                     41                     42
                      A                      A                      A
 Frequencies --   1501.0973              1506.4846              3039.8848
 Red. masses --      1.1246                 1.1164                 1.0366
 Frc consts  --      1.4930                 1.4927                 5.6439
 IR Inten    --      3.0323                 9.0467                32.8631

                     43                     44                     45
                      A                      A                      A
 Frequencies --   3088.1655              3100.4685              3125.5089
 Red. masses --      1.0582                 1.1014                 1.0971
 Frc consts  --      5.9460                 6.2383                 6.3147
 IR Inten    --     24.6266                20.4482                 3.4812

                     46                     47                     48
                      A                      A                      A
 Frequencies --   3126.7789              3129.2319              3148.1206
 Red. masses --      1.0887                 1.0941                 1.0994
 Frc consts  --      6.2715                 6.3125                 6.4195
 IR Inten    --     67.3142                 8.9641                17.6661

                     49                     50                     51
                      A                      A                      A
 Frequencies --   3156.1601              3182.3701              3780.0746
 Red. masses --      1.0978                 1.0907                 1.0657
 Frc consts  --      6.4430                 6.5083                 8.9720
 IR Inten    --     35.7543                 9.9471                24.3853

 - Thermochemistry -
 -------------------
 Temperature   298.150 Kelvin.  Pressure   1.00000 Atm.
 Atom     1 has atomic number  6 and mass  12.00000

 Molecular mass:   126.06808 amu.
 Principal axes and moments of inertia in atomic units:
                           1         2         3
     Eigenvalues --   576.887181170.997161393.54730
           X            0.99981   0.00912  -0.01708
           Y           -0.00872   0.99969   0.02342
           Z            0.01729  -0.02327   0.99958
 This molecule is an asymmetric top.
 Rotational symmetry number  1.
 Warning -- assumption of classical behavior for rotation
           may cause significant error
 Rotational temperatures (Kelvin)      0.15014     0.07397     0.06215
 Rotational constants (GHZ):           3.12841     1.54120     1.29507
 Zero-point vibrational energy     419815.1 (Joules/Mol)
                                  100.33821 (Kcal/Mol)
 Warning -- explicit consideration of  10 degrees of freedom as
           vibrations may cause significant error
 Vibrational temperatures:    253.71   286.50   330.32   335.31   494.68
          (Kelvin)            556.51   616.42   666.49   753.17   881.90
                              923.70  1019.95  1116.14  1192.24  1219.22
                             1265.38  1308.30  1337.59  1382.00  1421.45
                             1441.03  1471.05  1493.52  1515.12  1588.14
                             1629.43  1640.77  1696.45  1719.08  1761.38
                             1796.33  1825.48  1849.82  1867.15  1911.93
                             1952.30  2034.81  2094.14  2144.53  2159.74
                             2167.49  4373.71  4443.18  4460.88  4496.90
                             4498.73  4502.26  4529.44  4541.00  4578.72
                             5438.68

 Zero-point correction=                           0.159899 (Hartree/Particle)
 Thermal correction to Energy=                    0.167562
 Thermal correction to Enthalpy=                  0.168506
 Thermal correction to Gibbs Free Energy=         0.128315
 Sum of electronic and zero-point Energies=           -422.969670
 Sum of electronic and thermal Energies=              -422.962007
 Sum of electronic and thermal Enthalpies=            -422.961063
 Sum of electronic and thermal Free Energies=         -423.001253

                     E (Thermal)             CV                S
                      KCal/Mol        Cal/Mol-Kelvin    Cal/Mol-Kelvin
 Total                  105.147             31.306             84.588
 Electronic               0.000              0.000              0.000
 Translational            0.889              2.981             40.409
 Rotational               0.889              2.981             28.334
 Vibrational            103.369             25.344             15.846
 Vibration     1          0.628              1.872              2.367
 Vibration     2          0.637              1.841              2.141
 Vibration     3          0.652              1.796              1.882
 Vibration     4          0.654              1.790              1.855
 Vibration     5          0.723              1.588              1.194
 Vibration     6          0.755              1.498              1.012
 Vibration     7          0.790              1.408              0.864
 Vibration     8          0.821              1.332              0.757
 Vibration     9          0.878              1.198              0.602
 Vibration    10          0.972              1.004              0.428

 Optimization completed.
    -- Stationary point found.
 Normal termination of Gaussian 09 at Mon Jan 27 23:02:58 2020.
