 Gaussian 09, Revision D.01,
 Gaussian 09:  ES64L-G09RevD.01 24-Apr-2013

 -----------------------------
 # b3lyp 6-31G(2df,p) opt Freq
 -----------------------------

 -----
 titel
 -----
 Symbolic Z-matrix:
 Charge =  0 Multiplicity = 1

 SCF Done:  E(RB3LYP) =  -423.131170126     A.U. after   14 cycles
 SCF Done:  E(RB3LYP) =  -423.131170332     A.U. after    7 cycles
 SCF Done:  E(RB3LYP) =  -423.131170117     A.U. after    7 cycles
 SCF Done:  E(RB3LYP) =  -423.131169991     A.U. after    7 cycles
 Optimization completed.
    -- Stationary point found.
 Normal termination of Gaussian 09 at Tue Jan 28 09:30:07 2020.

 ----------------------------------------------------------------------
 #N Geom=AllCheck Guess=TCheck SCRF=Check GenChk RB3LYP/6-31G(2df,p) Fr
 eq
 ----------------------------------------------------------------------

 Structure from the checkpoint file:  "/scratch/puck/g09_7dbc3bb3-9748-43ba-ab5a-de41506c6b7f/Gau-107401.chk"
 -----
 titel
 -----
 Charge =  0 Multiplicity = 1

                         Standard orientation:
 ---------------------------------------------------------------------
 Center     Atomic      Atomic             Coordinates (Angstroms)
 Number     Number       Type             X           Y           Z
 ---------------------------------------------------------------------
      1          6           0        3.032581   -0.792551   -0.027537
      2          6           0        2.277432    0.539976    0.023210
      3          6           0        0.789899    0.368349    0.098070
      4          6           0       -0.333192    1.438199    0.030011
      5          6           0       -0.962079    0.019193   -0.090294
      6          6           0       -0.080992   -0.457742    1.088646
      7          8           0        0.113015   -0.349276   -1.031674
      8          6           0       -2.365636   -0.342343   -0.453220
      9          8           0       -3.280784   -0.322349    0.329458
     10          1           0        2.696710   -1.392792   -0.877337
     11          1           0        4.108481   -0.625162   -0.127950
     12          1           0        2.867101   -1.376766    0.883190
     13          1           0        2.594816    1.130883    0.891630
     14          1           0        2.505620    1.140053   -0.865983
     15          1           0       -0.556158    2.018319    0.927955
     16          1           0       -0.358032    2.027840   -0.887191
     17          1           0       -0.279920   -0.037557    2.076357
     18          1           0        0.113807   -1.530215    1.106013
     19          1           0       -2.498358   -0.620087   -1.522280
 ---------------------------------------------------------------------

 SCF Done:  E(RB3LYP) =  -423.131169991     A.U. after    1 cycles

 The electronic state is 1-A.
 Alpha  occ. eigenvalues --  -19.14834 -19.13789 -10.27795 -10.26138 -10.26065
 Alpha  occ. eigenvalues --  -10.20449 -10.20144 -10.19631 -10.18218  -1.06605
 Alpha  occ. eigenvalues --   -1.05173  -0.80590  -0.78334  -0.70175  -0.69140
 Alpha  occ. eigenvalues --   -0.64563  -0.55115  -0.55071  -0.50105  -0.46824
 Alpha  occ. eigenvalues --   -0.46398  -0.45762  -0.44548  -0.42179  -0.40220
 Alpha  occ. eigenvalues --   -0.39355  -0.37942  -0.35869  -0.35275  -0.33699
 Alpha  occ. eigenvalues --   -0.33209  -0.32461  -0.25592  -0.24710
 Alpha virt. eigenvalues --   -0.03910   0.08514   0.08983   0.11222   0.11856
 Alpha virt. eigenvalues --    0.12854   0.13258   0.14665   0.15285   0.15389
 Alpha virt. eigenvalues --    0.16426   0.17670   0.18009   0.18824   0.20181

 Mulliken charges:
               1
     1  C   -0.383372
     2  C   -0.314701
     3  C    0.420798
     4  C   -0.300012
     5  C    0.315714
     6  C   -0.292702
     7  O   -0.376793
     8  C    0.035703
     9  O   -0.249323
    10  H    0.141225
    11  H    0.116563
    12  H    0.120445
    13  H    0.109584
    14  H    0.115370
    15  H    0.109099
    16  H    0.112692
    17  H    0.108744
    18  H    0.114311
    19  H    0.096657
 Sum of Mulliken charges =   0.00000

 Dipole moment (field-independent basis, Debye):
    X=              2.4946    Y=              1.0389    Z=              0.4433  Tot=              2.7385
 Quadrupole moment (field-independent basis, Debye-Ang):
   XX=            -60.3630   YY=            -51.6320   ZZ=            -53.5139
   XY=             -0.2142   XZ=              4.0448   YZ=             -0.3852

  Exact polarizability:  94.013   1.107  68.535  -0.341   0.005  69.698
 Approx polarizability: 122.813   3.331 102.090  -6.124   2.719 113.338

                      1                      2                      3
                      A                      A                      A
 Frequencies --     32.5651                81.0294               135.4929
 Red. masses --      3.6450                 2.6516                 2.5199
 Frc consts  --      0.0023                 0.0103                 0.0273
 IR Inten    --      9.3624                 0.2834                 1.5381

                      4                      5                      6
                      A                      A                      A
 Frequencies --    146.0666               208.3681               251.1568
 Red. masses --      2.7932                 1.4500                 2.4590
 Frc consts  --      0.0351                 0.0371                 0.0914
 IR Inten    --      3.3533                 3.9228                 0.5596

                      7                      8                      9
                      A                      A                      A
 Frequencies --    325.1248               409.0424               454.5005
 Red. masses --      2.4139                 3.0811                 4.8508
 Frc consts  --      0.1503                 0.3037                 0.5904
 IR Inten    --      5.7042                 1.4601                 2.8716

                     10                     11                     12
                      A                      A                      A
 Frequencies --    523.2196               591.3478               632.2588
 Red. masses --      1.9259                 2.8343                 3.3651
 Frc consts  --      0.3106                 0.5840                 0.7926
 IR Inten    --      2.0951                 5.4147                 6.5208

                     13                     14                     15
                      A                      A                      A
 Frequencies --    678.4634               735.8825               772.9118
 Red. masses --      3.6267                 2.9284                 2.4318
 Frc consts  --      0.9836                 0.9343                 0.8559
 IR Inten    --      3.5910                55.0536                10.2616

                     16                     17                     18
                      A                      A                      A
 Frequencies --    807.7531               929.3222               941.8357
 Red. masses --      1.5684                 2.4480                 3.4815
 Frc consts  --      0.6029                 1.2456                 1.8196
 IR Inten    --     15.1848                 0.0401                 1.3177

                     19                     20                     21
                      A                      A                      A
 Frequencies --    974.7090               980.5389               991.2945
 Red. masses --      1.9234                 2.3281                 1.7865
 Frc consts  --      1.0766                 1.3188                 1.0344
 IR Inten    --      2.3639                20.7373                 7.8608

                     22                     23                     24
                      A                      A                      A
 Frequencies --   1040.8326              1075.1916              1094.8861
 Red. masses --      1.5263                 1.5862                 1.6630
 Frc consts  --      0.9742                 1.0804                 1.1746
 IR Inten    --      1.4495                15.3566                 1.0284

                     25                     26                     27
                      A                      A                      A
 Frequencies --   1110.5045              1141.2127              1155.5647
 Red. masses --      1.5766                 1.6638                 1.9265
 Frc consts  --      1.1456                 1.2767                 1.5157
 IR Inten    --      0.3489                 6.2701                11.8138

                     28                     29                     30
                      A                      A                      A
 Frequencies --   1162.6138              1180.4451              1247.4630
 Red. masses --      1.6670                 2.3920                 2.3378
 Frc consts  --      1.3276                 1.9638                 2.1435
 IR Inten    --      2.4380                 3.0015                15.9138

                     31                     32                     33
                      A                      A                      A
 Frequencies --   1298.1645              1338.2204              1393.4010
 Red. masses --      1.2682                 1.7690                 1.8993
 Frc consts  --      1.2592                 1.8665                 2.1727
 IR Inten    --      0.5722                20.1463                 3.7674

                     34                     35                     36
                      A                      A                      A
 Frequencies --   1405.2541              1412.1680              1464.2033
 Red. masses --      1.4336                 1.2779                 1.1220
 Frc consts  --      1.6680                 1.5015                 1.4172
 IR Inten    --     15.9850                 4.9752                 1.3683

                     37                     38                     39
                      A                      A                      A
 Frequencies --   1470.6014              1496.7477              1506.9580
 Red. masses --      1.0779                 1.0388                 1.0628
 Frc consts  --      1.3735                 1.3712                 1.4221
 IR Inten    --      2.3724                 6.0955                 2.6944

                     40                     41                     42
                      A                      A                      A
 Frequencies --   1517.6584              1824.5809              2892.9085
 Red. masses --      1.3872                10.8019                 1.0837
 Frc consts  --      1.8825                21.1874                 5.3433
 IR Inten    --     15.1500               165.1893                92.3985

                     43                     44                     45
                      A                      A                      A
 Frequencies --   3029.3822              3044.2900              3065.4858
 Red. masses --      1.0596                 1.0355                 1.1010
 Frc consts  --      5.7294                 5.6540                 6.0959
 IR Inten    --     17.3963                20.3588                10.1803

                     46                     47                     48
                      A                      A                      A
 Frequencies --   3068.2303              3077.9672              3112.8079
 Red. masses --      1.0550                 1.0555                 1.1015
 Frc consts  --      5.8518                 5.8914                 6.2882
 IR Inten    --     27.7394                16.2293                31.0387

                     49                     50                     51
                      A                      A                      A
 Frequencies --   3124.5152              3152.6857              3159.1828
 Red. masses --      1.1023                 1.1117                 1.1123
 Frc consts  --      6.3404                 6.5102                 6.5405
 IR Inten    --     19.3010                13.5308                23.8581

 - Thermochemistry -
 -------------------
 Temperature   298.150 Kelvin.  Pressure   1.00000 Atm.
 Atom     1 has atomic number  6 and mass  12.00000

 Molecular mass:   126.06808 amu.
 Principal axes and moments of inertia in atomic units:
                           1         2         3
     Eigenvalues --   397.017851900.211091952.08729
           X            0.99991  -0.01115   0.00749
           Y            0.01148   0.99889  -0.04574
           Z           -0.00697   0.04583   0.99893
 This molecule is an asymmetric top.
 Rotational symmetry number  1.
 Rotational temperatures (Kelvin)      0.21816     0.04558     0.04437
 Rotational constants (GHZ):           4.54574     0.94976     0.92452
 Zero-point vibrational energy     410719.9 (Joules/Mol)
                                   98.16442 (Kcal/Mol)
 Warning -- explicit consideration of  11 degrees of freedom as
           vibrations may cause significant error
 Vibrational temperatures:     46.85   116.58   194.94   210.16   299.79
          (Kelvin)            361.36   467.78   588.52   653.92   752.80
                              850.82   909.68   976.16  1058.77  1112.05
                             1162.18  1337.09  1355.09  1402.39  1410.77
                             1426.25  1497.52  1546.96  1575.29  1597.77
                             1641.95  1662.60  1672.74  1698.40  1794.82
                             1867.77  1925.40  2004.79  2021.84  2031.79
                             2106.66  2115.86  2153.48  2168.17  2183.57
                             2625.16  4162.24  4358.60  4380.05  4410.54
                             4414.49  4428.50  4478.63  4495.47  4536.01
                             4545.35

 Zero-point correction=                           0.156435 (Hartree/Particle)
 Thermal correction to Energy=                    0.165595
 Thermal correction to Enthalpy=                  0.166539
 Thermal correction to Gibbs Free Energy=         0.121500
 Sum of electronic and zero-point Energies=           -422.974735
 Sum of electronic and thermal Energies=              -422.965575
 Sum of electronic and thermal Enthalpies=            -422.964631
 Sum of electronic and thermal Free Energies=         -423.009670

                     E (Thermal)             CV                S
                      KCal/Mol        Cal/Mol-Kelvin    Cal/Mol-Kelvin
 Total                  103.913             33.330             94.794
 Electronic               0.000              0.000              0.000
 Translational            0.889              2.981             40.409
 Rotational               0.889              2.981             28.778
 Vibrational            102.135             27.368             25.607
 Vibration     1          0.594              1.983              5.667
 Vibration     2          0.600              1.962              3.866
 Vibration     3          0.613              1.918              2.867
 Vibration     4          0.617              1.907              2.723
 Vibration     5          0.642              1.828              2.058
 Vibration     6          0.663              1.761              1.722
 Vibration     7          0.709              1.625              1.284
 Vibration     8          0.773              1.451              0.930
 Vibration     9          0.813              1.351              0.782
 Vibration    10          0.878              1.199              0.603
 Vibration    11          0.949              1.050              0.465

 Normal termination of Gaussian 09 at Tue Jan 28 10:08:12 2020.
