 Gaussian 09, Revision D.01,
 Gaussian 09:  ES64L-G09RevD.01 24-Apr-2013

 -----------------------------
 # b3lyp 6-31G(2df,p) opt Freq
 -----------------------------

 -----
 titel
 -----
 Symbolic Z-matrix:
 Charge =  0 Multiplicity = 1

 SCF Done:  E(RB3LYP) =  -423.252585160     A.U. after   14 cycles
 Optimization completed.
    -- Stationary point found.
 Normal termination of Gaussian 09 at Tue Jan 28 12:09:11 2020.

 ----------------------------------------------------------------------
 #N Geom=AllCheck Guess=TCheck SCRF=Check GenChk RB3LYP/6-31G(2df,p) Fr
 eq
 ----------------------------------------------------------------------

 Structure from the checkpoint file:  "/scratch/puck/g09_c32cc3ab-8497-4279-a9fe-331799e650fe/Gau-128789.chk"
 -----
 titel
 -----
 Charge =  0 Multiplicity = 1

                         Standard orientation:
 ---------------------------------------------------------------------
 Center     Atomic      Atomic             Coordinates (Angstroms)
 Number     Number       Type             X           Y           Z
 ---------------------------------------------------------------------
      1          6           0        2.857173   -0.663454    0.664946
      2          6           0        1.942816   -0.653205   -0.574610
      3          6           0        0.506151   -0.385570   -0.251130
      4          6           0       -0.554167   -1.179407   -0.423346
      5          6           0       -1.772363   -0.494142    0.055890
      6          8           0       -2.912411   -0.863680    0.079795
      7          8           0       -1.388832    0.744154    0.518781
      8          6           0        0.024127    0.912644    0.363714
      9          6           0        0.302269    2.159219   -0.474749
     10          1           0        2.855150    0.303722    1.176619
     11          1           0        2.535417   -1.424244    1.382153
     12          1           0        3.888043   -0.883567    0.374164
     13          1           0        2.302956    0.111772   -1.275433
     14          1           0        2.017786   -1.612925   -1.095448
     15          1           0       -0.583725   -2.175102   -0.842353
     16          1           0        0.449930    1.045704    1.367999
     17          1           0        1.378419    2.343814   -0.547347
     18          1           0       -0.104224    2.040265   -1.483046
     19          1           0       -0.165845    3.030261   -0.010199
 ---------------------------------------------------------------------

 SCF Done:  E(RB3LYP) =  -423.252585160     A.U. after    1 cycles

 The electronic state is 1-A.
 Alpha  occ. eigenvalues --  -19.17086 -19.11084 -10.29393 -10.25808 -10.22047
 Alpha  occ. eigenvalues --  -10.21225 -10.19821 -10.19684 -10.19588  -1.09023
 Alpha  occ. eigenvalues --   -1.01149  -0.83981  -0.77145  -0.76716  -0.66675
 Alpha  occ. eigenvalues --   -0.64885  -0.58077  -0.55235  -0.51372  -0.47894
 Alpha  occ. eigenvalues --   -0.46065  -0.45768  -0.43086  -0.42251  -0.40787
 Alpha  occ. eigenvalues --   -0.39647  -0.38740  -0.38580  -0.37110  -0.36955
 Alpha  occ. eigenvalues --   -0.33951  -0.29443  -0.27152  -0.26039
 Alpha virt. eigenvalues --   -0.03531   0.06434   0.08540   0.10964   0.11123
 Alpha virt. eigenvalues --    0.11745   0.14051   0.14224   0.15181   0.15459
 Alpha virt. eigenvalues --    0.16725   0.17218   0.19954   0.20941   0.21575

 Mulliken charges:
               1
     1  C   -0.381757
     2  C   -0.298763
     3  C    0.345198
     4  C   -0.393946
     5  C    0.444813
     6  O   -0.353082
     7  O   -0.242789
     8  C    0.024845
     9  C   -0.399853
    10  H    0.125965
    11  H    0.132451
    12  H    0.126079
    13  H    0.120721
    14  H    0.118907
    15  H    0.125500
    16  H    0.108557
    17  H    0.122418
    18  H    0.133534
    19  H    0.141201
 Sum of Mulliken charges =   0.00000

 Dipole moment (field-independent basis, Debye):
    X=              5.3783    Y=              0.6049    Z=             -0.6511  Tot=              5.4512
 Quadrupole moment (field-independent basis, Debye-Ang):
   XX=            -64.2100   YY=            -50.7840   ZZ=            -52.4612
   XY=             -2.2671   XZ=              1.1873   YZ=              0.5051

  Exact polarizability: 100.656   8.952  78.727   0.470   3.936  58.208
 Approx polarizability: 150.738  23.251 115.737   0.574   8.566  88.646

                      1                      2                      3
                      A                      A                      A
 Frequencies --     57.1159               129.6322               138.2526
 Red. masses --      2.5434                 4.6212                 3.1020
 Frc consts  --      0.0049                 0.0458                 0.0349
 IR Inten    --      0.6239                 0.3694                 1.4027

                      4                      5                      6
                      A                      A                      A
 Frequencies --    199.3085               230.6206               249.1022
 Red. masses --      1.4206                 1.2238                 2.4140
 Frc consts  --      0.0332                 0.0383                 0.0883
 IR Inten    --      0.3670                 0.7591                 0.9593

                      7                      8                      9
                      A                      A                      A
 Frequencies --    263.9399               337.0325               437.1698
 Red. masses --      1.6922                 3.1095                 3.5726
 Frc consts  --      0.0695                 0.2081                 0.4023
 IR Inten    --      0.1269                 1.5455                 1.4041

                     10                     11                     12
                      A                      A                      A
 Frequencies --    536.5479               551.3904               633.2240
 Red. masses --      3.7947                 4.5424                 3.2764
 Frc consts  --      0.6436                 0.8137                 0.7740
 IR Inten    --      2.3198                 2.2586                 6.5818

                     13                     14                     15
                      A                      A                      A
 Frequencies --    698.7702               746.3644               788.1208
 Red. masses --      4.5089                 4.0851                 1.4398
 Frc consts  --      1.2971                 1.3408                 0.5269
 IR Inten    --      2.2102                 3.1436                 0.3779

                     16                     17                     18
                      A                      A                      A
 Frequencies --    813.0629               893.0655               895.6189
 Red. masses --      1.8914                 1.7300                 2.8703
 Frc consts  --      0.7367                 0.8129                 1.3565
 IR Inten    --      7.5546                24.2880                18.0629

                     19                     20                     21
                      A                      A                      A
 Frequencies --    948.0790               969.0849              1052.4291
 Red. masses --      2.4927                 2.4412                 1.8093
 Frc consts  --      1.3201                 1.3507                 1.1807
 IR Inten    --     26.4900                26.0062                 8.8742

                     22                     23                     24
                      A                      A                      A
 Frequencies --   1055.2839              1089.4111              1110.8202
 Red. masses --      1.6494                 2.0734                 2.5833
 Frc consts  --      1.0822                 1.4498                 1.8781
 IR Inten    --      9.3993                 7.4600                42.8514

                     25                     26                     27
                      A                      A                      A
 Frequencies --   1121.2738              1172.1605              1184.4379
 Red. masses --      2.4882                 2.3067                 1.6920
 Frc consts  --      1.8431                 1.8673                 1.3986
 IR Inten    --      7.7384                70.3036                 6.2984

                     28                     29                     30
                      A                      A                      A
 Frequencies --   1268.5491              1316.5914              1348.7219
 Red. masses --      1.4545                 1.6890                 1.5363
 Frc consts  --      1.3790                 1.7250                 1.6466
 IR Inten    --      4.8800                34.7275                 1.2615

                     31                     32                     33
                      A                      A                      A
 Frequencies --   1356.6926              1363.3913              1404.3547
 Red. masses --      1.3446                 1.8554                 1.2486
 Frc consts  --      1.4581                 2.0320                 1.4509
 IR Inten    --     11.7755                 2.8793                 3.9234

                     34                     35                     36
                      A                      A                      A
 Frequencies --   1410.5116              1478.6828              1488.5730
 Red. masses --      1.2190                 1.0680                 1.0571
 Frc consts  --      1.4289                 1.3759                 1.3801
 IR Inten    --      0.9548                 6.7577                 1.0584

                     37                     38                     39
                      A                      A                      A
 Frequencies --   1495.3389              1499.1567              1506.8346
 Red. masses --      1.0485                 1.0405                 1.0687
 Frc consts  --      1.3813                 1.3778                 1.4297
 IR Inten    --      1.8773                 5.1929                 2.8591

                     40                     41                     42
                      A                      A                      A
 Frequencies --   1695.5105              1869.6027              3013.6239
 Red. masses --      8.1372                12.6477                 1.0823
 Frc consts  --     13.7824                26.0471                 5.7912
 IR Inten    --     36.6398               498.7903                18.8892

                     43                     44                     45
                      A                      A                      A
 Frequencies --   3022.8563              3043.3202              3045.4671
 Red. masses --      1.0649                 1.0349                 1.0347
 Frc consts  --      5.7332                 5.6474                 5.6541
 IR Inten    --     13.3870                24.1102                14.4211

                     46                     47                     48
                      A                      A                      A
 Frequencies --   3076.2328              3115.5689              3119.3353
 Red. masses --      1.0960                 1.1017                 1.1025
 Frc consts  --      6.1106                 6.3009                 6.3206
 IR Inten    --      8.1160                35.5947                15.5205

                     49                     50                     51
                      A                      A                      A
 Frequencies --   3120.5913              3131.8669              3241.1765
 Red. masses --      1.1017                 1.1029                 1.0974
 Frc consts  --      6.3213                 6.3737                 6.7924
 IR Inten    --     21.8644                12.6802                 1.1494

 - Thermochemistry -
 -------------------
 Temperature   298.150 Kelvin.  Pressure   1.00000 Atm.
 Atom     1 has atomic number  6 and mass  12.00000

 Molecular mass:   126.06808 amu.
 Principal axes and moments of inertia in atomic units:
                           1         2         3
     Eigenvalues --   646.755321528.282711944.47225
           X            0.99978  -0.01829   0.00989
           Y            0.01841   0.99975  -0.01241
           Z           -0.00966   0.01259   0.99987
 This molecule is an asymmetric top.
 Rotational symmetry number  1.
 Warning -- assumption of classical behavior for rotation
           may cause significant error
 Rotational temperatures (Kelvin)      0.13392     0.05667     0.04454
 Rotational constants (GHZ):           2.79045     1.18089     0.92814
 Zero-point vibrational energy     417101.2 (Joules/Mol)
                                   99.68957 (Kcal/Mol)
 Warning -- explicit consideration of  11 degrees of freedom as
           vibrations may cause significant error
 Vibrational temperatures:     82.18   186.51   198.91   286.76   331.81
          (Kelvin)            358.40   379.75   484.91   628.99   771.97
                              793.33   911.07  1005.37  1073.85  1133.93
                             1169.81  1284.92  1288.59  1364.07  1394.30
                             1514.21  1518.32  1567.42  1598.22  1613.26
                             1686.48  1704.14  1825.16  1894.28  1940.51
                             1951.98  1961.61  2020.55  2029.41  2127.49
                             2141.72  2151.46  2156.95  2168.00  2439.46
                             2689.94  4335.93  4349.21  4378.65  4381.74
                             4426.01  4482.60  4488.02  4489.83  4506.05
                             4663.32

 Zero-point correction=                           0.158865 (Hartree/Particle)
 Thermal correction to Energy=                    0.167897
 Thermal correction to Enthalpy=                  0.168841
 Thermal correction to Gibbs Free Energy=         0.124714
 Sum of electronic and zero-point Energies=           -423.093720
 Sum of electronic and thermal Energies=              -423.084688
 Sum of electronic and thermal Enthalpies=            -423.083744
 Sum of electronic and thermal Free Energies=         -423.127872

                     E (Thermal)             CV                S
                      KCal/Mol        Cal/Mol-Kelvin    Cal/Mol-Kelvin
 Total                  105.357             33.138             92.874
 Electronic               0.000              0.000              0.000
 Translational            0.889              2.981             40.409
 Rotational               0.889              2.981             29.043
 Vibrational            103.579             27.176             23.423
 Vibration     1          0.596              1.975              4.554
 Vibration     2          0.612              1.924              2.952
 Vibration     3          0.614              1.915              2.828
 Vibration     4          0.637              1.841              2.139
 Vibration     5          0.652              1.794              1.874
 Vibration     6          0.662              1.764              1.737
 Vibration     7          0.670              1.739              1.636
 Vibration     8          0.718              1.602              1.226
 Vibration     9          0.797              1.389              0.836
 Vibration    10          0.892              1.169              0.573
 Vibration    11          0.907              1.137              0.541

 Normal termination of Gaussian 09 at Tue Jan 28 12:57:54 2020.
