 Gaussian 09, Revision D.01,
 Gaussian 09:  ES64L-G09RevD.01 24-Apr-2013

 -----------------------------
 # b3lyp 6-31G(2df,p) opt Freq
 -----------------------------

 -----
 titel
 -----
 Symbolic Z-matrix:
 Charge =  0 Multiplicity = 1

 SCF Done:  E(RB3LYP) =  -423.180980894     A.U. after   14 cycles
 Optimization completed.
    -- Stationary point found.
 Normal termination of Gaussian 09 at Mon Jan 27 18:25:34 2020.

 ----------------------------------------------------------------------
 #N Geom=AllCheck Guess=TCheck SCRF=Check GenChk RB3LYP/6-31G(2df,p) Fr
 eq
 ----------------------------------------------------------------------

 Structure from the checkpoint file:  "/scratch/puck/g09_a57aa3c6-9f18-450e-b91b-5f5a079e3882/Gau-88867.chk"
 -----
 titel
 -----
 Charge =  0 Multiplicity = 1

                         Standard orientation:
 ---------------------------------------------------------------------
 Center     Atomic      Atomic             Coordinates (Angstroms)
 Number     Number       Type             X           Y           Z
 ---------------------------------------------------------------------
      1          6           0       -2.267975   -0.473005    0.180160
      2          6           0       -0.844592   -0.023139   -0.045705
      3          6           0       -0.617460    1.365212   -0.714416
      4          6           0        0.796973    1.747930   -0.177132
      5          6           0        1.123704    0.506158    0.695664
      6          8           0       -0.156792    0.140673    1.204565
      7          6           0        1.426380   -0.632731   -0.289274
      8          8           0        0.815934   -1.877635    0.053990
      9          6           0        0.099685   -0.982784   -0.797938
     10          1           0       -2.283073   -1.440412    0.689385
     11          1           0       -2.806523    0.253089    0.796087
     12          1           0       -2.794838   -0.574235   -0.773798
     13          1           0       -0.658932    1.313566   -1.806472
     14          1           0       -1.380924    2.072759   -0.381969
     15          1           0        1.529394    1.907010   -0.973972
     16          1           0        0.764546    2.650322    0.436805
     17          1           0        1.823397    0.656553    1.517324
     18          1           0        2.342470   -0.670397   -0.870500
     19          1           0       -0.108952   -1.318411   -1.809492
 ---------------------------------------------------------------------

 SCF Done:  E(RB3LYP) =  -423.180980894     A.U. after    1 cycles

 The electronic state is 1-A.
 Alpha  occ. eigenvalues --  -19.14972 -19.13727 -10.23958 -10.23467 -10.23283
 Alpha  occ. eigenvalues --  -10.23158 -10.18895 -10.18764 -10.17818  -1.08829
 Alpha  occ. eigenvalues --   -1.02943  -0.79136  -0.77444  -0.69657  -0.67875
 Alpha  occ. eigenvalues --   -0.61353  -0.57769  -0.55884  -0.51818  -0.49238
 Alpha  occ. eigenvalues --   -0.47160  -0.44614  -0.42854  -0.40804  -0.39807
 Alpha  occ. eigenvalues --   -0.37549  -0.37200  -0.35576  -0.34810  -0.34198
 Alpha  occ. eigenvalues --   -0.31740  -0.29937  -0.26794  -0.24995
 Alpha virt. eigenvalues --    0.08610   0.09940   0.10379   0.11203   0.12163
 Alpha virt. eigenvalues --    0.13518   0.14977   0.15659   0.16015   0.16671
 Alpha virt. eigenvalues --    0.17158   0.18092   0.20013   0.21476   0.21896

 Mulliken charges:
               1
     1  C   -0.490753
     2  C    0.362833
     3  C   -0.254141
     4  C   -0.223470
     5  C    0.009868
     6  O   -0.270728
     7  C    0.034974
     8  O   -0.244815
     9  C   -0.007389
    10  H    0.140136
    11  H    0.126181
    12  H    0.116903
    13  H    0.098935
    14  H    0.106683
    15  H    0.100103
    16  H    0.109928
    17  H    0.084814
    18  H    0.100701
    19  H    0.099237
 Sum of Mulliken charges =   0.00000

 Dipole moment (field-independent basis, Debye):
    X=              0.0785    Y=              1.8576    Z=             -2.0120  Tot=              2.7395
 Quadrupole moment (field-independent basis, Debye-Ang):
   XX=            -48.9615   YY=            -56.4676   ZZ=            -53.4429
   XY=              2.2364   XZ=              0.6020   YZ=              1.8950

  Exact polarizability:  80.635   2.137  73.086   1.928   1.480  64.961
 Approx polarizability: 112.946   2.183 107.310   4.059  -0.119 103.754

                      1                      2                      3
                      A                      A                      A
 Frequencies --    192.2117               214.2298               262.4368
 Red. masses --      2.1144                 1.0379                 2.3028
 Frc consts  --      0.0460                 0.0281                 0.0934
 IR Inten    --      0.6296                 0.0565                 2.0162

                      4                      5                      6
                      A                      A                      A
 Frequencies --    293.8870               349.4918               403.1633
 Red. masses --      2.8736                 2.7380                 3.2897
 Frc consts  --      0.1462                 0.1970                 0.3150
 IR Inten    --      2.5992                 0.9136                 0.8605

                      7                      8                      9
                      A                      A                      A
 Frequencies --    484.2131               607.6671               632.0906
 Red. masses --      6.9835                 3.8751                 4.8470
 Frc consts  --      0.9647                 0.8431                 1.1410
 IR Inten    --      1.0641                 1.3622                17.0071

                     10                     11                     12
                      A                      A                      A
 Frequencies --    642.0826               782.1817               825.4560
 Red. masses --      4.8470                 2.0031                 2.6136
 Frc consts  --      1.1773                 0.7220                 1.0492
 IR Inten    --      1.1854                11.3480                 5.2154

                     13                     14                     15
                      A                      A                      A
 Frequencies --    843.1147               856.9999               883.4000
 Red. masses --      2.7139                 2.7122                 2.0589
 Frc consts  --      1.1366                 1.1737                 0.9467
 IR Inten    --      3.9461                 2.8063                15.9100

                     16                     17                     18
                      A                      A                      A
 Frequencies --    890.7940               906.9074               919.2052
 Red. masses --      2.0998                 3.3118                 2.7881
 Frc consts  --      0.9817                 1.6049                 1.3880
 IR Inten    --     14.6214                 8.6728                 7.7833

                     19                     20                     21
                      A                      A                      A
 Frequencies --    943.5273               973.8034               993.3375
 Red. masses --      2.3550                 2.4920                 2.2198
 Frc consts  --      1.2352                 1.3923                 1.2905
 IR Inten    --     11.2374                 6.2368                17.2164

                     22                     23                     24
                      A                      A                      A
 Frequencies --   1024.0803              1046.2912              1083.5611
 Red. masses --      1.5514                 4.6754                 1.3122
 Frc consts  --      0.9586                 3.0156                 0.9077
 IR Inten    --      4.9636                46.5001                 2.4546

                     25                     26                     27
                      A                      A                      A
 Frequencies --   1126.4649              1149.2966              1200.3028
 Red. masses --      1.4272                 2.2420                 1.6631
 Frc consts  --      1.0670                 1.7448                 1.4117
 IR Inten    --      1.7675                21.0799                 4.9969

                     28                     29                     30
                      A                      A                      A
 Frequencies --   1210.7791              1241.8413              1247.9942
 Red. masses --      1.4539                 1.4310                 1.5494
 Frc consts  --      1.2558                 1.3002                 1.4218
 IR Inten    --      6.0094                 3.9087                 7.6218

                     31                     32                     33
                      A                      A                      A
 Frequencies --   1256.6000              1293.8032              1318.9449
 Red. masses --      1.3143                 1.6640                 1.5910
 Frc consts  --      1.2228                 1.6411                 1.6307
 IR Inten    --      1.2513                 0.5567                 3.9779

                     34                     35                     36
                      A                      A                      A
 Frequencies --   1324.4355              1342.4623              1411.6317
 Red. masses --      1.5796                 1.9054                 1.4415
 Frc consts  --      1.6325                 2.0232                 1.6925
 IR Inten    --      3.6503                 7.9446                 5.9956

                     37                     38                     39
                      A                      A                      A
 Frequencies --   1422.1264              1479.7867              1484.7779
 Red. masses --      3.4901                 1.0708                 1.0626
 Frc consts  --      4.1587                 1.3815                 1.3802
 IR Inten    --     16.5514                 0.9382                 1.6394

                     40                     41                     42
                      A                      A                      A
 Frequencies --   1496.8952              1503.3962              3042.4444
 Red. masses --      1.0531                 1.1092                 1.0353
 Frc consts  --      1.3903                 1.4771                 5.6462
 IR Inten    --      4.4191                 4.9954                14.4214

                     43                     44                     45
                      A                      A                      A
 Frequencies --   3055.7869              3066.1528              3098.2923
 Red. masses --      1.0591                 1.0612                 1.1055
 Frc consts  --      5.8270                 5.8781                 6.2526
 IR Inten    --     29.0534                30.6706                 1.3154

                     46                     47                     48
                      A                      A                      A
 Frequencies --   3113.3986              3117.2194              3122.9417
 Red. masses --      1.1014                 1.1037                 1.1020
 Frc consts  --      6.2903                 6.3191                 6.3324
 IR Inten    --      8.6588                31.9226                15.7237

                     49                     50                     51
                      A                      A                      A
 Frequencies --   3127.2041              3156.7806              3170.9892
 Red. masses --      1.0909                 1.0872                 1.0971
 Frc consts  --      6.2859                 6.3833                 6.4998
 IR Inten    --     39.2176                16.1010                19.6229

 - Thermochemistry -
 -------------------
 Temperature   298.150 Kelvin.  Pressure   1.00000 Atm.
 Atom     1 has atomic number  6 and mass  12.00000

 Molecular mass:   126.06808 amu.
 Principal axes and moments of inertia in atomic units:
                           1         2         3
     Eigenvalues --   766.43427 813.730851171.40644
           X            0.91057   0.41335  -0.00079
           Y           -0.41335   0.91057  -0.00359
           Z           -0.00077   0.00359   0.99999
 This molecule is an asymmetric top.
 Rotational symmetry number  1.
 Warning -- assumption of classical behavior for rotation
           may cause significant error
 Rotational temperatures (Kelvin)      0.11301     0.10644     0.07394
 Rotational constants (GHZ):           2.35472     2.21786     1.54066
 Zero-point vibrational energy     422502.4 (Joules/Mol)
                                  100.98049 (Kcal/Mol)
 Warning -- explicit consideration of   8 degrees of freedom as
           vibrations may cause significant error
 Vibrational temperatures:    276.55   308.23   377.59   422.84   502.84
          (Kelvin)            580.06   696.67   874.30   909.44   923.81
                             1125.38  1187.65  1213.05  1233.03  1271.01
                             1281.65  1304.84  1322.53  1357.52  1401.08
                             1429.19  1473.42  1505.38  1559.00  1620.73
                             1653.58  1726.97  1742.04  1786.73  1795.58
                             1807.96  1861.49  1897.67  1905.56  1931.50
                             2031.02  2046.12  2129.08  2136.26  2153.70
                             2163.05  4377.39  4396.59  4411.50  4457.75
                             4479.48  4484.98  4493.21  4499.34  4541.90
                             4562.34

 Zero-point correction=                           0.160923 (Hartree/Particle)
 Thermal correction to Energy=                    0.168015
 Thermal correction to Enthalpy=                  0.168959
 Thermal correction to Gibbs Free Energy=         0.129920
 Sum of electronic and zero-point Energies=           -423.020058
 Sum of electronic and thermal Energies=              -423.012966
 Sum of electronic and thermal Enthalpies=            -423.012022
 Sum of electronic and thermal Free Energies=         -423.051061

                     E (Thermal)             CV                S
                      KCal/Mol        Cal/Mol-Kelvin    Cal/Mol-Kelvin
 Total                  105.431             29.444             82.165
 Electronic               0.000              0.000              0.000
 Translational            0.889              2.981             40.409
 Rotational               0.889              2.981             28.082
 Vibrational            103.654             23.482             13.675
 Vibration     1          0.634              1.851              2.206
 Vibration     2          0.644              1.819              2.007
 Vibration     3          0.670              1.742              1.646
 Vibration     4          0.689              1.685              1.451
 Vibration     5          0.727              1.576              1.168
 Vibration     6          0.769              1.463              0.951
 Vibration     7          0.840              1.285              0.699
 Vibration     8          0.966              1.016              0.437

 Optimization completed.
    -- Stationary point found.
 Normal termination of Gaussian 09 at Mon Jan 27 19:09:35 2020.
