 Gaussian 09, Revision D.01,
 Gaussian 09:  ES64L-G09RevD.01 24-Apr-2013

 -----------------------------
 # b3lyp 6-31G(2df,p) opt Freq
 -----------------------------

 -----
 titel
 -----
 Symbolic Z-matrix:
 Charge =  0 Multiplicity = 1

 SCF Done:  E(RB3LYP) =  -423.152564062     A.U. after   14 cycles
 Optimization completed.
    -- Stationary point found.
 Normal termination of Gaussian 09 at Mon Jan 27 22:14:01 2020.

 ----------------------------------------------------------------------
 #N Geom=AllCheck Guess=TCheck SCRF=Check GenChk RB3LYP/6-31G(2df,p) Fr
 eq
 ----------------------------------------------------------------------

 Structure from the checkpoint file:  "/scratch/puck/g09_e4087ff2-b515-4dd2-a788-e4ddb0a50e5f/Gau-28340.chk"
 -----
 titel
 -----
 Charge =  0 Multiplicity = 1

                         Standard orientation:
 ---------------------------------------------------------------------
 Center     Atomic      Atomic             Coordinates (Angstroms)
 Number     Number       Type             X           Y           Z
 ---------------------------------------------------------------------
      1          6           0        2.362861   -1.145828   -0.003623
      2          6           0        0.845511   -1.044759    0.001727
      3          6           0        0.122667   -0.047727    0.980827
      4          6           0        0.644149    1.029556    0.007953
      5          8           0        1.227601    2.065764    0.011049
      6          6           0        0.118957   -0.044202   -0.971850
      7          6           0       -1.109045   -0.100146   -0.006850
      8          6           0       -2.047723   -1.298587    0.001261
      9          8           0       -1.862295    1.094380   -0.097757
     10          1           0        2.713797   -1.692705    0.877973
     11          1           0        2.707645   -1.691474   -0.888455
     12          1           0        2.845346   -0.164177   -0.004606
     13          1           0        0.396019   -2.037619   -0.000266
     14          1           0        0.115559   -0.063930    2.070014
     15          1           0        0.106251   -0.051112   -2.060186
     16          1           0       -2.683098   -1.265534   -0.888391
     17          1           0       -1.542730   -2.264636    0.029464
     18          1           0       -2.702566   -1.248552    0.879952
     19          1           0       -2.502926    1.108746    0.621498
 ---------------------------------------------------------------------

 SCF Done:  E(RB3LYP) =  -423.152564062     A.U. after    1 cycles

 The electronic state is 1-A.
 Alpha  occ. eigenvalues --  -19.14763 -19.12914 -10.27028 -10.26247 -10.21439
 Alpha  occ. eigenvalues --  -10.20389 -10.20303 -10.19163 -10.18186  -1.04766
 Alpha  occ. eigenvalues --   -1.03290  -0.91264  -0.75073  -0.73171  -0.65135
 Alpha  occ. eigenvalues --   -0.61813  -0.59138  -0.51680  -0.50747  -0.47805
 Alpha  occ. eigenvalues --   -0.46166  -0.44530  -0.42410  -0.42039  -0.40611
 Alpha  occ. eigenvalues --   -0.38980  -0.38022  -0.37018  -0.34502  -0.33531
 Alpha  occ. eigenvalues --   -0.32140  -0.31596  -0.27497  -0.23539
 Alpha virt. eigenvalues --    0.01904   0.06550   0.10666   0.11412   0.12214
 Alpha virt. eigenvalues --    0.13118   0.13495   0.13575   0.16105   0.16344
 Alpha virt. eigenvalues --    0.16748   0.17612   0.17985   0.19800   0.20900

 Mulliken charges:
               1
     1  C   -0.437843
     2  C    0.010845
     3  C   -0.260894
     4  C    0.457206
     5  O   -0.331501
     6  C   -0.228605
     7  C    0.450480
     8  C   -0.482821
     9  O   -0.474218
    10  H    0.121049
    11  H    0.121837
    12  H    0.143108
    13  H    0.079500
    14  H    0.081136
    15  H    0.088721
    16  H    0.136795
    17  H    0.129354
    18  H    0.114530
    19  H    0.281320
 Sum of Mulliken charges =   0.00000

 Dipole moment (field-independent basis, Debye):
    X=             -1.7318    Y=             -3.5770    Z=              0.9722  Tot=              4.0913
 Quadrupole moment (field-independent basis, Debye-Ang):
   XX=            -50.6715   YY=            -59.7824   ZZ=            -50.8635
   XY=             -3.5104   XZ=             -3.0339   YZ=              1.4504

  Exact polarizability:  85.217   1.124  76.344  -1.333   0.404  67.176
 Approx polarizability: 113.202   4.876 119.997  -1.714  -0.142 106.998

                      1                      2                      3
                      A                      A                      A
 Frequencies --    161.2828               180.4230               205.1788
 Red. masses --      7.9308                 1.7890                 1.0977
 Frc consts  --      0.1215                 0.0343                 0.0272
 IR Inten    --      1.6302                 1.4003                 0.1257

                      4                      5                      6
                      A                      A                      A
 Frequencies --    209.7222               222.7364               252.8142
 Red. masses --      1.3445                 3.0464                 2.2106
 Frc consts  --      0.0348                 0.0890                 0.0832
 IR Inten    --      0.7931                 2.4914                 5.6591

                      7                      8                      9
                      A                      A                      A
 Frequencies --    282.6905               400.2236               442.1540
 Red. masses --      1.1915                 3.0597                 3.3290
 Frc consts  --      0.0561                 0.2888                 0.3834
 IR Inten    --     79.9788                 1.8193                 7.5357

                     10                     11                     12
                      A                      A                      A
 Frequencies --    453.3920               484.3905               513.2083
 Red. masses --      4.8575                 2.7680                 4.5564
 Frc consts  --      0.5883                 0.3827                 0.7071
 IR Inten    --     15.4399                 1.3451                 5.8058

                     13                     14                     15
                      A                      A                      A
 Frequencies --    629.5215               704.5019               734.8593
 Red. masses --      4.5130                 3.1333                 3.6235
 Frc consts  --      1.0537                 0.9162                 1.1529
 IR Inten    --      0.3730                 5.0326                 0.0558

                     16                     17                     18
                      A                      A                      A
 Frequencies --    770.2778               792.2497               831.9415
 Red. masses --      4.1958                 2.2906                 3.5502
 Frc consts  --      1.4667                 0.8471                 1.4477
 IR Inten    --     11.9241                 1.2827                 5.4020

                     19                     20                     21
                      A                      A                      A
 Frequencies --    944.6906               957.0678              1014.2051
 Red. masses --      1.6143                 1.9702                 1.4014
 Frc consts  --      0.8488                 1.0633                 0.8493
 IR Inten    --      7.3757                27.3890                 1.6337

                     22                     23                     24
                      A                      A                      A
 Frequencies --   1042.2022              1053.1225              1078.8844
 Red. masses --      1.6340                 1.3820                 1.7074
 Frc consts  --      1.0457                 0.9030                 1.1710
 IR Inten    --     12.8558                 0.8212                22.1104

                     25                     26                     27
                      A                      A                      A
 Frequencies --   1095.4584              1110.1311              1122.7529
 Red. masses --      1.7583                 2.7499                 1.5873
 Frc consts  --      1.2432                 1.9967                 1.1789
 IR Inten    --      6.8801                 2.2707                 7.1735

                     28                     29                     30
                      A                      A                      A
 Frequencies --   1144.4048              1207.3970              1209.6722
 Red. masses --      2.4423                 1.6496                 2.7779
 Frc consts  --      1.8846                 1.4168                 2.3950
 IR Inten    --      5.4792                54.0093                56.6557

                     31                     32                     33
                      A                      A                      A
 Frequencies --   1227.3005              1243.3072              1364.1543
 Red. masses --      2.4167                 2.1223                 1.7699
 Frc consts  --      2.1448                 1.9329                 1.9406
 IR Inten    --     12.6449                37.1501                27.1830

                     34                     35                     36
                      A                      A                      A
 Frequencies --   1388.6664              1419.9052              1426.7673
 Red. masses --      1.4151                 1.2270                 1.2622
 Frc consts  --      1.6078                 1.4575                 1.5139
 IR Inten    --     20.3842                 0.5113                 3.5137

                     37                     38                     39
                      A                      A                      A
 Frequencies --   1491.4475              1496.5177              1497.3080
 Red. masses --      1.0539                 1.0561                 1.0475
 Frc consts  --      1.3812                 1.3935                 1.3837
 IR Inten    --      4.5389                 0.5827                 4.1058

                     40                     41                     42
                      A                      A                      A
 Frequencies --   1502.5942              1925.9227              3033.6472
 Red. masses --      1.0513                12.1710                 1.0443
 Frc consts  --      1.3985                26.5984                 5.6626
 IR Inten    --     10.2138               351.3056                24.1339

                     43                     44                     45
                      A                      A                      A
 Frequencies --   3034.9942              3096.6999              3098.3714
 Red. masses --      1.0361                 1.1009                 1.0932
 Frc consts  --      5.6229                 6.2203                 6.1832
 IR Inten    --     25.6142                17.6461                13.7728

                     46                     47                     48
                      A                      A                      A
 Frequencies --   3104.7437              3121.3293              3129.8470
 Red. masses --      1.0910                 1.0952                 1.0927
 Frc consts  --      6.1960                 6.2865                 6.3066
 IR Inten    --      5.6768                26.7612                33.0682

                     49                     50                     51
                      A                      A                      A
 Frequencies --   3141.5656              3144.0148              3806.9380
 Red. masses --      1.0947                 1.0952                 1.0659
 Frc consts  --      6.3658                 6.3783                 9.1018
 IR Inten    --     19.0985                19.2934                22.9285

 - Thermochemistry -
 -------------------
 Temperature   298.150 Kelvin.  Pressure   1.00000 Atm.
 Atom     1 has atomic number  6 and mass  12.00000

 Molecular mass:   126.06808 amu.
 Principal axes and moments of inertia in atomic units:
                           1         2         3
     Eigenvalues --   726.232851097.331191572.50255
           X            0.99959  -0.02791  -0.00681
           Y            0.02794   0.99960   0.00456
           Z            0.00668  -0.00475   0.99997
 This molecule is an asymmetric top.
 Rotational symmetry number  1.
 Warning -- assumption of classical behavior for rotation
           may cause significant error
 Rotational temperatures (Kelvin)      0.11926     0.07893     0.05508
 Rotational constants (GHZ):           2.48507     1.64466     1.14769
 Zero-point vibrational energy     412398.2 (Joules/Mol)
                                   98.56554 (Kcal/Mol)
 Warning -- explicit consideration of  12 degrees of freedom as
           vibrations may cause significant error
 Vibrational temperatures:    232.05   259.59   295.21   301.74   320.47
          (Kelvin)            363.74   406.73   575.83   636.16   652.33
                              696.93   738.39   905.74  1013.62  1057.30
                             1108.26  1139.87  1196.98  1359.20  1377.01
                             1459.21  1499.49  1515.21  1552.27  1576.12
                             1597.23  1615.39  1646.54  1737.17  1740.45
                             1765.81  1788.84  1962.71  1997.98  2042.92
                             2052.80  2145.86  2153.15  2154.29  2161.90
                             2770.97  4364.74  4366.67  4455.45  4457.86
                             4467.03  4490.89  4503.15  4520.01  4523.53
                             5477.33

 Zero-point correction=                           0.157074 (Hartree/Particle)
 Thermal correction to Energy=                    0.165973
 Thermal correction to Enthalpy=                  0.166917
 Thermal correction to Gibbs Free Energy=         0.124289
 Sum of electronic and zero-point Energies=           -422.995490
 Sum of electronic and thermal Energies=              -422.986591
 Sum of electronic and thermal Enthalpies=            -422.985647
 Sum of electronic and thermal Free Energies=         -423.028275

                     E (Thermal)             CV                S
                      KCal/Mol        Cal/Mol-Kelvin    Cal/Mol-Kelvin
 Total                  104.149             34.626             89.717
 Electronic               0.000              0.000              0.000
 Translational            0.889              2.981             40.409
 Rotational               0.889              2.981             28.618
 Vibrational            102.372             28.665             20.691
 Vibration     1          0.622              1.890              2.535
 Vibration     2          0.629              1.866              2.324
 Vibration     3          0.640              1.833              2.086
 Vibration     4          0.642              1.826              2.046
 Vibration     5          0.648              1.806              1.937
 Vibration     6          0.664              1.758              1.711
 Vibration     7          0.682              1.706              1.517
 Vibration     8          0.766              1.470              0.962
 Vibration     9          0.802              1.378              0.820
 Vibration    10          0.812              1.353              0.786
 Vibration    11          0.841              1.285              0.698
 Vibration    12          0.868              1.221              0.626

 Optimization completed.
    -- Stationary point found.
 Normal termination of Gaussian 09 at Tue Jan 28 00:27:56 2020.
