 Gaussian 09, Revision D.01,
 Gaussian 09:  ES64L-G09RevD.01 24-Apr-2013

 -----------------------------
 # b3lyp 6-31G(2df,p) opt Freq
 -----------------------------

 -----
 titel
 -----
 Symbolic Z-matrix:
 Charge =  0 Multiplicity = 1

 SCF Done:  E(RB3LYP) =  -423.145980619     A.U. after   14 cycles
 Optimization completed.
    -- Stationary point found.
 Normal termination of Gaussian 09 at Mon Jan 27 18:43:26 2020.

 ----------------------------------------------------------------------
 #N Geom=AllCheck Guess=TCheck SCRF=Check GenChk RB3LYP/6-31G(2df,p) Fr
 eq
 ----------------------------------------------------------------------

 Structure from the checkpoint file:  "/scratch/puck/g09_8d9b7474-6224-485b-94fd-e1c4119a1e91/Gau-76541.chk"
 -----
 titel
 -----
 Charge =  0 Multiplicity = 1

                         Standard orientation:
 ---------------------------------------------------------------------
 Center     Atomic      Atomic             Coordinates (Angstroms)
 Number     Number       Type             X           Y           Z
 ---------------------------------------------------------------------
      1          6           0       -0.114263    1.832900   -0.406379
      2          6           0       -0.772430    0.550913    0.018012
      3          6           0       -2.134970    0.476942    0.711552
      4          8           0       -2.485302   -0.745047    0.004443
      5          6           0       -1.254239   -0.686314   -0.711073
      6          6           0       -0.085828   -0.797304    0.230023
      7          6           0        1.288860   -1.015286   -0.384131
      8          6           0        2.381459   -0.392423    0.460413
      9          8           0        3.131410    0.471924    0.085589
     10          1           0        0.783378    1.663060   -1.005181
     11          1           0       -0.802690    2.450947   -0.993192
     12          1           0        0.193714    2.418287    0.468490
     13          1           0       -2.150754    0.349695    1.800927
     14          1           0       -2.810150    1.291837    0.424395
     15          1           0       -1.246973   -0.993380   -1.751802
     16          1           0       -0.260823   -1.325441    1.166969
     17          1           0        1.478497   -2.095960   -0.448008
     18          1           0        1.356056   -0.601962   -1.394525
     19          1           0        2.439340   -0.788667    1.501165
 ---------------------------------------------------------------------

 SCF Done:  E(RB3LYP) =  -423.145980619     A.U. after    1 cycles

 The electronic state is 1-A.
 Alpha  occ. eigenvalues --  -19.14502 -19.14105 -10.27686 -10.24295 -10.23721
 Alpha  occ. eigenvalues --  -10.20840 -10.20680 -10.20537 -10.18706  -1.05553
 Alpha  occ. eigenvalues --   -1.05140  -0.85530  -0.76373  -0.72443  -0.68616
 Alpha  occ. eigenvalues --   -0.59764  -0.58206  -0.54372  -0.50181  -0.48609
 Alpha  occ. eigenvalues --   -0.47566  -0.45545  -0.44006  -0.42296  -0.40785
 Alpha  occ. eigenvalues --   -0.40729  -0.40183  -0.38225  -0.36618  -0.34052
 Alpha  occ. eigenvalues --   -0.31812  -0.27409  -0.25720  -0.23293
 Alpha virt. eigenvalues --   -0.02595   0.07359   0.09383   0.10616   0.10863
 Alpha virt. eigenvalues --    0.12478   0.12945   0.13613   0.14382   0.15062
 Alpha virt. eigenvalues --    0.17030   0.17676   0.18964   0.20737   0.21473

 Mulliken charges:
               1
     1  C   -0.504707
     2  C    0.255662
     3  C   -0.128814
     4  O   -0.292105
     5  C    0.046442
     6  C   -0.105739
     7  C   -0.331290
     8  C    0.173492
     9  O   -0.239469
    10  H    0.143856
    11  H    0.121135
    12  H    0.127655
    13  H    0.104371
    14  H    0.108898
    15  H    0.105336
    16  H    0.090481
    17  H    0.125351
    18  H    0.122312
    19  H    0.077136
 Sum of Mulliken charges =   0.00000

 Dipole moment (field-independent basis, Debye):
    X=             -0.5086    Y=             -0.3982    Z=              0.2263  Tot=              0.6844
 Quadrupole moment (field-independent basis, Debye-Ang):
   XX=            -66.3852   YY=            -52.1691   ZZ=            -50.2536
   XY=             -8.5569   XZ=              0.2110   YZ=              0.4515

  Exact polarizability:  86.123  -0.996  74.832  -0.663  -0.281  68.050
 Approx polarizability: 117.421   6.007 113.900  -1.330  -0.755 104.530

                      1                      2                      3
                      A                      A                      A
 Frequencies --     58.3078                74.5726               135.8331
 Red. masses --      6.2804                 3.9092                 1.6145
 Frc consts  --      0.0126                 0.0128                 0.0176
 IR Inten    --      8.0080                 4.9799                 1.1351

                      4                      5                      6
                      A                      A                      A
 Frequencies --    177.1073               216.2995               271.2706
 Red. masses --      1.3486                 2.6008                 3.2659
 Frc consts  --      0.0249                 0.0717                 0.1416
 IR Inten    --      0.1936                 1.6777                 1.5243

                      7                      8                      9
                      A                      A                      A
 Frequencies --    328.2863               350.7406               370.4217
 Red. masses --      2.8203                 3.3751                 2.1624
 Frc consts  --      0.1791                 0.2446                 0.1748
 IR Inten    --      1.5124                 2.3672                 2.9177

                     10                     11                     12
                      A                      A                      A
 Frequencies --    457.1770               560.4680               653.4792
 Red. masses --      2.5831                 3.1555                 3.8162
 Frc consts  --      0.3181                 0.5840                 0.9602
 IR Inten    --      5.9984                13.6056                 0.6715

                     13                     14                     15
                      A                      A                      A
 Frequencies --    724.6493               786.3978               853.0631
 Red. masses --      2.9225                 2.1670                 1.9453
 Frc consts  --      0.9042                 0.7896                 0.8341
 IR Inten    --      3.7903                12.1018                 5.5348

                     16                     17                     18
                      A                      A                      A
 Frequencies --    925.5110               966.1426               970.3772
 Red. masses --      2.3682                 1.9664                 1.5284
 Frc consts  --      1.1952                 1.0815                 0.8479
 IR Inten    --     13.1379                11.0912                 7.7190

                     19                     20                     21
                      A                      A                      A
 Frequencies --    987.0284              1009.3130              1029.5735
 Red. masses --      2.8437                 2.2043                 1.7709
 Frc consts  --      1.6323                 1.3230                 1.1060
 IR Inten    --     44.4059                 2.7358                26.8627

                     22                     23                     24
                      A                      A                      A
 Frequencies --   1047.0873              1092.7955              1105.1989
 Red. masses --      2.1558                 1.9070                 1.7613
 Frc consts  --      1.3926                 1.3418                 1.2675
 IR Inten    --     16.2019                 6.2527                13.6974

                     25                     26                     27
                      A                      A                      A
 Frequencies --   1116.6495              1136.5108              1161.1975
 Red. masses --      3.1940                 2.0079                 1.3028
 Frc consts  --      2.3465                 1.5280                 1.0350
 IR Inten    --      4.5728                 2.2274                 1.2797

                     28                     29                     30
                      A                      A                      A
 Frequencies --   1199.8230              1224.5598              1266.8737
 Red. masses --      1.3276                 1.7852                 1.4201
 Frc consts  --      1.1260                 1.5773                 1.3428
 IR Inten    --     24.1612                 1.6225                11.5111

                     31                     32                     33
                      A                      A                      A
 Frequencies --   1295.5318              1305.8201              1367.5422
 Red. masses --      1.4753                 1.6768                 1.7344
 Frc consts  --      1.4590                 1.6846                 1.9111
 IR Inten    --      5.1913                 3.9149                 0.4168

                     34                     35                     36
                      A                      A                      A
 Frequencies --   1424.8103              1426.9383              1451.1196
 Red. masses --      1.2431                 1.2011                 3.1821
 Frc consts  --      1.4869                 1.4409                 3.9480
 IR Inten    --      1.7626                 3.6595                 3.6399

                     37                     38                     39
                      A                      A                      A
 Frequencies --   1465.1567              1485.6879              1501.1728
 Red. masses --      1.0966                 1.0501                 1.0779
 Frc consts  --      1.3869                 1.3656                 1.4312
 IR Inten    --      5.4720                 7.7466                 5.5022

                     40                     41                     42
                      A                      A                      A
 Frequencies --   1515.5467              1832.1630              2861.3361
 Red. masses --      1.1103                10.0200                 1.0823
 Frc consts  --      1.5026                19.8174                 5.2208
 IR Inten    --      0.4245               155.3021               108.4010

                     43                     44                     45
                      A                      A                      A
 Frequencies --   3016.7524              3017.8864              3028.3844
 Red. masses --      1.0541                 1.0643                 1.0403
 Frc consts  --      5.6523                 5.7109                 5.6214
 IR Inten    --     68.7638                10.2298                34.0502

                     46                     47                     48
                      A                      A                      A
 Frequencies --   3067.1157              3082.3044              3093.4385
 Red. masses --      1.1114                 1.0999                 1.0946
 Frc consts  --      6.1599                 6.1568                 6.1715
 IR Inten    --     32.0189                23.2621                 2.8818

                     49                     50                     51
                      A                      A                      A
 Frequencies --   3109.4110              3125.5902              3167.6889
 Red. masses --      1.0892                 1.0970                 1.0931
 Frc consts  --      6.2045                 6.3141                 6.4622
 IR Inten    --     25.2773                10.6201                18.5416

 - Thermochemistry -
 -------------------
 Temperature   298.150 Kelvin.  Pressure   1.00000 Atm.
 Atom     1 has atomic number  6 and mass  12.00000

 Molecular mass:   126.06808 amu.
 Principal axes and moments of inertia in atomic units:
                           1         2         3
     Eigenvalues --   517.262871729.135702005.30459
           X            0.99965  -0.02591  -0.00444
           Y            0.02585   0.99959  -0.01243
           Z            0.00476   0.01231   0.99991
 This molecule is an asymmetric top.
 Rotational symmetry number  1.
 Warning -- assumption of classical behavior for rotation
           may cause significant error
 Rotational temperatures (Kelvin)      0.16745     0.05009     0.04319
 Rotational constants (GHZ):           3.48902     1.04372     0.89998
 Zero-point vibrational energy     412102.2 (Joules/Mol)
                                   98.49480 (Kcal/Mol)
 Warning -- explicit consideration of  11 degrees of freedom as
           vibrations may cause significant error
 Vibrational temperatures:     83.89   107.29   195.43   254.82   311.21
          (Kelvin)            390.30   472.33   504.64   532.95   657.77
                              806.39   940.21  1042.61  1131.45  1227.37
                             1331.60  1390.06  1396.15  1420.11  1452.17
                             1481.32  1506.52  1572.29  1590.13  1606.61
                             1635.18  1670.70  1726.28  1761.87  1822.75
                             1863.98  1878.78  1967.59  2049.98  2053.04
                             2087.83  2108.03  2137.57  2159.85  2180.53
                             2636.07  4116.82  4340.43  4342.06  4357.16
                             4412.89  4434.74  4450.76  4473.74  4497.02
                             4557.59

 Zero-point correction=                           0.156961 (Hartree/Particle)
 Thermal correction to Energy=                    0.166065
 Thermal correction to Enthalpy=                  0.167010
 Thermal correction to Gibbs Free Energy=         0.122433
 Sum of electronic and zero-point Energies=           -422.989019
 Sum of electronic and thermal Energies=              -422.979915
 Sum of electronic and thermal Enthalpies=            -422.978971
 Sum of electronic and thermal Free Energies=         -423.023547

                     E (Thermal)             CV                S
                      KCal/Mol        Cal/Mol-Kelvin    Cal/Mol-Kelvin
 Total                  104.208             32.988             93.819
 Electronic               0.000              0.000              0.000
 Translational            0.889              2.981             40.409
 Rotational               0.889              2.981             28.974
 Vibrational            102.430             27.026             24.436
 Vibration     1          0.596              1.974              4.514
 Vibration     2          0.599              1.966              4.029
 Vibration     3          0.614              1.918              2.862
 Vibration     4          0.628              1.871              2.359
 Vibration     5          0.645              1.816              1.990
 Vibration     6          0.675              1.726              1.588
 Vibration     7          0.712              1.619              1.269
 Vibration     8          0.728              1.574              1.163
 Vibration     9          0.742              1.533              1.078
 Vibration    10          0.815              1.345              0.774
 Vibration    11          0.916              1.117              0.523

 Optimization completed.
    -- Stationary point found.
 Normal termination of Gaussian 09 at Mon Jan 27 19:36:46 2020.
