 Gaussian 09, Revision D.01,
 Gaussian 09:  ES64L-G09RevD.01 24-Apr-2013

 -----------------------------
 # b3lyp 6-31G(2df,p) opt Freq
 -----------------------------

 -----
 titel
 -----
 Symbolic Z-matrix:
 Charge =  0 Multiplicity = 1

 SCF Done:  E(RB3LYP) =  -423.113346898     A.U. after   14 cycles
 Optimization completed.
    -- Stationary point found.
 Normal termination of Gaussian 09 at Mon Jan 27 16:16:30 2020.

 ----------------------------------------------------------------------
 #N Geom=AllCheck Guess=TCheck SCRF=Check GenChk RB3LYP/6-31G(2df,p) Fr
 eq
 ----------------------------------------------------------------------

 Structure from the checkpoint file:  "/scratch/puck/g09_db6d543c-a3b4-4c2d-a011-9d847234cd10/Gau-47176.chk"
 -----
 titel
 -----
 Charge =  0 Multiplicity = 1

                         Standard orientation:
 ---------------------------------------------------------------------
 Center     Atomic      Atomic             Coordinates (Angstroms)
 Number     Number       Type             X           Y           Z
 ---------------------------------------------------------------------
      1          6           0       -2.965104    0.145734   -0.522720
      2          6           0       -1.592651    0.185441    0.098422
      3          8           0       -1.635487   -0.088445    1.470024
      4          6           0       -0.548247    1.168371   -0.397652
      5          6           0       -0.393167   -0.321874   -0.650896
      6          8           0        0.489413   -1.069638    0.138855
      7          6           0        1.840937   -1.087365   -0.303652
      8          6           0        2.597447    0.130844   -0.009324
      9          6           0        3.249327    1.108199    0.243311
     10          1           0       -2.919120    0.363603   -1.593600
     11          1           0       -3.421105   -0.839612   -0.383808
     12          1           0       -3.613943    0.890678   -0.050542
     13          1           0       -0.829466   -0.577870    1.680224
     14          1           0       -0.773247    1.809613   -1.243807
     15          1           0        0.100330    1.601778    0.353583
     16          1           0       -0.509344   -0.704520   -1.665360
     17          1           0        2.304590   -1.936843    0.209160
     18          1           0        1.879530   -1.296077   -1.382913
     19          1           0        3.819119    1.977816    0.461095
 ---------------------------------------------------------------------

 SCF Done:  E(RB3LYP) =  -423.113346898     A.U. after    1 cycles

 The electronic state is 1-A.
 Alpha  occ. eigenvalues --  -19.16642 -19.12780 -10.26581 -10.23674 -10.23559
 Alpha  occ. eigenvalues --  -10.19107 -10.18537 -10.17564 -10.17432  -1.06092
 Alpha  occ. eigenvalues --   -1.01376  -0.84053  -0.77652  -0.71892  -0.69869
 Alpha  occ. eigenvalues --   -0.60315  -0.56817  -0.54750  -0.52662  -0.51073
 Alpha  occ. eigenvalues --   -0.48088  -0.46234  -0.44077  -0.42016  -0.39222
 Alpha  occ. eigenvalues --   -0.38105  -0.37659  -0.35762  -0.33861  -0.31174
 Alpha  occ. eigenvalues --   -0.28689  -0.27508  -0.25652  -0.23382
 Alpha virt. eigenvalues --    0.02225   0.04679   0.09265   0.10753   0.11506
 Alpha virt. eigenvalues --    0.12302   0.12957   0.14317   0.14879   0.15960
 Alpha virt. eigenvalues --    0.17434   0.18057   0.20017   0.21419   0.22021

 Mulliken charges:
               1
     1  C   -0.437815
     2  C    0.414348
     3  O   -0.475762
     4  C   -0.371026
     5  C    0.028726
     6  O   -0.254974
     7  C   -0.222751
     8  C    0.321800
     9  C   -0.459744
    10  H    0.110309
    11  H    0.123309
    12  H    0.128417
    13  H    0.291248
    14  H    0.108598
    15  H    0.129468
    16  H    0.088639
    17  H    0.143503
    18  H    0.127564
    19  H    0.206143
 Sum of Mulliken charges =   0.00000

 Dipole moment (field-independent basis, Debye):
    X=              1.5555    Y=             -0.1287    Z=             -1.7007  Tot=              2.3083
 Quadrupole moment (field-independent basis, Debye-Ang):
   XX=            -52.0505   YY=            -50.1156   ZZ=            -53.6849
   XY=              0.7805   XZ=              4.1122   YZ=              0.5893

  Exact polarizability:  93.249   7.099  76.358   3.521   2.254  63.279
 Approx polarizability: 115.956  16.835 123.340   3.335   5.094  96.691

                      1                      2                      3
                      A                      A                      A
 Frequencies --     25.1708                82.4360               164.7374
 Red. masses --      3.7771                 4.2977                 2.8723
 Frc consts  --      0.0014                 0.0172                 0.0459
 IR Inten    --      0.3005                 0.4050                 0.6983

                      4                      5                      6
                      A                      A                      A
 Frequencies --    174.6118               217.6331               247.1109
 Red. masses --      3.5332                 1.1226                 3.9814
 Frc consts  --      0.0635                 0.0313                 0.1432
 IR Inten    --      1.2031                 0.0735                 0.7923

                      7                      8                      9
                      A                      A                      A
 Frequencies --    306.1200               332.4219               346.0172
 Red. masses --      4.7512                 2.6748                 1.3109
 Frc consts  --      0.2623                 0.1741                 0.0925
 IR Inten    --      3.0947                 7.8606                51.9135

                     10                     11                     12
                      A                      A                      A
 Frequencies --    367.8128               422.8828               470.8514
 Red. masses --      2.4337                 2.1182                 2.5123
 Frc consts  --      0.1940                 0.2232                 0.3282
 IR Inten    --      2.0828                12.2754                 3.2763

                     13                     14                     15
                      A                      A                      A
 Frequencies --    546.0203               620.0182               622.5584
 Red. masses --      4.2139                 1.2186                 4.4547
 Frc consts  --      0.7402                 0.2760                 1.0172
 IR Inten    --     12.1114                45.8959                 3.2061

                     16                     17                     18
                      A                      A                      A
 Frequencies --    683.4084               714.0572               809.5900
 Red. masses --      1.2508                 2.9955                 2.0320
 Frc consts  --      0.3442                 0.8999                 0.7847
 IR Inten    --     36.9492                 0.2126                11.4082

                     19                     20                     21
                      A                      A                      A
 Frequencies --    861.7303               925.4736               933.1605
 Red. masses --      2.0391                 2.0189                 3.2939
 Frc consts  --      0.8921                 1.0188                 1.6900
 IR Inten    --      2.6240                12.4738                23.5287

                     22                     23                     24
                      A                      A                      A
 Frequencies --    974.7630              1024.0109              1031.0215
 Red. masses --      1.9229                 1.7541                 2.1763
 Frc consts  --      1.0765                 1.0837                 1.3630
 IR Inten    --      9.2646                46.1145                16.0894

                     25                     26                     27
                      A                      A                      A
 Frequencies --   1037.9300              1063.5515              1104.8652
 Red. masses --      1.6464                 2.6704                 1.6289
 Frc consts  --      1.0450                 1.7797                 1.1715
 IR Inten    --     17.7552                21.2484                19.1612

                     28                     29                     30
                      A                      A                      A
 Frequencies --   1116.3840              1169.0325              1226.4148
 Red. masses --      1.7651                 3.1073                 1.7041
 Frc consts  --      1.2961                 2.5020                 1.5101
 IR Inten    --     13.4857               148.6558                52.9637

                     31                     32                     33
                      A                      A                      A
 Frequencies --   1295.4829              1311.3083              1361.8342
 Red. masses --      1.1992                 2.3569                 1.2707
 Frc consts  --      1.1858                 2.3878                 1.3885
 IR Inten    --     37.6539                50.6348                49.6155

                     34                     35                     36
                      A                      A                      A
 Frequencies --   1401.4851              1408.0924              1439.2408
 Red. masses --      1.2159                 1.2936                 1.3889
 Frc consts  --      1.4071                 1.5112                 1.6951
 IR Inten    --     33.9145                10.9556                11.9262

                     37                     38                     39
                      A                      A                      A
 Frequencies --   1473.9372              1478.0247              1484.3670
 Red. masses --      1.1180                 1.0977                 1.2902
 Frc consts  --      1.4311                 1.4128                 1.6750
 IR Inten    --     11.7011                 0.9639                20.2446

                     40                     41                     42
                      A                      A                      A
 Frequencies --   1508.5772              2235.4811              3000.5156
 Red. masses --      1.3358                 5.8784                 1.0669
 Frc consts  --      1.7912                17.3080                 5.6596
 IR Inten    --      9.5333                 3.3674                32.6401

                     43                     44                     45
                      A                      A                      A
 Frequencies --   3036.0239              3070.3629              3095.4938
 Red. masses --      1.0348                 1.0935                 1.0878
 Frc consts  --      5.6199                 6.0739                 6.1414
 IR Inten    --     25.1232                13.9103                25.1955

                     46                     47                     48
                      A                      A                      A
 Frequencies --   3104.2476              3115.2983              3136.3941
 Red. masses --      1.1015                 1.1009                 1.0566
 Frc consts  --      6.2537                 6.2953                 6.1236
 IR Inten    --     20.6511                22.8103                 7.5708

                     49                     50                     51
                      A                      A                      A
 Frequencies --   3236.1870              3502.6593              3764.2373
 Red. masses --      1.1153                 1.1633                 1.0652
 Frc consts  --      6.8818                 8.4086                 8.8926
 IR Inten    --      5.1428                58.7285                60.3324

 - Thermochemistry -
 -------------------
 Temperature   298.150 Kelvin.  Pressure   1.00000 Atm.
 Atom     1 has atomic number  6 and mass  12.00000

 Molecular mass:   126.06808 amu.
 Principal axes and moments of inertia in atomic units:
                           1         2         3
     Eigenvalues --   509.629281978.834832066.44859
           X            0.99989  -0.00317   0.01439
           Y            0.00290   0.99982   0.01859
           Z           -0.01444  -0.01855   0.99972
 This molecule is an asymmetric top.
 Rotational symmetry number  1.
 Warning -- assumption of classical behavior for rotation
           may cause significant error
 Rotational temperatures (Kelvin)      0.16995     0.04377     0.04191
 Rotational constants (GHZ):           3.54128     0.91202     0.87335
 Zero-point vibrational energy     407215.1 (Joules/Mol)
                                   97.32674 (Kcal/Mol)
 Warning -- explicit consideration of  14 degrees of freedom as
           vibrations may cause significant error
 Vibrational temperatures:     36.22   118.61   237.02   251.23   313.13
          (Kelvin)            355.54   440.44   478.28   497.84   529.20
                              608.43   677.45   785.60   892.07   895.72
                              983.27  1027.37  1164.82  1239.84  1331.55
                             1342.61  1402.46  1473.32  1483.41  1493.35
                             1530.21  1589.65  1606.23  1681.97  1764.54
                             1863.91  1886.68  1959.37  2016.42  2025.93
                             2070.74  2120.66  2126.55  2135.67  2170.50
                             3216.35  4317.07  4368.16  4417.56  4453.72
                             4466.31  4482.21  4512.57  4656.15  5039.54
                             5415.89

 Zero-point correction=                           0.155100 (Hartree/Particle)
 Thermal correction to Energy=                    0.165142
 Thermal correction to Enthalpy=                  0.166086
 Thermal correction to Gibbs Free Energy=         0.119483
 Sum of electronic and zero-point Energies=           -422.958247
 Sum of electronic and thermal Energies=              -422.948205
 Sum of electronic and thermal Enthalpies=            -422.947261
 Sum of electronic and thermal Free Energies=         -422.993864

                     E (Thermal)             CV                S
                      KCal/Mol        Cal/Mol-Kelvin    Cal/Mol-Kelvin
 Total                  103.628             37.020             98.085
 Electronic               0.000              0.000              0.000
 Translational            0.889              2.981             40.409
 Rotational               0.889              2.981             29.123
 Vibrational            101.851             31.058             28.553
 Vibration     1          0.593              1.985              6.178
 Vibration     2          0.600              1.961              3.832
 Vibration     3          0.623              1.886              2.495
 Vibration     4          0.627              1.874              2.385
 Vibration     5          0.646              1.814              1.979
 Vibration     6          0.661              1.768              1.751
 Vibration     7          0.697              1.662              1.383
 Vibration     8          0.714              1.611              1.248
 Vibration     9          0.724              1.583              1.184
 Vibration    10          0.740              1.538              1.089
 Vibration    11          0.785              1.420              0.882
 Vibration    12          0.828              1.315              0.735
 Vibration    13          0.901              1.148              0.552
 Vibration    14          0.980              0.990              0.416

 Normal termination of Gaussian 09 at Mon Jan 27 16:54:06 2020.
