 Gaussian 09, Revision D.01,
 Gaussian 09:  ES64L-G09RevD.01 24-Apr-2013

 -----------------------------
 # b3lyp 6-31G(2df,p) opt Freq
 -----------------------------

 -----
 titel
 -----
 Symbolic Z-matrix:
 Charge =  0 Multiplicity = 1

 SCF Done:  E(RB3LYP) =  -423.087971439     A.U. after   13 cycles
 Optimization completed.
    -- Stationary point found.
 Normal termination of Gaussian 09 at Tue Jan 28 12:48:52 2020.

 ----------------------------------------------------------------------
 #N Geom=AllCheck Guess=TCheck SCRF=Check GenChk RB3LYP/6-31G(2df,p) Fr
 eq
 ----------------------------------------------------------------------

 Structure from the checkpoint file:  "/scratch/puck/g09_84719cc2-a9b2-4c6f-b842-a446ae8fd5a1/Gau-10928.chk"
 -----
 titel
 -----
 Charge =  0 Multiplicity = 1

                         Standard orientation:
 ---------------------------------------------------------------------
 Center     Atomic      Atomic             Coordinates (Angstroms)
 Number     Number       Type             X           Y           Z
 ---------------------------------------------------------------------
      1          6           0       -3.149800   -0.368486   -0.007394
      2          6           0       -1.901343    0.442803    0.356520
      3          6           0       -0.699195    0.122495   -0.523088
      4          6           0        0.129161   -1.157598   -0.251868
      5          6           0        0.944279   -0.499071    0.908323
      6          8           0        2.242476   -0.874592    0.365167
      7          6           0        1.446193   -0.538770   -0.806958
      8          6           0        0.694742    0.658309   -0.107191
      9          8           0        1.106537    1.954214    0.092828
     10          1           0       -3.997218   -0.102543    0.631927
     11          1           0       -3.447772   -0.189491   -1.046560
     12          1           0       -2.972610   -1.443590    0.103799
     13          1           0       -2.124317    1.514469    0.273856
     14          1           0       -1.642779    0.269883    1.409021
     15          1           0       -0.939415    0.274717   -1.584365
     16          1           0       -0.157873   -2.203790   -0.319238
     17          1           0        0.799208   -0.535787    1.986640
     18          1           0        1.895228   -0.621357   -1.796659
     19          1           0        1.011217    2.442421   -0.732454
 ---------------------------------------------------------------------

 SCF Done:  E(RB3LYP) =  -423.087971439     A.U. after    1 cycles

 The electronic state is 1-A.
 Alpha  occ. eigenvalues --  -19.15657 -19.12597 -10.24800 -10.24398 -10.24239
 Alpha  occ. eigenvalues --  -10.20119 -10.19412 -10.18441 -10.17736  -1.06669
 Alpha  occ. eigenvalues --   -1.03303  -0.86733  -0.76831  -0.66208  -0.65808
 Alpha  occ. eigenvalues --   -0.63780  -0.58605  -0.54896  -0.52316  -0.48063
 Alpha  occ. eigenvalues --   -0.46080  -0.44608  -0.42269  -0.41995  -0.39582
 Alpha  occ. eigenvalues --   -0.38037  -0.36027  -0.35460  -0.34422  -0.31214
 Alpha  occ. eigenvalues --   -0.30536  -0.29390  -0.27068  -0.22684
 Alpha virt. eigenvalues --    0.06930   0.08085   0.09678   0.11310   0.11988
 Alpha virt. eigenvalues --    0.12752   0.13709   0.14095   0.15361   0.17233
 Alpha virt. eigenvalues --    0.18595   0.18756   0.19277   0.19804   0.21488

 Mulliken charges:
               1
     1  C   -0.380103
     2  C   -0.195902
     3  C   -0.101923
     4  C   -0.099202
     5  C    0.037205
     6  O   -0.327562
     7  C    0.000878
     8  C    0.354363
     9  O   -0.462174
    10  H    0.114569
    11  H    0.114012
    12  H    0.117506
    13  H    0.099317
    14  H    0.097979
    15  H    0.059911
    16  H    0.090571
    17  H    0.099917
    18  H    0.092374
    19  H    0.288262
 Sum of Mulliken charges =   0.00000

 Dipole moment (field-independent basis, Debye):
    X=             -2.2708    Y=              0.5618    Z=             -1.7203  Tot=              2.9037
 Quadrupole moment (field-independent basis, Debye-Ang):
   XX=            -60.2011   YY=            -52.3376   ZZ=            -49.4613
   XY=              1.5300   XZ=             -3.6524   YZ=             -3.1983

  Exact polarizability:  83.582  -0.825  71.571  -1.222  -0.886  69.552
 Approx polarizability: 110.820  -1.610 108.923   0.382  -1.358 110.754

                      1                      2                      3
                      A                      A                      A
 Frequencies --     78.0848               146.7329               176.5956
 Red. masses --      2.4990                 3.4588                 1.6225
 Frc consts  --      0.0090                 0.0439                 0.0298
 IR Inten    --      0.5598                 0.6165                 2.3914

                      4                      5                      6
                      A                      A                      A
 Frequencies --    224.6340               258.4999               287.9385
 Red. masses --      1.2864                 1.4854                 2.7212
 Frc consts  --      0.0382                 0.0585                 0.1329
 IR Inten    --     56.5788                 1.1495                50.8785

                      7                      8                      9
                      A                      A                      A
 Frequencies --    351.8411               386.5520               514.8119
 Red. masses --      3.8659                 3.7982                 3.2386
 Frc consts  --      0.2820                 0.3344                 0.5057
 IR Inten    --      2.0858                 6.3584                 1.1550

                     10                     11                     12
                      A                      A                      A
 Frequencies --    580.9465               688.1941               738.0973
 Red. masses --      3.1231                 3.8949                 2.4583
 Frc consts  --      0.6210                 1.0869                 0.7891
 IR Inten    --      1.2868                14.0714                 1.1387

                     13                     14                     15
                      A                      A                      A
 Frequencies --    771.5489               815.1658               836.9659
 Red. masses --      2.2095                 2.5391                 2.9516
 Frc consts  --      0.7749                 0.9941                 1.2182
 IR Inten    --      2.3931                 0.9638                16.2483

                     16                     17                     18
                      A                      A                      A
 Frequencies --    851.5119               893.8216               910.4287
 Red. masses --      2.0094                 2.3706                 2.6773
 Frc consts  --      0.8584                 1.1159                 1.3075
 IR Inten    --     10.5046                 8.8542                40.0943

                     19                     20                     21
                      A                      A                      A
 Frequencies --    919.1001               937.1615               999.3333
 Red. masses --      2.2284                 2.0798                 1.9266
 Frc consts  --      1.1091                 1.0762                 1.1336
 IR Inten    --      8.1717                 2.4731                16.8308

                     22                     23                     24
                      A                      A                      A
 Frequencies --   1021.5140              1058.9262              1077.0135
 Red. masses --      2.1982                 1.6404                 1.8264
 Frc consts  --      1.3515                 1.0838                 1.2482
 IR Inten    --      3.4445                 6.1285                11.9746

                     25                     26                     27
                      A                      A                      A
 Frequencies --   1099.0382              1126.0475              1140.8348
 Red. masses --      2.0397                 1.7088                 1.8607
 Frc consts  --      1.4516                 1.2766                 1.4269
 IR Inten    --      4.1796                 2.6849                 2.9911

                     28                     29                     30
                      A                      A                      A
 Frequencies --   1159.2689              1175.1627              1210.5247
 Red. masses --      1.8590                 1.5045                 1.8094
 Frc consts  --      1.4719                 1.2241                 1.5622
 IR Inten    --      8.7275                 0.8719                 5.7425

                     31                     32                     33
                      A                      A                      A
 Frequencies --   1233.6686              1287.9393              1296.4334
 Red. masses --      1.9983                 1.3481                 2.0907
 Frc consts  --      1.7919                 1.3176                 2.0703
 IR Inten    --     54.6822                14.0329                55.3054

                     34                     35                     36
                      A                      A                      A
 Frequencies --   1305.4570              1347.1643              1389.7919
 Red. masses --      1.6369                 1.4054                 1.9863
 Frc consts  --      1.6436                 1.5028                 2.2605
 IR Inten    --    115.5749                 3.4150                 7.7637

                     37                     38                     39
                      A                      A                      A
 Frequencies --   1411.7976              1435.8462              1484.1902
 Red. masses --      1.2490                 2.0271                 1.0634
 Frc consts  --      1.4668                 2.4622                 1.3802
 IR Inten    --      4.9655                28.9875                 1.0409

                     40                     41                     42
                      A                      A                      A
 Frequencies --   1499.6346              1506.4994              3010.6071
 Red. masses --      1.0420                 1.0711                 1.0820
 Frc consts  --      1.3806                 1.4323                 5.7783
 IR Inten    --      5.6932                 3.5039                25.9885

                     43                     44                     45
                      A                      A                      A
 Frequencies --   3019.9124              3030.9276              3052.0027
 Red. masses --      1.0606                 1.0359                 1.1010
 Frc consts  --      5.6991                 5.6070                 6.0425
 IR Inten    --     24.6471                30.6690                21.9488

                     46                     47                     48
                      A                      A                      A
 Frequencies --   3097.7156              3103.7906              3120.3365
 Red. masses --      1.1018                 1.1013                 1.0910
 Frc consts  --      6.2291                 6.2509                 6.2585
 IR Inten    --     40.4341                35.2621                48.2983

                     49                     50                     51
                      A                      A                      A
 Frequencies --   3135.2078              3160.1176              3804.4306
 Red. masses --      1.0915                 1.0961                 1.0658
 Frc consts  --      6.3215                 6.4493                 9.0884
 IR Inten    --     24.1545                17.8355                32.8706

 - Thermochemistry -
 -------------------
 Temperature   298.150 Kelvin.  Pressure   1.00000 Atm.
 Atom     1 has atomic number  6 and mass  12.00000

 Molecular mass:   126.06808 amu.
 Principal axes and moments of inertia in atomic units:
                           1         2         3
     Eigenvalues --   575.115521425.709141717.65160
           X            0.99989   0.01115  -0.00950
           Y           -0.01123   0.99990  -0.00863
           Z            0.00940   0.00874   0.99992
 This molecule is an asymmetric top.
 Rotational symmetry number  1.
 Warning -- assumption of classical behavior for rotation
           may cause significant error
 Rotational temperatures (Kelvin)      0.15060     0.06075     0.05043
 Rotational constants (GHZ):           3.13805     1.26586     1.05070
 Zero-point vibrational energy     413727.1 (Joules/Mol)
                                   98.88315 (Kcal/Mol)
 Warning -- explicit consideration of  10 degrees of freedom as
           vibrations may cause significant error
 Vibrational temperatures:    112.35   211.12   254.08   323.20   371.92
          (Kelvin)            414.28   506.22   556.16   740.70   835.85
                              990.16  1061.96  1110.09  1172.84  1204.21
                             1225.13  1286.01  1309.90  1322.38  1348.36
                             1437.82  1469.73  1523.56  1549.58  1581.27
                             1620.13  1641.40  1667.93  1690.79  1741.67
                             1774.97  1853.06  1865.28  1878.26  1938.27
                             1999.60  2031.26  2065.86  2135.42  2157.64
                             2167.51  4331.59  4344.97  4360.82  4391.15
                             4456.92  4465.66  4489.46  4510.86  4546.70
                             5473.72

 Zero-point correction=                           0.157580 (Hartree/Particle)
 Thermal correction to Energy=                    0.165996
 Thermal correction to Enthalpy=                  0.166940
 Thermal correction to Gibbs Free Energy=         0.124531
 Sum of electronic and zero-point Energies=           -422.930391
 Sum of electronic and thermal Energies=              -422.921975
 Sum of electronic and thermal Enthalpies=            -422.921031
 Sum of electronic and thermal Free Energies=         -422.963441

                     E (Thermal)             CV                S
                      KCal/Mol        Cal/Mol-Kelvin    Cal/Mol-Kelvin
 Total                  104.164             32.409             89.259
 Electronic               0.000              0.000              0.000
 Translational            0.889              2.981             40.409
 Rotational               0.889              2.981             28.734
 Vibrational            102.387             26.447             20.116
 Vibration     1          0.599              1.964              3.938
 Vibration     2          0.617              1.906              2.714
 Vibration     3          0.628              1.871              2.364
 Vibration     4          0.649              1.804              1.921
 Vibration     5          0.667              1.748              1.672
 Vibration     6          0.685              1.696              1.486
 Vibration     7          0.728              1.571              1.158
 Vibration     8          0.755              1.499              1.013
 Vibration     9          0.870              1.217              0.622
 Vibration    10          0.938              1.073              0.484

 Optimization completed.
    -- Stationary point found.
 Normal termination of Gaussian 09 at Tue Jan 28 14:51:44 2020.
