 Gaussian 09, Revision D.01,
 Gaussian 09:  ES64L-G09RevD.01 24-Apr-2013

 -----------------------------
 # b3lyp 6-31G(2df,p) opt Freq
 -----------------------------

 -----
 titel
 -----
 Symbolic Z-matrix:
 Charge =  0 Multiplicity = 1

 SCF Done:  E(RB3LYP) =  -423.202913685     A.U. after   14 cycles
 Optimization completed.
    -- Stationary point found.
 Normal termination of Gaussian 09 at Mon Jan 27 13:15:27 2020.

 ----------------------------------------------------------------------
 #N Geom=AllCheck Guess=TCheck SCRF=Check GenChk RB3LYP/6-31G(2df,p) Fr
 eq
 ----------------------------------------------------------------------

 Structure from the checkpoint file:  "/scratch/puck/g09_b4dc447b-40d6-4038-8b85-96401c3da476/Gau-38328.chk"
 -----
 titel
 -----
 Charge =  0 Multiplicity = 1

                         Standard orientation:
 ---------------------------------------------------------------------
 Center     Atomic      Atomic             Coordinates (Angstroms)
 Number     Number       Type             X           Y           Z
 ---------------------------------------------------------------------
      1          8           0        2.816404    0.590986   -0.591593
      2          6           0        2.111606   -0.284376   -0.157627
      3          6           0        0.661402   -0.116847    0.173545
      4          6           0        0.115828    1.290739    0.253465
      5          6           0       -1.405940    1.315767    0.445545
      6          6           0       -2.100189    0.434873   -0.598919
      7          6           0       -1.704930   -1.045171   -0.458916
      8          6           0       -0.227539   -1.260616   -0.172388
      9          8           0        0.211513   -1.054882    1.167608
     10          1           0        2.490315   -1.312248    0.040761
     11          1           0        0.624007    1.823471    1.064998
     12          1           0        0.397006    1.805287   -0.672703
     13          1           0       -1.654029    0.963440    1.453112
     14          1           0       -1.762441    2.347811    0.369809
     15          1           0       -3.188266    0.529247   -0.523981
     16          1           0       -1.824827    0.790260   -1.600659
     17          1           0       -2.263366   -1.512220    0.361518
     18          1           0       -1.969838   -1.594593   -1.368433
     19          1           0        0.226685   -2.135501   -0.640771
 ---------------------------------------------------------------------

 SCF Done:  E(RB3LYP) =  -423.202913685     A.U. after    1 cycles

 The electronic state is 1-A.
 Alpha  occ. eigenvalues --  -19.16551 -19.14517 -10.27304 -10.25328 -10.25053
 Alpha  occ. eigenvalues --  -10.19753 -10.19130 -10.19098 -10.18732  -1.08802
 Alpha  occ. eigenvalues --   -1.05035  -0.81986  -0.76648  -0.71921  -0.66430
 Alpha  occ. eigenvalues --   -0.62588  -0.58649  -0.54504  -0.50776  -0.47979
 Alpha  occ. eigenvalues --   -0.46671  -0.45529  -0.44071  -0.42002  -0.41124
 Alpha  occ. eigenvalues --   -0.40087  -0.38286  -0.37792  -0.34613  -0.33540
 Alpha  occ. eigenvalues --   -0.33146  -0.29730  -0.28816  -0.25311
 Alpha virt. eigenvalues --   -0.03380   0.08105   0.09332   0.11132   0.11517
 Alpha virt. eigenvalues --    0.13228   0.13476   0.15385   0.16150   0.16219
 Alpha virt. eigenvalues --    0.16712   0.17679   0.19845   0.21542   0.21723

 Mulliken charges:
               1
     1  O   -0.259233
     2  C    0.116779
     3  C    0.278914
     4  C   -0.275946
     5  C   -0.214247
     6  C   -0.199533
     7  C   -0.228053
     8  C    0.000754
     9  O   -0.282302
    10  H    0.084708
    11  H    0.115216
    12  H    0.123516
    13  H    0.113547
    14  H    0.099439
    15  H    0.100232
    16  H    0.101183
    17  H    0.122811
    18  H    0.106168
    19  H    0.096046
 Sum of Mulliken charges =   0.00000

 Dipole moment (field-independent basis, Debye):
    X=             -2.5264    Y=             -0.7348    Z=             -0.7298  Tot=              2.7304
 Quadrupole moment (field-independent basis, Debye-Ang):
   XX=            -58.3543   YY=            -51.7552   ZZ=            -54.8868
   XY=             -3.1166   XZ=              2.4608   YZ=              3.2692

  Exact polarizability:  88.290   3.659  78.307  -0.437   1.006  61.143
 Approx polarizability: 118.422  14.330 116.928  -4.456  -4.894 101.341

                      1                      2                      3
                      A                      A                      A
 Frequencies --     89.9634               130.4196               210.7026
 Red. masses --      4.2774                 2.5052                 4.2830
 Frc consts  --      0.0204                 0.0251                 0.1120
 IR Inten    --      3.6160                 1.1509                 9.3289

                      4                      5                      6
                      A                      A                      A
 Frequencies --    244.7291               299.4934               369.3499
 Red. masses --      2.4576                 1.7648                 2.6693
 Frc consts  --      0.0867                 0.0933                 0.2145
 IR Inten    --      5.0178                 1.5093                 6.1671

                      7                      8                      9
                      A                      A                      A
 Frequencies --    381.2830               444.4844               494.6106
 Red. masses --      4.0569                 2.7981                 3.4899
 Frc consts  --      0.3475                 0.3257                 0.5030
 IR Inten    --      0.3359                 5.1966                 1.5527

                     10                     11                     12
                      A                      A                      A
 Frequencies --    549.3821               639.5192               721.6345
 Red. masses --      3.3013                 2.7473                 3.6490
 Frc consts  --      0.5871                 0.6620                 1.1196
 IR Inten    --      8.0968                 7.7427                13.7584

                     13                     14                     15
                      A                      A                      A
 Frequencies --    777.5255               832.0337               843.4864
 Red. masses --      3.1391                 1.6168                 3.0660
 Frc consts  --      1.1181                 0.6594                 1.2852
 IR Inten    --      8.3146                 3.8416                18.0478

                     16                     17                     18
                      A                      A                      A
 Frequencies --    884.6357               914.9942               939.3377
 Red. masses --      2.6650                 1.9102                 2.2075
 Frc consts  --      1.2288                 0.9423                 1.1476
 IR Inten    --      6.5552                 6.2406                 8.4622

                     19                     20                     21
                      A                      A                      A
 Frequencies --    995.3880              1029.6693              1054.1264
 Red. masses --      2.3781                 1.7715                 1.7114
 Frc consts  --      1.3883                 1.1066                 1.1204
 IR Inten    --      6.4336                 3.2723                 1.1738

                     22                     23                     24
                      A                      A                      A
 Frequencies --   1080.1841              1094.1442              1118.2131
 Red. masses --      1.7450                 1.7729                 2.0679
 Frc consts  --      1.1996                 1.2505                 1.5234
 IR Inten    --      3.7819                 0.3291                 6.7873

                     25                     26                     27
                      A                      A                      A
 Frequencies --   1189.8813              1205.9650              1243.6692
 Red. masses --      1.5192                 1.4037                 2.0056
 Frc consts  --      1.2672                 1.2028                 1.8277
 IR Inten    --      7.8718                 2.5749                 8.5948

                     28                     29                     30
                      A                      A                      A
 Frequencies --   1273.7310              1300.8755              1320.2458
 Red. masses --      1.2825                 1.2065                 1.4936
 Frc consts  --      1.2259                 1.2030                 1.5339
 IR Inten    --      1.4557                 3.8526                 2.8028

                     31                     32                     33
                      A                      A                      A
 Frequencies --   1369.7857              1371.0502              1381.5140
 Red. masses --      1.4746                 1.3898                 1.7051
 Frc consts  --      1.6301                 1.5392                 1.9174
 IR Inten    --      0.8874                 1.2551                 0.4953

                     34                     35                     36
                      A                      A                      A
 Frequencies --   1392.4422              1408.1239              1448.8217
 Red. masses --      1.5650                 1.2896                 2.0660
 Frc consts  --      1.7878                 1.5066                 2.5552
 IR Inten    --      2.1917                 2.2551                15.4303

                     37                     38                     39
                      A                      A                      A
 Frequencies --   1475.8054              1481.8562              1490.0294
 Red. masses --      1.0962                 1.1906                 1.0904
 Frc consts  --      1.4066                 1.5403                 1.4263
 IR Inten    --      3.3147                 8.6148                 4.3745

                     40                     41                     42
                      A                      A                      A
 Frequencies --   1500.8175              1824.0275              2887.8264
 Red. masses --      1.0980                10.8102                 1.0842
 Frc consts  --      1.4572                21.1908                 5.3274
 IR Inten    --      2.1350               193.4078                91.5059

                     43                     44                     45
                      A                      A                      A
 Frequencies --   3022.1288              3033.9014              3040.6841
 Red. masses --      1.0669                 1.0620                 1.0599
 Frc consts  --      5.7414                 5.7595                 5.7740
 IR Inten    --     21.4473                18.9921                10.3285

                     46                     47                     48
                      A                      A                      A
 Frequencies --   3044.0430              3071.2640              3076.0206
 Red. masses --      1.0621                 1.0946                 1.0999
 Frc consts  --      5.7983                 6.0833                 6.1316
 IR Inten    --     21.1252                31.5427                18.3232

                     49                     50                     51
                      A                      A                      A
 Frequencies --   3080.1332              3090.2946              3095.7513
 Red. masses --      1.1003                 1.1027                 1.0906
 Frc consts  --      6.1501                 6.2044                 6.1580
 IR Inten    --     20.2924                38.9655                41.7570

 - Thermochemistry -
 -------------------
 Temperature   298.150 Kelvin.  Pressure   1.00000 Atm.
 Atom     1 has atomic number  8 and mass  15.99491

 Molecular mass:   126.06808 amu.
 Principal axes and moments of inertia in atomic units:
                           1         2         3
     Eigenvalues --   615.482321360.050251638.01325
           X            0.99969  -0.02148   0.01256
           Y            0.02076   0.99827   0.05510
           Z           -0.01372  -0.05482   0.99840
 This molecule is an asymmetric top.
 Rotational symmetry number  1.
 Warning -- assumption of classical behavior for rotation
           may cause significant error
 Rotational temperatures (Kelvin)      0.14073     0.06368     0.05288
 Rotational constants (GHZ):           2.93224     1.32697     1.10179
 Zero-point vibrational energy     420248.1 (Joules/Mol)
                                  100.44171 (Kcal/Mol)
 Warning -- explicit consideration of  10 degrees of freedom as
           vibrations may cause significant error
 Vibrational temperatures:    129.44   187.64   303.15   352.11   430.90
          (Kelvin)            531.41   548.58   639.51   711.63   790.44
                              920.12  1038.27  1118.68  1197.11  1213.59
                             1272.79  1316.47  1351.50  1432.14  1481.46
                             1516.65  1554.14  1574.23  1608.86  1711.97
                             1735.11  1789.36  1832.61  1871.67  1899.54
                             1970.81  1972.63  1987.69  2003.41  2025.97
                             2084.53  2123.35  2132.06  2143.82  2159.34
                             2624.37  4154.93  4348.16  4365.10  4374.86
                             4379.69  4418.86  4425.70  4431.62  4446.24
                             4454.09

 Zero-point correction=                           0.160064 (Hartree/Particle)
 Thermal correction to Energy=                    0.168088
 Thermal correction to Enthalpy=                  0.169032
 Thermal correction to Gibbs Free Energy=         0.127436
 Sum of electronic and zero-point Energies=           -423.042850
 Sum of electronic and thermal Energies=              -423.034826
 Sum of electronic and thermal Enthalpies=            -423.033881
 Sum of electronic and thermal Free Energies=         -423.075478

                     E (Thermal)             CV                S
                      KCal/Mol        Cal/Mol-Kelvin    Cal/Mol-Kelvin
 Total                  105.477             30.911             87.546
 Electronic               0.000              0.000              0.000
 Translational            0.889              2.981             40.409
 Rotational               0.889              2.981             28.707
 Vibrational            103.699             24.949             18.431
 Vibration     1          0.602              1.956              3.661
 Vibration     2          0.612              1.923              2.940
 Vibration     3          0.643              1.825              2.038
 Vibration     4          0.660              1.771              1.768
 Vibration     5          0.692              1.675              1.420
 Vibration     6          0.742              1.535              1.082
 Vibration     7          0.751              1.510              1.034
 Vibration     8          0.804              1.373              0.813
 Vibration     9          0.850              1.262              0.672
 Vibration    10          0.905              1.141              0.545

 Optimization completed.
    -- Stationary point found.
 Normal termination of Gaussian 09 at Mon Jan 27 13:59:33 2020.
