 Gaussian 09, Revision D.01,
 Gaussian 09:  ES64L-G09RevD.01 24-Apr-2013

 -----------------------------
 # b3lyp 6-31G(2df,p) opt Freq
 -----------------------------

 -----
 titel
 -----
 Symbolic Z-matrix:
 Charge =  0 Multiplicity = 1

 SCF Done:  E(RB3LYP) =  -423.133843761     A.U. after   13 cycles
 Optimization completed.
    -- Stationary point found.
 Normal termination of Gaussian 09 at Tue Jan 28 01:54:07 2020.

 ----------------------------------------------------------------------
 #N Geom=AllCheck Guess=TCheck SCRF=Check GenChk RB3LYP/6-31G(2df,p) Fr
 eq
 ----------------------------------------------------------------------

 Structure from the checkpoint file:  "/scratch/puck/g09_c47c1b15-816e-462e-a8ff-cc0c1938fe75/Gau-190774.chk"
 -----
 titel
 -----
 Charge =  0 Multiplicity = 1

                         Standard orientation:
 ---------------------------------------------------------------------
 Center     Atomic      Atomic             Coordinates (Angstroms)
 Number     Number       Type             X           Y           Z
 ---------------------------------------------------------------------
      1          6           0       -2.836528   -0.000748   -0.509150
      2          6           0       -1.561161    0.650756   -0.042837
      3          8           0       -1.094182    0.303010    1.274576
      4          6           0       -0.316564   -0.094988    0.163103
      5          6           0        0.025515   -1.548870   -0.252064
      6          6           0        1.448458   -1.035622   -0.526991
      7          8           0        1.943726   -0.526445    0.713687
      8          6           0        1.120489    0.341410   -0.093671
      9          6           0        1.652621    1.689271   -0.451539
     10          1           0       -2.953855    0.115776   -1.592294
     11          1           0       -2.841603   -1.066520   -0.267828
     12          1           0       -3.702499    0.463875   -0.026495
     13          1           0       -1.479153    1.718022   -0.260232
     14          1           0       -0.039942   -2.301290    0.536306
     15          1           0       -0.518462   -1.882287   -1.140048
     16          1           0        2.169950   -1.380066   -1.258420
     17          1           0        1.106902    2.113624   -1.300235
     18          1           0        1.553534    2.378172    0.394439
     19          1           0        2.711785    1.620914   -0.712395
 ---------------------------------------------------------------------

 SCF Done:  E(RB3LYP) =  -423.133843761     A.U. after    1 cycles

 The electronic state is 1-A.
 Alpha  occ. eigenvalues --  -19.14850 -19.14771 -10.24232 -10.24157 -10.23958
 Alpha  occ. eigenvalues --  -10.23873 -10.19193 -10.18973 -10.18650  -1.08220
 Alpha  occ. eigenvalues --   -1.06390  -0.79454  -0.74853  -0.74720  -0.64249
 Alpha  occ. eigenvalues --   -0.61554  -0.60686  -0.53369  -0.50620  -0.48959
 Alpha  occ. eigenvalues --   -0.44617  -0.43752  -0.43171  -0.42688  -0.41378
 Alpha  occ. eigenvalues --   -0.39753  -0.38618  -0.37864  -0.35602  -0.34064
 Alpha  occ. eigenvalues --   -0.29887  -0.28864  -0.27087  -0.24423
 Alpha virt. eigenvalues --    0.08087   0.09627   0.09755   0.10576   0.12305
 Alpha virt. eigenvalues --    0.12703   0.13688   0.14616   0.15524   0.15756
 Alpha virt. eigenvalues --    0.16562   0.17437   0.18484   0.18999   0.20124

 Mulliken charges:
               1
     1  C   -0.418831
     2  C   -0.030126
     3  O   -0.290610
     4  C    0.399596
     5  C   -0.358120
     6  C   -0.047500
     7  O   -0.285097
     8  C    0.331345
     9  C   -0.518147
    10  H    0.120932
    11  H    0.130977
    12  H    0.132411
    13  H    0.089560
    14  H    0.124570
    15  H    0.109465
    16  H    0.106243
    17  H    0.124550
    18  H    0.141649
    19  H    0.137134
 Sum of Mulliken charges =   0.00000

 Dipole moment (field-independent basis, Debye):
    X=             -0.7936    Y=              0.3964    Z=             -3.2132  Tot=              3.3334
 Quadrupole moment (field-independent basis, Debye-Ang):
   XX=            -52.6779   YY=            -49.6573   ZZ=            -56.1409
   XY=              0.8139   XZ=             -1.0143   YZ=              0.4623

  Exact polarizability:  87.458  -1.858  78.478   0.488   1.328  61.476
 Approx polarizability: 114.097  -7.120 112.509   3.000   2.794 103.000

                      1                      2                      3
                      A                      A                      A
 Frequencies --    116.1024               139.2353               175.4908
 Red. masses --      2.9292                 2.8329                 1.3143
 Frc consts  --      0.0233                 0.0324                 0.0238
 IR Inten    --      0.2353                 0.2666                 0.1783

                      4                      5                      6
                      A                      A                      A
 Frequencies --    188.1311               197.6857               259.0478
 Red. masses --      1.5021                 1.3988                 2.6150
 Frc consts  --      0.0313                 0.0322                 0.1034
 IR Inten    --      1.2003                 0.3374                 0.5747

                      7                      8                      9
                      A                      A                      A
 Frequencies --    325.0343               415.0107               447.8228
 Red. masses --      2.8574                 3.6202                 2.6660
 Frc consts  --      0.1779                 0.3674                 0.3150
 IR Inten    --      0.4475                 3.1783                 8.0649

                     10                     11                     12
                      A                      A                      A
 Frequencies --    469.0709               527.7894               605.3054
 Red. masses --      3.1736                 3.2889                 5.1596
 Frc consts  --      0.4114                 0.5398                 1.1138
 IR Inten    --      2.3531                 1.4225                23.0553

                     13                     14                     15
                      A                      A                      A
 Frequencies --    682.9960               768.5618               792.2667
 Red. masses --      3.9692                 4.8015                 2.7978
 Frc consts  --      1.0909                 1.6710                 1.0347
 IR Inten    --      2.6799                 7.9494                 6.0176

                     16                     17                     18
                      A                      A                      A
 Frequencies --    855.9731               880.9191               922.5087
 Red. masses --      3.1891                 2.4467                 2.1642
 Frc consts  --      1.3767                 1.1187                 1.0851
 IR Inten    --     23.8316                 7.3596                12.8440

                     19                     20                     21
                      A                      A                      A
 Frequencies --    950.8069               968.2556              1019.1458
 Red. masses --      1.6437                 1.4361                 2.3461
 Frc consts  --      0.8755                 0.7932                 1.4357
 IR Inten    --      6.3596                 5.9319                24.6812

                     22                     23                     24
                      A                      A                      A
 Frequencies --   1042.4849              1049.8825              1095.9052
 Red. masses --      1.9293                 2.7030                 2.3906
 Frc consts  --      1.2353                 1.7554                 1.6916
 IR Inten    --      2.1113                16.7994                15.7685

                     25                     26                     27
                      A                      A                      A
 Frequencies --   1096.6472              1129.0388              1152.1218
 Red. masses --      1.7107                 2.1820                 1.3317
 Frc consts  --      1.2122                 1.6388                 1.0415
 IR Inten    --     11.1399                 2.2733                 1.0866

                     28                     29                     30
                      A                      A                      A
 Frequencies --   1195.5583              1214.8240              1256.7797
 Red. masses --      1.6269                 1.8580                 1.7429
 Frc consts  --      1.3701                 1.6156                 1.6220
 IR Inten    --      4.5516                19.5937                 2.6839

                     31                     32                     33
                      A                      A                      A
 Frequencies --   1262.9021              1348.8396              1398.1067
 Red. masses --      2.0066                 1.3594                 1.3213
 Frc consts  --      1.8856                 1.4571                 1.5217
 IR Inten    --     16.3610                 9.0258                 3.2377

                     34                     35                     36
                      A                      A                      A
 Frequencies --   1408.2020              1449.3178              1462.0203
 Red. masses --      1.2661                 2.4709                 1.2744
 Frc consts  --      1.4793                 3.0580                 1.6050
 IR Inten    --      3.8090                10.7674                 5.5259

                     37                     38                     39
                      A                      A                      A
 Frequencies --   1477.0066              1483.2734              1491.4822
 Red. masses --      1.1083                 1.1792                 1.1063
 Frc consts  --      1.4245                 1.5285                 1.4499
 IR Inten    --      4.8037                 9.7079                 3.5183

                     40                     41                     42
                      A                      A                      A
 Frequencies --   1493.3406              1526.3989              3036.2757
 Red. masses --      1.0917                 3.0464                 1.0364
 Frc consts  --      1.4345                 4.1819                 5.6292
 IR Inten    --      4.1249                15.9224                17.2952

                     43                     44                     45
                      A                      A                      A
 Frequencies --   3037.1900              3065.1066              3083.1967
 Red. masses --      1.0358                 1.0583                 1.0865
 Frc consts  --      5.6298                 5.8579                 6.0854
 IR Inten    --     16.4642                20.0496                22.4900

                     46                     47                     48
                      A                      A                      A
 Frequencies --   3099.9376              3100.4927              3123.7612
 Red. masses --      1.1004                 1.1004                 1.1010
 Frc consts  --      6.2303                 6.2323                 6.3300
 IR Inten    --     13.3125                16.7688                 9.5020

                     49                     50                     51
                      A                      A                      A
 Frequencies --   3126.4854              3127.7831              3191.4660
 Red. masses --      1.1056                 1.1028                 1.0943
 Frc consts  --      6.3672                 6.3567                 6.5669
 IR Inten    --     26.5841                11.0044                17.2709

 - Thermochemistry -
 -------------------
 Temperature   298.150 Kelvin.  Pressure   1.00000 Atm.
 Atom     1 has atomic number  6 and mass  12.00000

 Molecular mass:   126.06808 amu.
 Principal axes and moments of inertia in atomic units:
                           1         2         3
     Eigenvalues --   601.442221360.530851588.90176
           X            0.99948   0.03214   0.00405
           Y           -0.03210   0.99942  -0.01122
           Z           -0.00441   0.01108   0.99993
 This molecule is an asymmetric top.
 Rotational symmetry number  1.
 Warning -- assumption of classical behavior for rotation
           may cause significant error
 Rotational temperatures (Kelvin)      0.14401     0.06366     0.05451
 Rotational constants (GHZ):           3.00069     1.32650     1.13584
 Zero-point vibrational energy     411114.6 (Joules/Mol)
                                   98.25874 (Kcal/Mol)
 Warning -- explicit consideration of  12 degrees of freedom as
           vibrations may cause significant error
 Vibrational temperatures:    167.05   200.33   252.49   270.68   284.43
          (Kelvin)            372.71   467.65   597.11   644.32   674.89
                              759.37   870.90   982.68  1105.79  1139.89
                             1231.55  1267.44  1327.28  1368.00  1393.10
                             1466.32  1499.90  1510.54  1576.76  1577.83
                             1624.43  1657.64  1720.14  1747.86  1808.22
                             1817.03  1940.68  2011.56  2026.09  2085.24
                             2103.52  2125.08  2134.10  2145.91  2148.58
                             2196.14  4368.52  4369.83  4410.00  4436.03
                             4460.11  4460.91  4494.39  4498.31  4500.18
                             4591.80

 Zero-point correction=                           0.156585 (Hartree/Particle)
 Thermal correction to Energy=                    0.165417
 Thermal correction to Enthalpy=                  0.166361
 Thermal correction to Gibbs Free Energy=         0.123380
 Sum of electronic and zero-point Energies=           -422.977258
 Sum of electronic and thermal Energies=              -422.968427
 Sum of electronic and thermal Enthalpies=            -422.967483
 Sum of electronic and thermal Free Energies=         -423.010464

                     E (Thermal)             CV                S
                      KCal/Mol        Cal/Mol-Kelvin    Cal/Mol-Kelvin
 Total                  103.801             33.436             90.462
 Electronic               0.000              0.000              0.000
 Translational            0.889              2.981             40.409
 Rotational               0.889              2.981             28.654
 Vibrational            102.023             27.474             21.399
 Vibration     1          0.608              1.936              3.164
 Vibration     2          0.615              1.914              2.814
 Vibration     3          0.627              1.873              2.376
 Vibration     4          0.633              1.856              2.246
 Vibration     5          0.637              1.843              2.155
 Vibration     6          0.668              1.747              1.668
 Vibration     7          0.709              1.625              1.285
 Vibration     8          0.778              1.438              0.909
 Vibration     9          0.807              1.366              0.802
 Vibration    10          0.826              1.319              0.740
 Vibration    11          0.883              1.188              0.592
 Vibration    12          0.964              1.021              0.441

 Normal termination of Gaussian 09 at Tue Jan 28 02:41:30 2020.
