 Gaussian 09, Revision D.01,
 Gaussian 09:  ES64L-G09RevD.01 24-Apr-2013

 -----------------------------
 # b3lyp 6-31G(2df,p) opt Freq
 -----------------------------

 -----
 titel
 -----
 Symbolic Z-matrix:
 Charge =  0 Multiplicity = 1

 SCF Done:  E(RB3LYP) =  -423.144980308     A.U. after   13 cycles
 Optimization completed.
    -- Stationary point found.
 Normal termination of Gaussian 09 at Mon Jan 27 16:07:52 2020.

 ----------------------------------------------------------------------
 #N Geom=AllCheck Guess=TCheck SCRF=Check GenChk RB3LYP/6-31G(2df,p) Fr
 eq
 ----------------------------------------------------------------------

 Structure from the checkpoint file:  "/scratch/puck/g09_7b8b112b-6ad8-43bd-82de-7539fc417e7d/Gau-29723.chk"
 -----
 titel
 -----
 Charge =  0 Multiplicity = 1

                         Standard orientation:
 ---------------------------------------------------------------------
 Center     Atomic      Atomic             Coordinates (Angstroms)
 Number     Number       Type             X           Y           Z
 ---------------------------------------------------------------------
      1          6           0        1.905707    1.008282    0.437962
      2          6           0        0.884573   -0.010927   -0.044666
      3          8           0        1.616486   -1.105027   -0.553707
      4          6           0       -0.218753    0.477889   -1.031335
      5          6           0       -0.933250    1.610350   -0.251817
      6          6           0       -1.382902    0.472645    0.682480
      7          6           0       -1.377411   -0.501130   -0.511555
      8          8           0       -0.799107   -1.571695    0.261404
      9          6           0       -0.166470   -0.477866    1.007614
     10          1           0        2.631061    0.497498    1.077281
     11          1           0        2.450358    1.436273   -0.409015
     12          1           0        1.458913    1.823012    1.010772
     13          1           0        0.979461   -1.833993   -0.595787
     14          1           0        0.064591    0.565769   -2.078358
     15          1           0       -0.339448    2.443019    0.127011
     16          1           0       -1.797191    2.005712   -0.794701
     17          1           0       -2.191649    0.538729    1.408046
     18          1           0       -2.215582   -0.776562   -1.149136
     19          1           0        0.151495   -0.761138    2.010220
 ---------------------------------------------------------------------

 SCF Done:  E(RB3LYP) =  -423.144980308     A.U. after    1 cycles

 The electronic state is 1-A.
 Alpha  occ. eigenvalues --  -19.14883 -19.12131 -10.24412 -10.24040 -10.23634
 Alpha  occ. eigenvalues --  -10.20089 -10.19171 -10.19151 -10.17418  -1.06832
 Alpha  occ. eigenvalues --   -1.00341  -0.86142  -0.74781  -0.69255  -0.66494
 Alpha  occ. eigenvalues --   -0.65055  -0.55041  -0.54088  -0.53145  -0.49495
 Alpha  occ. eigenvalues --   -0.47298  -0.45133  -0.42024  -0.40713  -0.39468
 Alpha  occ. eigenvalues --   -0.38028  -0.35834  -0.35003  -0.34108  -0.33016
 Alpha  occ. eigenvalues --   -0.31467  -0.29830  -0.26925  -0.23903
 Alpha virt. eigenvalues --    0.06899   0.10095   0.11143   0.11701   0.12697
 Alpha virt. eigenvalues --    0.14038   0.15004   0.15414   0.16240   0.16629
 Alpha virt. eigenvalues --    0.17409   0.18180   0.18480   0.20269   0.21769

 Mulliken charges:
               1
     1  C   -0.455223
     2  C    0.475276
     3  O   -0.501998
     4  C   -0.152592
     5  C   -0.266017
     6  C   -0.070458
     7  C    0.098027
     8  O   -0.313561
     9  C   -0.002917
    10  H    0.128156
    11  H    0.126428
    12  H    0.115677
    13  H    0.281613
    14  H    0.073643
    15  H    0.103798
    16  H    0.104431
    17  H    0.081363
    18  H    0.091244
    19  H    0.083112
 Sum of Mulliken charges =   0.00000

 Dipole moment (field-independent basis, Debye):
    X=             -1.4936    Y=              1.6808    Z=              0.3540  Tot=              2.2762
 Quadrupole moment (field-independent basis, Debye-Ang):
   XX=            -54.9458   YY=            -54.8249   ZZ=            -51.0491
   XY=              0.5860   XZ=              2.5215   YZ=              0.4335

  Exact polarizability:  78.464  -0.346  72.369   1.788  -0.742  68.458
 Approx polarizability: 110.343  -0.654 111.502   1.253  -0.643 106.566

                      1                      2                      3
                      A                      A                      A
 Frequencies --    161.8155               228.5826               264.3513
 Red. masses --      1.1432                 2.9561                 3.0680
 Frc consts  --      0.0176                 0.0910                 0.1263
 IR Inten    --      0.3139                 0.7856                 1.3903

                      4                      5                      6
                      A                      A                      A
 Frequencies --    384.9714               394.2443               446.0686
 Red. masses --      3.8792                 3.0795                 2.0482
 Frc consts  --      0.3387                 0.2820                 0.2401
 IR Inten    --      7.2706                 3.3441                 0.0156

                      7                      8                      9
                      A                      A                      A
 Frequencies --    506.9657               564.6886               590.1134
 Red. masses --      3.7745                 1.5224                 2.1952
 Frc consts  --      0.5716                 0.2860                 0.4504
 IR Inten    --      0.1149                36.0747                28.0905

                     10                     11                     12
                      A                      A                      A
 Frequencies --    614.4965               725.9795               763.3565
 Red. masses --      4.2771                 4.8760                 2.9902
 Frc consts  --      0.9516                 1.5141                 1.0266
 IR Inten    --     13.0326                 2.2861                 2.3762

                     13                     14                     15
                      A                      A                      A
 Frequencies --    806.4879               824.9505               852.9131
 Red. masses --      2.1985                 3.0350                 1.8120
 Frc consts  --      0.8425                 1.2169                 0.7766
 IR Inten    --      3.4072                 6.3285                12.7689

                     16                     17                     18
                      A                      A                      A
 Frequencies --    856.3500               925.1859               939.1049
 Red. masses --      2.9005                 2.0247                 3.8467
 Frc consts  --      1.2532                 1.0211                 1.9988
 IR Inten    --     17.2537                 3.7030                39.7526

                     19                     20                     21
                      A                      A                      A
 Frequencies --    957.6293               959.4829               995.3306
 Red. masses --      2.0767                 1.9579                 2.2127
 Frc consts  --      1.1221                 1.0620                 1.2916
 IR Inten    --     14.7330                10.2920                 5.6153

                     22                     23                     24
                      A                      A                      A
 Frequencies --   1020.5420              1027.4243              1070.3753
 Red. masses --      1.7385                 1.6822                 1.8850
 Frc consts  --      1.0668                 1.0462                 1.2724
 IR Inten    --     14.2273                 0.9712                 5.1565

                     25                     26                     27
                      A                      A                      A
 Frequencies --   1095.8803              1122.8322              1156.9583
 Red. masses --      1.4736                 1.9646                 1.9252
 Frc consts  --      1.0427                 1.4593                 1.5183
 IR Inten    --     16.9071                26.3160                15.3922

                     28                     29                     30
                      A                      A                      A
 Frequencies --   1173.0844              1197.4713              1203.5192
 Red. masses --      1.8260                 1.8020                 1.7493
 Frc consts  --      1.4805                 1.5224                 1.4928
 IR Inten    --      4.3158                22.3240                18.6608

                     31                     32                     33
                      A                      A                      A
 Frequencies --   1209.9624              1230.0939              1249.8696
 Red. masses --      1.3119                 1.9135                 1.7398
 Frc consts  --      1.1316                 1.7059                 1.6013
 IR Inten    --      0.4637                36.8797                 4.3886

                     34                     35                     36
                      A                      A                      A
 Frequencies --   1291.6628              1302.7131              1326.9557
 Red. masses --      1.6827                 1.9065                 1.6548
 Frc consts  --      1.6541                 1.9063                 1.7168
 IR Inten    --      6.3865                 3.3802                 8.9803

                     37                     38                     39
                      A                      A                      A
 Frequencies --   1401.0108              1432.8296              1483.7173
 Red. masses --      1.2596                 1.6593                 1.0561
 Frc consts  --      1.4566                 2.0071                 1.3698
 IR Inten    --     42.0070                80.1885                 5.6905

                     40                     41                     42
                      A                      A                      A
 Frequencies --   1495.8247              1520.6738              3049.4572
 Red. masses --      1.0746                 1.0914                 1.0365
 Frc consts  --      1.4166                 1.4869                 5.6792
 IR Inten    --      2.9072                 2.5817                14.2664

                     43                     44                     45
                      A                      A                      A
 Frequencies --   3062.0080              3115.8127              3119.6944
 Red. masses --      1.0617                 1.1012                 1.1031
 Frc consts  --      5.8650                 6.2990                 6.3254
 IR Inten    --     31.5851                11.5459                27.7840

                     46                     47                     48
                      A                      A                      A
 Frequencies --   3128.2007              3133.8610              3137.2311
 Red. masses --      1.0901                 1.0894                 1.0975
 Frc consts  --      6.2851                 6.3038                 6.3641
 IR Inten    --      8.7793                39.0371                16.1772

                     49                     50                     51
                      A                      A                      A
 Frequencies --   3138.9961              3146.6142              3715.4744
 Red. masses --      1.0914                 1.0963                 1.0639
 Frc consts  --      6.3360                 6.3956                 8.6531
 IR Inten    --     65.8026                13.8859                47.2616

 - Thermochemistry -
 -------------------
 Temperature   298.150 Kelvin.  Pressure   1.00000 Atm.
 Atom     1 has atomic number  6 and mass  12.00000

 Molecular mass:   126.06808 amu.
 Principal axes and moments of inertia in atomic units:
                           1         2         3
     Eigenvalues --   685.43596 890.294171163.03825
           X            0.99916   0.03013   0.02786
           Y           -0.03037   0.99951   0.00809
           Z           -0.02761  -0.00893   0.99958
 This molecule is an asymmetric top.
 Rotational symmetry number  1.
 Warning -- assumption of classical behavior for rotation
           may cause significant error
 Rotational temperatures (Kelvin)      0.12636     0.09729     0.07447
 Rotational constants (GHZ):           2.63298     2.02713     1.55175
 Zero-point vibrational energy     421826.1 (Joules/Mol)
                                  100.81886 (Kcal/Mol)
 Warning -- explicit consideration of  10 degrees of freedom as
           vibrations may cause significant error
 Vibrational temperatures:    232.82   328.88   380.34   553.89   567.23
          (Kelvin)            641.79   729.41   812.46   849.04   884.12
                             1044.52  1098.30  1160.35  1186.92  1227.15
                             1232.10  1331.13  1351.16  1377.81  1380.48
                             1432.06  1468.33  1478.23  1540.03  1576.73
                             1615.50  1664.60  1687.80  1722.89  1731.59
                             1740.86  1769.83  1798.28  1858.41  1874.31
                             1909.19  2015.74  2061.52  2134.74  2152.16
                             2187.91  4387.48  4405.54  4482.95  4488.54
                             4500.78  4508.92  4513.77  4516.31  4527.27
                             5345.73

 Zero-point correction=                           0.160665 (Hartree/Particle)
 Thermal correction to Energy=                    0.167737
 Thermal correction to Enthalpy=                  0.168682
 Thermal correction to Gibbs Free Energy=         0.129734
 Sum of electronic and zero-point Energies=           -422.984315
 Sum of electronic and thermal Energies=              -422.977243
 Sum of electronic and thermal Enthalpies=            -422.976299
 Sum of electronic and thermal Free Energies=         -423.015246

                     E (Thermal)             CV                S
                      KCal/Mol        Cal/Mol-Kelvin    Cal/Mol-Kelvin
 Total                  105.257             29.999             81.972
 Electronic               0.000              0.000              0.000
 Translational            0.889              2.981             40.409
 Rotational               0.889              2.981             28.053
 Vibrational            103.479             24.037             13.510
 Vibration     1          0.622              1.889              2.528
 Vibration     2          0.651              1.797              1.890
 Vibration     3          0.671              1.738              1.633
 Vibration     4          0.754              1.502              1.020
 Vibration     5          0.761              1.482              0.984
 Vibration     6          0.805              1.370              0.808
 Vibration     7          0.862              1.235              0.641
 Vibration     8          0.921              1.108              0.515
 Vibration     9          0.947              1.053              0.467
 Vibration    10          0.974              1.001              0.425

 Optimization completed.
    -- Stationary point found.
 Normal termination of Gaussian 09 at Mon Jan 27 16:58:24 2020.
