 Gaussian 09, Revision D.01,
 Gaussian 09:  ES64L-G09RevD.01 24-Apr-2013

 -----------------------------
 # b3lyp 6-31G(2df,p) opt Freq
 -----------------------------

 -----
 titel
 -----
 Symbolic Z-matrix:
 Charge =  0 Multiplicity = 1

 SCF Done:  E(RB3LYP) =  -423.222077092     A.U. after   14 cycles
 Optimization completed.
    -- Stationary point found.
 Normal termination of Gaussian 09 at Mon Jan 27 10:22:23 2020.

 ----------------------------------------------------------------------
 #N Geom=AllCheck Guess=TCheck SCRF=Check GenChk RB3LYP/6-31G(2df,p) Fr
 eq
 ----------------------------------------------------------------------

 Structure from the checkpoint file:  "/scratch/puck/g09_7662db96-b9a2-4add-8da1-f5d8d3c70c99/Gau-19675.chk"
 -----
 titel
 -----
 Charge =  0 Multiplicity = 1

                         Standard orientation:
 ---------------------------------------------------------------------
 Center     Atomic      Atomic             Coordinates (Angstroms)
 Number     Number       Type             X           Y           Z
 ---------------------------------------------------------------------
      1          6           0        2.874412    0.332624    0.719961
      2          6           0        2.158645   -0.302830   -0.486103
      3          6           0        0.685602   -0.480421   -0.270345
      4          6           0       -0.015325   -1.632327   -0.094780
      5          8           0       -1.334046   -1.383315    0.108549
      6          6           0       -1.511097   -0.024509    0.055500
      7          6           0       -2.877997    0.517267    0.250639
      8          6           0       -0.303680    0.562411   -0.170570
      9          8           0       -0.096339    1.912968   -0.244519
     10          1           0        3.938986    0.480344    0.513093
     11          1           0        2.436601    1.304127    0.970236
     12          1           0        2.780516   -0.305680    1.603354
     13          1           0        2.335216    0.317993   -1.377259
     14          1           0        2.610106   -1.274638   -0.712919
     15          1           0        0.275287   -2.670572   -0.091449
     16          1           0       -3.588383    0.094173   -0.469128
     17          1           0       -3.265254    0.309107    1.255475
     18          1           0       -2.853822    1.600904    0.113602
     19          1           0        0.710459    2.073729   -0.743041
 ---------------------------------------------------------------------

 SCF Done:  E(RB3LYP) =  -423.222077092     A.U. after    1 cycles

 The electronic state is 1-A.
 Alpha  occ. eigenvalues --  -19.18813 -19.16372 -10.22010 -10.21725 -10.21366
 Alpha  occ. eigenvalues --  -10.19583 -10.18078 -10.17937 -10.17777  -1.09209
 Alpha  occ. eigenvalues --   -1.04674  -0.80755  -0.76981  -0.74204  -0.67669
 Alpha  occ. eigenvalues --   -0.63555  -0.58909  -0.54429  -0.51842  -0.47458
 Alpha  occ. eigenvalues --   -0.45439  -0.44262  -0.43156  -0.40780  -0.39495
 Alpha  occ. eigenvalues --   -0.39016  -0.38286  -0.37768  -0.36809  -0.35861
 Alpha  occ. eigenvalues --   -0.34809  -0.31863  -0.23813  -0.19557
 Alpha virt. eigenvalues --    0.02861   0.05277   0.09103   0.12186   0.12866
 Alpha virt. eigenvalues --    0.13984   0.14603   0.15287   0.16023   0.17119
 Alpha virt. eigenvalues --    0.18994   0.19129   0.19591   0.21998   0.23415

 Mulliken charges:
               1
     1  C   -0.369835
     2  C   -0.323942
     3  C    0.160394
     4  C   -0.121211
     5  O   -0.186567
     6  C    0.289264
     7  C   -0.497833
     8  C    0.098999
     9  O   -0.449565
    10  H    0.111785
    11  H    0.121630
    12  H    0.126016
    13  H    0.094441
    14  H    0.110692
    15  H    0.129037
    16  H    0.131859
    17  H    0.132390
    18  H    0.144299
    19  H    0.298148
 Sum of Mulliken charges =   0.00000

 Dipole moment (field-independent basis, Debye):
    X=              1.5107    Y=              0.1228    Z=             -0.7081  Tot=              1.6729
 Quadrupole moment (field-independent basis, Debye-Ang):
   XX=            -49.3619   YY=            -52.5031   ZZ=            -53.7800
   XY=             -0.2501   XZ=             -1.6159   YZ=             -1.5913

  Exact polarizability: 104.240  -0.287  80.628  -4.885  -0.745  54.194
 Approx polarizability: 140.915   5.319 131.836 -10.393  -3.713  81.926

                      1                      2                      3
                      A                      A                      A
 Frequencies --     75.4751               108.6471               128.1819
 Red. masses --      2.7482                 2.9038                 1.0602
 Frc consts  --      0.0092                 0.0202                 0.0103
 IR Inten    --      3.5628                 0.4144                 7.5804

                      4                      5                      6
                      A                      A                      A
 Frequencies --    168.4137               186.1573               230.1978
 Red. masses --      1.1309                 1.8595                 1.9367
 Frc consts  --      0.0189                 0.0380                 0.0605
 IR Inten    --     94.4576                 3.8479                 2.3186

                      7                      8                      9
                      A                      A                      A
 Frequencies --    248.9731               284.4640               316.2718
 Red. masses --      3.1961                 1.6268                 4.1625
 Frc consts  --      0.1167                 0.0776                 0.2453
 IR Inten    --      7.7400                 0.2344                 3.3656

                     10                     11                     12
                      A                      A                      A
 Frequencies --    425.5395               493.0154               567.1770
 Red. masses --      5.1735                 3.1774                 3.9764
 Frc consts  --      0.5520                 0.4550                 0.7537
 IR Inten    --      1.4110                 1.0628                 0.1332

                     13                     14                     15
                      A                      A                      A
 Frequencies --    619.5586               698.2577               714.3671
 Red. masses --      3.9953                 3.4576                 5.2712
 Frc consts  --      0.9036                 0.9932                 1.5849
 IR Inten    --      2.1733                 9.2464                 1.6310

                     16                     17                     18
                      A                      A                      A
 Frequencies --    731.3859               753.8703               797.5584
 Red. masses --      1.6609                 3.2414                 1.3304
 Frc consts  --      0.5235                 1.0854                 0.4986
 IR Inten    --     11.8302                 5.2826                 1.2994

                     19                     20                     21
                      A                      A                      A
 Frequencies --    938.9203               963.7366              1023.0015
 Red. masses --      2.5663                 1.9413                 2.3960
 Frc consts  --      1.3329                 1.0623                 1.4773
 IR Inten    --     33.4627                 5.8851                24.0032

                     22                     23                     24
                      A                      A                      A
 Frequencies --   1065.3071              1073.0047              1087.5227
 Red. masses --      1.4322                 1.6579                 1.6806
 Frc consts  --      0.9577                 1.1246                 1.1711
 IR Inten    --      0.6103                 6.7685                 1.4122

                     25                     26                     27
                      A                      A                      A
 Frequencies --   1180.7444              1194.5814              1243.3542
 Red. masses --      2.7053                 4.2067                 2.2197
 Frc consts  --      2.2222                 3.5369                 2.0218
 IR Inten    --     43.9355                48.4444                23.9925

                     28                     29                     30
                      A                      A                      A
 Frequencies --   1282.3029              1301.6932              1317.6502
 Red. masses --      1.3218                 1.9787                 1.6685
 Frc consts  --      1.2806                 1.9754                 1.7068
 IR Inten    --     18.2355                54.5456                28.9073

                     31                     32                     33
                      A                      A                      A
 Frequencies --   1357.7672              1408.5090              1412.9003
 Red. masses --      1.5910                 1.2217                 1.3382
 Frc consts  --      1.7281                 1.4280                 1.5740
 IR Inten    --      2.5998                 1.5888                10.8257

                     34                     35                     36
                      A                      A                      A
 Frequencies --   1455.8995              1475.8058              1487.5337
 Red. masses --      4.3971                 1.0429                 1.0829
 Frc consts  --      5.4913                 1.3383                 1.4118
 IR Inten    --     49.3229                 5.0922                 2.4993

                     37                     38                     39
                      A                      A                      A
 Frequencies --   1493.0094              1496.0811              1511.0331
 Red. masses --      1.0925                 1.0434                 1.0707
 Frc consts  --      1.4349                 1.3760                 1.4404
 IR Inten    --      3.9171                 6.0160                 3.4702

                     40                     41                     42
                      A                      A                      A
 Frequencies --   1605.4819              1716.5710              2993.7097
 Red. masses --      5.9708                 7.3567                 1.0705
 Frc consts  --      9.0676                12.7720                 5.6530
 IR Inten    --     10.1467                16.1837                38.4921

                     43                     44                     45
                      A                      A                      A
 Frequencies --   3023.0784              3037.5443              3063.4117
 Red. masses --      1.0388                 1.0346                 1.0904
 Frc consts  --      5.5933                 5.6243                 6.0290
 IR Inten    --     45.8420                26.7100                13.0574

                     46                     47                     48
                      A                      A                      A
 Frequencies --   3070.5524              3109.0290              3114.6924
 Red. masses --      1.1000                 1.1018                 1.1023
 Frc consts  --      6.1106                 6.2750                 6.3003
 IR Inten    --     19.4246                37.1309                26.9113

                     49                     50                     51
                      A                      A                      A
 Frequencies --   3127.7741              3265.8798              3831.0938
 Red. masses --      1.0971                 1.0975                 1.0662
 Frc consts  --      6.3234                 6.8968                 9.2205
 IR Inten    --      7.4373                 0.6248                41.9550

 - Thermochemistry -
 -------------------
 Temperature   298.150 Kelvin.  Pressure   1.00000 Atm.
 Atom     1 has atomic number  6 and mass  12.00000

 Molecular mass:   126.06808 amu.
 Principal axes and moments of inertia in atomic units:
                           1         2         3
     Eigenvalues --   614.829711472.230131937.58391
           X            0.99990  -0.01428   0.00133
           Y            0.01427   0.99988   0.00556
           Z           -0.00141  -0.00554   0.99998
 This molecule is an asymmetric top.
 Rotational symmetry number  1.
 Warning -- assumption of classical behavior for rotation
           may cause significant error
 Rotational temperatures (Kelvin)      0.14087     0.05883     0.04470
 Rotational constants (GHZ):           2.93535     1.22586     0.93144
 Zero-point vibrational energy     414366.6 (Joules/Mol)
                                   99.03600 (Kcal/Mol)
 Warning -- explicit consideration of  13 degrees of freedom as
           vibrations may cause significant error
 Vibrational temperatures:    108.59   156.32   184.42   242.31   267.84
          (Kelvin)            331.20   358.22   409.28   455.04   612.26
                              709.34   816.04   891.41  1004.64  1027.81
                             1052.30  1084.65  1147.51  1350.90  1386.60
                             1471.87  1532.74  1543.81  1564.70  1698.83
                             1718.73  1788.91  1844.95  1872.84  1895.80
                             1953.52  2026.53  2032.85  2094.71  2123.35
                             2140.23  2148.10  2152.52  2174.04  2309.93
                             2469.76  4307.28  4349.53  4370.34  4407.56
                             4417.83  4473.19  4481.34  4500.16  4698.87
                             5512.08

 Zero-point correction=                           0.157824 (Hartree/Particle)
 Thermal correction to Energy=                    0.167561
 Thermal correction to Enthalpy=                  0.168505
 Thermal correction to Gibbs Free Energy=         0.123144
 Sum of electronic and zero-point Energies=           -423.064253
 Sum of electronic and thermal Energies=              -423.054516
 Sum of electronic and thermal Enthalpies=            -423.053572
 Sum of electronic and thermal Free Energies=         -423.098934

                     E (Thermal)             CV                S
                      KCal/Mol        Cal/Mol-Kelvin    Cal/Mol-Kelvin
 Total                  105.146             35.061             95.471
 Electronic               0.000              0.000              0.000
 Translational            0.889              2.981             40.409
 Rotational               0.889              2.981             28.952
 Vibrational            103.368             29.099             26.110
 Vibration     1          0.599              1.965              4.005
 Vibration     2          0.606              1.942              3.293
 Vibration     3          0.611              1.925              2.973
 Vibration     4          0.625              1.881              2.453
 Vibration     5          0.632              1.859              2.266
 Vibration     6          0.652              1.795              1.877
 Vibration     7          0.662              1.764              1.738
 Vibration     8          0.683              1.702              1.507
 Vibration     9          0.703              1.643              1.329
 Vibration    10          0.787              1.415              0.873
 Vibration    11          0.849              1.266              0.676
 Vibration    12          0.923              1.102              0.510
 Vibration    13          0.980              0.991              0.417

 Optimization completed.
    -- Stationary point found.
 Normal termination of Gaussian 09 at Mon Jan 27 11:06:32 2020.
