 Gaussian 09, Revision D.01,
 Gaussian 09:  ES64L-G09RevD.01 24-Apr-2013

 -----------------------------
 # b3lyp 6-31G(2df,p) opt Freq
 -----------------------------

 -----
 titel
 -----
 Symbolic Z-matrix:
 Charge =  0 Multiplicity = 1

 SCF Done:  E(RB3LYP) =  -423.183063221     A.U. after   14 cycles
 Optimization completed.
    -- Stationary point found.
 Normal termination of Gaussian 09 at Mon Jan 27 15:46:23 2020.

 ----------------------------------------------------------------------
 #N Geom=AllCheck Guess=TCheck SCRF=Check GenChk RB3LYP/6-31G(2df,p) Fr
 eq
 ----------------------------------------------------------------------

 Structure from the checkpoint file:  "/scratch/puck/g09_fa53a46f-3d68-4012-a0c7-2430a1db3c62/Gau-108227.chk"
 -----
 titel
 -----
 Charge =  0 Multiplicity = 1

                         Standard orientation:
 ---------------------------------------------------------------------
 Center     Atomic      Atomic             Coordinates (Angstroms)
 Number     Number       Type             X           Y           Z
 ---------------------------------------------------------------------
      1          6           0        0.863470    2.158403    0.078035
      2          6           0        0.799911    0.641501    0.178748
      3          6           0       -0.500377    0.016623   -0.334316
      4          6           0       -1.728079    0.381090    0.526448
      5          6           0       -2.941156   -0.287353    0.072202
      6          6           0       -3.928800   -0.846825   -0.322373
      7          8           0        1.900079    0.143013   -0.635754
      8          6           0        2.454036   -1.018346   -0.266241
      9          8           0        2.134405   -1.699316    0.670377
     10          1           0        0.692640    2.487870   -0.951603
     11          1           0        0.108869    2.621027    0.719751
     12          1           0        1.844694    2.519541    0.396711
     13          1           0        0.980060    0.312416    1.206761
     14          1           0       -0.669845    0.328275   -1.370739
     15          1           0       -0.385156   -1.070583   -0.334182
     16          1           0       -1.532829    0.110442    1.572707
     17          1           0       -1.891215    1.465528    0.515939
     18          1           0       -4.806885   -1.338884   -0.660116
     19          1           0        3.269757   -1.255777   -0.967229
 ---------------------------------------------------------------------

 SCF Done:  E(RB3LYP) =  -423.183063222     A.U. after    1 cycles

 The electronic state is 1-A.
 Alpha  occ. eigenvalues --  -19.18900 -19.13466 -10.30970 -10.25208 -10.21592
 Alpha  occ. eigenvalues --  -10.19623 -10.19005 -10.18238 -10.17117  -1.10522
 Alpha  occ. eigenvalues --   -1.02228  -0.82491  -0.77605  -0.72003  -0.67642
 Alpha  occ. eigenvalues --   -0.63857  -0.56944  -0.53211  -0.52588  -0.48458
 Alpha  occ. eigenvalues --   -0.47282  -0.46932  -0.44786  -0.42423  -0.40989
 Alpha  occ. eigenvalues --   -0.40299  -0.38992  -0.36522  -0.36082  -0.34100
 Alpha  occ. eigenvalues --   -0.30667  -0.28103  -0.26488  -0.26466
 Alpha virt. eigenvalues --    0.00778   0.05247   0.05583   0.08624   0.10771
 Alpha virt. eigenvalues --    0.12076   0.12576   0.13039   0.14100   0.15459
 Alpha virt. eigenvalues --    0.16236   0.17140   0.17842   0.20782   0.21659

 Mulliken charges:
               1
     1  C   -0.402875
     2  C    0.122666
     3  C   -0.194607
     4  C   -0.368364
     5  C    0.291432
     6  C   -0.426205
     7  O   -0.221248
     8  C    0.179215
     9  O   -0.308081
    10  H    0.129809
    11  H    0.127563
    12  H    0.129655
    13  H    0.113007
    14  H    0.115564
    15  H    0.135055
    16  H    0.137972
    17  H    0.133360
    18  H    0.195888
    19  H    0.110193
 Sum of Mulliken charges =   0.00000

 Dipole moment (field-independent basis, Debye):
    X=             -0.0415    Y=              1.9047    Z=             -0.7003  Tot=              2.0298
 Quadrupole moment (field-independent basis, Debye-Ang):
   XX=            -51.8560   YY=            -54.8216   ZZ=            -53.6998
   XY=              3.2387   XZ=             -1.4797   YZ=              4.2649

  Exact polarizability:  98.722   5.359  75.000   2.729   1.793  62.040
 Approx polarizability: 127.191  12.860 110.291   7.597  -1.502 101.350

                      1                      2                      3
                      A                      A                      A
 Frequencies --     44.6804                68.5146                93.9578
 Red. masses --      6.9524                 2.7472                 2.4906
 Frc consts  --      0.0082                 0.0076                 0.0130
 IR Inten    --      1.4121                 0.3809                 0.4425

                      4                      5                      6
                      A                      A                      A
 Frequencies --    114.4763               198.5918               228.4474
 Red. masses --      3.9082                 1.8374                 2.4771
 Frc consts  --      0.0302                 0.0427                 0.0762
 IR Inten    --      0.7139                 2.7402                 1.3036

                      7                      8                      9
                      A                      A                      A
 Frequencies --    246.5151               277.8450               344.4321
 Red. masses --      1.8331                 2.8418                 3.3688
 Frc consts  --      0.0656                 0.1293                 0.2355
 IR Inten    --      2.3662                 8.3361                 5.1107

                     10                     11                     12
                      A                      A                      A
 Frequencies --    399.4597               416.9514               443.6276
 Red. masses --      2.9376                 5.6548                 2.7827
 Frc consts  --      0.2762                 0.5792                 0.3227
 IR Inten    --      4.4650                 9.9701                 0.6845

                     13                     14                     15
                      A                      A                      A
 Frequencies --    549.1177               619.8979               640.2986
 Red. masses --      3.7789                 1.1992                 1.2173
 Frc consts  --      0.6713                 0.2715                 0.2940
 IR Inten    --     11.3389                43.4623                42.7383

                     16                     17                     18
                      A                      A                      A
 Frequencies --    770.9938               784.8841               845.5785
 Red. masses --      1.2421                 6.2514                 2.6444
 Frc consts  --      0.4350                 2.2690                 1.1140
 IR Inten    --      0.7883                 1.5744                12.8669

                     19                     20                     21
                      A                      A                      A
 Frequencies --    914.9967               958.2594               959.5506
 Red. masses --      2.3378                 3.5793                 1.4055
 Frc consts  --      1.1532                 1.9365                 0.7625
 IR Inten    --      5.8725                 2.5825                 1.3227

                     22                     23                     24
                      A                      A                      A
 Frequencies --   1034.3678              1045.4053              1081.7088
 Red. masses --      3.0423                 1.6781                 2.4715
 Frc consts  --      1.9178                 1.0806                 1.7038
 IR Inten    --      1.5554                 0.2458                48.6456

                     25                     26                     27
                      A                      A                      A
 Frequencies --   1135.3393              1157.9131              1210.4842
 Red. masses --      1.5413                 2.2041                 7.2539
 Frc consts  --      1.1705                 1.7411                 6.2624
 IR Inten    --      3.1163                27.9673               356.3542

                     28                     29                     30
                      A                      A                      A
 Frequencies --   1233.2922              1284.3024              1314.3522
 Red. masses --      1.4572                 1.2652                 1.1250
 Frc consts  --      1.3059                 1.2296                 1.1451
 IR Inten    --     14.4175                 3.7101                 2.2070

                     31                     32                     33
                      A                      A                      A
 Frequencies --   1365.8548              1379.1818              1400.4805
 Red. masses --      1.3448                 1.3202                 1.3815
 Frc consts  --      1.4782                 1.4795                 1.5964
 IR Inten    --      4.5052                 1.1860                 9.5649

                     34                     35                     36
                      A                      A                      A
 Frequencies --   1408.9099              1418.7368              1473.3351
 Red. masses --      1.1575                 1.3032                 1.0757
 Frc consts  --      1.3537                 1.5455                 1.3758
 IR Inten    --      3.2762                 8.7718                 2.2447

                     37                     38                     39
                      A                      A                      A
 Frequencies --   1489.1829              1490.5953              1503.9483
 Red. masses --      1.0519                 1.0798                 1.0650
 Frc consts  --      1.3744                 1.4136                 1.4192
 IR Inten    --      2.6939                 1.8317                 6.2857

                     40                     41                     42
                      A                      A                      A
 Frequencies --   1815.0556              2241.4656              3019.3525
 Red. masses --      9.4775                 5.9260                 1.0599
 Frc consts  --     18.3960                17.5419                 5.6928
 IR Inten    --    255.4804                 3.0869                12.5314

                     43                     44                     45
                      A                      A                      A
 Frequencies --   3025.2971              3046.3409              3051.2227
 Red. masses --      1.0902                 1.0404                 1.0725
 Frc consts  --      5.8788                 5.6887                 5.8828
 IR Inten    --     73.0328                 6.9947                11.0762

                     46                     47                     48
                      A                      A                      A
 Frequencies --   3055.2685              3071.0853              3109.7351
 Red. masses --      1.0842                 1.0817                 1.1030
 Frc consts  --      5.9631                 6.0111                 6.2847
 IR Inten    --     11.7909                10.0482                13.8848

                     49                     50                     51
                      A                      A                      A
 Frequencies --   3122.0668              3125.3910              3507.4924
 Red. masses --      1.1013                 1.1014                 1.1624
 Frc consts  --      6.3246                 6.3387                 8.4258
 IR Inten    --     23.2715                21.5770                68.8903

 - Thermochemistry -
 -------------------
 Temperature   298.150 Kelvin.  Pressure   1.00000 Atm.
 Atom     1 has atomic number  6 and mass  12.00000

 Molecular mass:   126.06808 amu.
 Principal axes and moments of inertia in atomic units:
                           1         2         3
     Eigenvalues --   669.194042224.735822679.43550
           X            0.99989   0.01467  -0.00142
           Y           -0.01462   0.99945   0.02978
           Z            0.00186  -0.02975   0.99956
 This molecule is an asymmetric top.
 Rotational symmetry number  1.
 Warning -- assumption of classical behavior for rotation
           may cause significant error
 Rotational temperatures (Kelvin)      0.12943     0.03893     0.03233
 Rotational constants (GHZ):           2.69689     0.81122     0.67355
 Zero-point vibrational energy     409949.7 (Joules/Mol)
                                   97.98033 (Kcal/Mol)
 Warning -- explicit consideration of  14 degrees of freedom as
           vibrations may cause significant error
 Vibrational temperatures:     64.29    98.58   135.18   164.71   285.73
          (Kelvin)            328.68   354.68   399.76   495.56   574.73
                              599.90   638.28   790.06   891.89   921.25
                             1109.29  1129.27  1216.60  1316.47  1378.72
                             1380.58  1488.22  1504.10  1556.34  1633.50
                             1665.98  1741.61  1774.43  1847.82  1891.06
                             1965.16  1984.33  2014.98  2027.10  2041.24
                             2119.80  2142.60  2144.63  2163.84  2611.46
                             3224.96  4344.17  4352.72  4383.00  4390.02
                             4395.84  4418.60  4474.21  4491.95  4496.73
                             5046.49

 Zero-point correction=                           0.156142 (Hartree/Particle)
 Thermal correction to Energy=                    0.166428
 Thermal correction to Enthalpy=                  0.167372
 Thermal correction to Gibbs Free Energy=         0.119705
 Sum of electronic and zero-point Energies=           -423.026922
 Sum of electronic and thermal Energies=              -423.016635
 Sum of electronic and thermal Enthalpies=            -423.015691
 Sum of electronic and thermal Free Energies=         -423.063358

                     E (Thermal)             CV                S
                      KCal/Mol        Cal/Mol-Kelvin    Cal/Mol-Kelvin
 Total                  104.435             36.165            100.324
 Electronic               0.000              0.000              0.000
 Translational            0.889              2.981             40.409
 Rotational               0.889              2.981             29.768
 Vibrational            102.658             30.204             30.147
 Vibration     1          0.595              1.980              5.040
 Vibration     2          0.598              1.969              4.196
 Vibration     3          0.603              1.954              3.576
 Vibration     4          0.607              1.937              3.192
 Vibration     5          0.637              1.842              2.146
 Vibration     6          0.651              1.798              1.891
 Vibration     7          0.661              1.769              1.755
 Vibration     8          0.679              1.714              1.547
 Vibration     9          0.723              1.587              1.192
 Vibration    10          0.766              1.471              0.965
 Vibration    11          0.780              1.433              0.902
 Vibration    12          0.803              1.375              0.815
 Vibration    13          0.904              1.142              0.546
 Vibration    14          0.980              0.990              0.417

 Normal termination of Gaussian 09 at Mon Jan 27 16:19:45 2020.
