 Gaussian 09, Revision D.01,
 Gaussian 09:  ES64L-G09RevD.01 24-Apr-2013

 -----------------------------
 # b3lyp 6-31G(2df,p) opt Freq
 -----------------------------

 -----
 titel
 -----
 Symbolic Z-matrix:
 Charge =  0 Multiplicity = 1

 SCF Done:  E(RB3LYP) =  -423.144468910     A.U. after   13 cycles
 Optimization completed.
    -- Stationary point found.
 Normal termination of Gaussian 09 at Mon Jan 27 18:10:17 2020.

 ----------------------------------------------------------------------
 #N Geom=AllCheck Guess=TCheck SCRF=Check GenChk RB3LYP/6-31G(2df,p) Fr
 eq
 ----------------------------------------------------------------------

 Structure from the checkpoint file:  "/scratch/puck/g09_0f9fa6b1-b7c6-4303-abe0-f33a506f8b2d/Gau-68703.chk"
 -----
 titel
 -----
 Charge =  0 Multiplicity = 1

                         Standard orientation:
 ---------------------------------------------------------------------
 Center     Atomic      Atomic             Coordinates (Angstroms)
 Number     Number       Type             X           Y           Z
 ---------------------------------------------------------------------
      1          6           0        2.433705   -0.835570    0.215901
      2          6           0        1.073630   -0.245715   -0.032397
      3          6           0        0.013168   -1.018411   -0.865740
      4          6           0       -1.105557   -0.348808   -0.020957
      5          8           0       -2.197282   -1.119662    0.380868
      6          6           0       -1.333766    1.137835   -0.411393
      7          6           0       -0.013909    1.493452    0.315444
      8          8           0        1.142532    1.138882   -0.472373
      9          6           0       -0.021290    0.111147    1.021538
     10          1           0        2.350605   -1.854718    0.605827
     11          1           0        3.005515   -0.871824   -0.718418
     12          1           0        2.993113   -0.227975    0.933238
     13          1           0        0.025111   -0.866181   -1.948913
     14          1           0        0.047291   -2.087848   -0.632573
     15          1           0       -2.733102   -1.314595   -0.396465
     16          1           0       -1.416245    1.407958   -1.468192
     17          1           0       -2.190606    1.526556    0.148884
     18          1           0        0.093286    2.471284    0.787217
     19          1           0       -0.012845   -0.099999    2.087059
 ---------------------------------------------------------------------

 SCF Done:  E(RB3LYP) =  -423.144468910     A.U. after    1 cycles

 The electronic state is 1-A.
 Alpha  occ. eigenvalues --  -19.14220 -19.12748 -10.23933 -10.23788 -10.23209
 Alpha  occ. eigenvalues --  -10.18357 -10.17769 -10.17692 -10.17629  -1.04385
 Alpha  occ. eigenvalues --   -1.02399  -0.83819  -0.77164  -0.70256  -0.66817
 Alpha  occ. eigenvalues --   -0.60549  -0.58239  -0.52316  -0.49963  -0.48003
 Alpha  occ. eigenvalues --   -0.45876  -0.44244  -0.42532  -0.41940  -0.40123
 Alpha  occ. eigenvalues --   -0.39509  -0.37959  -0.36157  -0.34055  -0.30747
 Alpha  occ. eigenvalues --   -0.28893  -0.27647  -0.25161  -0.23953
 Alpha virt. eigenvalues --    0.06893   0.09075   0.09985   0.11201   0.12910
 Alpha virt. eigenvalues --    0.13586   0.14807   0.15499   0.16071   0.16599
 Alpha virt. eigenvalues --    0.18105   0.18313   0.19312   0.19894   0.21911

 Mulliken charges:
               1
     1  C   -0.483057
     2  C    0.449555
     3  C   -0.338284
     4  C    0.397269
     5  O   -0.482619
     6  C   -0.309431
     7  C    0.107628
     8  O   -0.342831
     9  C   -0.201668
    10  H    0.118155
    11  H    0.128294
    12  H    0.125181
    13  H    0.093380
    14  H    0.102273
    15  H    0.277523
    16  H    0.095356
    17  H    0.105524
    18  H    0.079285
    19  H    0.078464
 Sum of Mulliken charges =   0.00000

 Dipole moment (field-independent basis, Debye):
    X=             -0.7406    Y=             -0.6793    Z=             -0.3113  Tot=              1.0521
 Quadrupole moment (field-independent basis, Debye-Ang):
   XX=            -52.3991   YY=            -53.0733   ZZ=            -52.4589
   XY=             -2.7960   XZ=              4.8870   YZ=              3.4461

  Exact polarizability:  82.560  -3.360  75.167   2.313   2.587  66.684
 Approx polarizability: 111.382   0.495 109.555  -0.074   1.279 103.709

                      1                      2                      3
                      A                      A                      A
 Frequencies --    181.6662               197.3457               212.5117
 Red. masses --      1.1769                 1.0787                 2.1429
 Frc consts  --      0.0229                 0.0248                 0.0570
 IR Inten    --     55.0216                14.3942                14.5213

                      4                      5                      6
                      A                      A                      A
 Frequencies --    237.0512               292.6392               366.8680
 Red. masses --      2.8852                 3.0194                 2.8363
 Frc consts  --      0.0955                 0.1523                 0.2249
 IR Inten    --      3.4478                11.4700                 7.0750

                      7                      8                      9
                      A                      A                      A
 Frequencies --    390.1341               427.2180               455.1687
 Red. masses --      3.1597                 2.8199                 2.3211
 Frc consts  --      0.2833                 0.3032                 0.2833
 IR Inten    --      2.9049                 7.8397                 4.6224

                     10                     11                     12
                      A                      A                      A
 Frequencies --    567.2470               619.5328               708.7209
 Red. masses --      3.3071                 3.5351                 3.6396
 Frc consts  --      0.6270                 0.7994                 1.0771
 IR Inten    --      1.7041                 0.7094                 1.4681

                     13                     14                     15
                      A                      A                      A
 Frequencies --    775.1407               831.6747               851.3190
 Red. masses --      2.7478                 1.9717                 1.7548
 Frc consts  --      0.9728                 0.8035                 0.7493
 IR Inten    --      1.4956                17.8207                 2.0779

                     16                     17                     18
                      A                      A                      A
 Frequencies --    863.3017               892.1612               907.0362
 Red. masses --      2.1156                 2.2832                 2.7887
 Frc consts  --      0.9290                 1.0707                 1.3517
 IR Inten    --      2.4888                 5.3873                23.1319

                     19                     20                     21
                      A                      A                      A
 Frequencies --    936.4846               966.9814               984.0741
 Red. masses --      1.8577                 2.0956                 3.0056
 Frc consts  --      0.9599                 1.1545                 1.7149
 IR Inten    --      0.8329                20.7463                28.8414

                     22                     23                     24
                      A                      A                      A
 Frequencies --    997.3837              1040.5382              1071.7692
 Red. masses --      2.1457                 2.0485                 2.1656
 Frc consts  --      1.2576                 1.3068                 1.4657
 IR Inten    --      7.0465                32.7316                40.6039

                     25                     26                     27
                      A                      A                      A
 Frequencies --   1120.8092              1136.1681              1156.2010
 Red. masses --      1.5095                 1.9708                 1.8758
 Frc consts  --      1.1172                 1.4989                 1.4774
 IR Inten    --     10.0537                14.5646                 9.7629

                     28                     29                     30
                      A                      A                      A
 Frequencies --   1175.0707              1198.2357              1217.3251
 Red. masses --      1.6547                 1.8761                 1.8019
 Frc consts  --      1.3462                 1.5870                 1.5733
 IR Inten    --     14.1962                40.1336                11.8888

                     31                     32                     33
                      A                      A                      A
 Frequencies --   1223.8545              1257.5347              1294.6929
 Red. masses --      2.0707                 1.8746                 2.2420
 Frc consts  --      1.8273                 1.7466                 2.2142
 IR Inten    --      5.6265                25.2994               123.3488

                     34                     35                     36
                      A                      A                      A
 Frequencies --   1326.7527              1338.7714              1366.8417
 Red. masses --      1.6399                 2.1489                 2.0216
 Frc consts  --      1.7008                 2.2693                 2.2253
 IR Inten    --     10.0450                29.6569                 7.2867

                     37                     38                     39
                      A                      A                      A
 Frequencies --   1409.8230              1459.4582              1474.9491
 Red. masses --      1.4623                 1.1214                 1.1491
 Frc consts  --      1.7124                 1.4073                 1.4729
 IR Inten    --     10.7959                 1.2112                 0.9862

                     40                     41                     42
                      A                      A                      A
 Frequencies --   1479.2154              1489.3397              3032.2762
 Red. masses --      1.0648                 1.0501                 1.0362
 Frc consts  --      1.3727                 1.3724                 5.6136
 IR Inten    --      3.0409                 3.4990                15.8092

                     43                     44                     45
                      A                      A                      A
 Frequencies --   3041.8758              3044.4485              3096.1872
 Red. masses --      1.0558                 1.0568                 1.0910
 Frc consts  --      5.7559                 5.7711                 6.1621
 IR Inten    --     36.1922                22.9372                54.2494

                     46                     47                     48
                      A                      A                      A
 Frequencies --   3101.0479              3105.4788              3108.3127
 Red. masses --      1.1010                 1.1077                 1.1077
 Frc consts  --      6.2380                 6.2938                 6.3054
 IR Inten    --      6.7481                 6.0632                44.3013

                     49                     50                     51
                      A                      A                      A
 Frequencies --   3115.5804              3159.7173              3792.2934
 Red. masses --      1.1023                 1.0941                 1.0657
 Frc consts  --      6.3040                 6.4356                 9.0303
 IR Inten    --     19.2996                15.7979                20.1723

 - Thermochemistry -
 -------------------
 Temperature   298.150 Kelvin.  Pressure   1.00000 Atm.
 Atom     1 has atomic number  6 and mass  12.00000

 Molecular mass:   126.06808 amu.
 Principal axes and moments of inertia in atomic units:
                           1         2         3
     Eigenvalues --   613.199081079.390441375.55992
           X            0.99718  -0.07201   0.02129
           Y            0.07136   0.99700   0.02995
           Z           -0.02338  -0.02834   0.99932
 This molecule is an asymmetric top.
 Rotational symmetry number  1.
 Warning -- assumption of classical behavior for rotation
           may cause significant error
 Rotational temperatures (Kelvin)      0.14125     0.08024     0.06297
 Rotational constants (GHZ):           2.94316     1.67200     1.31200
 Zero-point vibrational energy     415679.8 (Joules/Mol)
                                   99.34985 (Kcal/Mol)
 Warning -- explicit consideration of  11 degrees of freedom as
           vibrations may cause significant error
 Vibrational temperatures:    261.38   283.94   305.76   341.06   421.04
          (Kelvin)            527.84   561.32   614.67   654.89   816.14
                              891.37  1019.69  1115.25  1196.59  1224.86
                             1242.10  1283.62  1305.02  1347.39  1391.27
                             1415.86  1435.01  1497.10  1542.03  1612.59
                             1634.69  1663.51  1690.66  1723.99  1751.46
                             1760.85  1809.31  1862.77  1908.90  1926.19
                             1966.58  2028.42  2099.83  2122.12  2128.26
                             2142.82  4362.76  4376.58  4380.28  4454.72
                             4461.71  4468.09  4472.16  4482.62  4546.12
                             5456.26

 Zero-point correction=                           0.158324 (Hartree/Particle)
 Thermal correction to Energy=                    0.166258
 Thermal correction to Enthalpy=                  0.167202
 Thermal correction to Gibbs Free Energy=         0.126549
 Sum of electronic and zero-point Energies=           -422.986145
 Sum of electronic and thermal Energies=              -422.978211
 Sum of electronic and thermal Enthalpies=            -422.977267
 Sum of electronic and thermal Free Energies=         -423.017920

                     E (Thermal)             CV                S
                      KCal/Mol        Cal/Mol-Kelvin    Cal/Mol-Kelvin
 Total                  104.329             32.053             85.563
 Electronic               0.000              0.000              0.000
 Translational            0.889              2.981             40.409
 Rotational               0.889              2.981             28.300
 Vibrational            102.551             26.091             16.854
 Vibration     1          0.630              1.865              2.311
 Vibration     2          0.637              1.844              2.158
 Vibration     3          0.644              1.822              2.022
 Vibration     4          0.656              1.784              1.825
 Vibration     5          0.688              1.687              1.459
 Vibration     6          0.740              1.540              1.093
 Vibration     7          0.758              1.491              1.000
 Vibration     8          0.789              1.411              0.868
 Vibration     9          0.814              1.349              0.780
 Vibration    10          0.923              1.102              0.510
 Vibration    11          0.979              0.991              0.417

 Normal termination of Gaussian 09 at Mon Jan 27 18:59:05 2020.
