 Gaussian 09, Revision D.01,
 Gaussian 09:  ES64L-G09RevD.01 24-Apr-2013

 -----------------------------
 # b3lyp 6-31G(2df,p) opt Freq
 -----------------------------

 -----
 titel
 -----
 Symbolic Z-matrix:
 Charge =  0 Multiplicity = 1

 SCF Done:  E(RB3LYP) =  -423.118783832     A.U. after   14 cycles
 Optimization completed.
    -- Stationary point found.
 Normal termination of Gaussian 09 at Tue Jan 28 08:22:09 2020.

 ----------------------------------------------------------------------
 #N Geom=AllCheck Guess=TCheck SCRF=Check GenChk RB3LYP/6-31G(2df,p) Fr
 eq
 ----------------------------------------------------------------------

 Structure from the checkpoint file:  "/scratch/puck/g09_0f6d002f-6dd9-4d82-8a20-0fcfd4c583bd/Gau-60194.chk"
 -----
 titel
 -----
 Charge =  0 Multiplicity = 1

                         Standard orientation:
 ---------------------------------------------------------------------
 Center     Atomic      Atomic             Coordinates (Angstroms)
 Number     Number       Type             X           Y           Z
 ---------------------------------------------------------------------
      1          6           0        2.330987   -1.344187   -0.013856
      2          6           0        0.949509   -1.097637   -0.620581
      3          6           0        0.157762    0.047672    0.059351
      4          8           0       -0.041315   -0.237849    1.443860
      5          6           0        0.839834    1.339550   -0.109870
      6          6           0        1.405160    2.393344   -0.235971
      7          6           0       -1.224472    0.146313   -0.592661
      8          6           0       -2.444492    0.382858    0.180337
      9          8           0       -2.124195   -0.919915   -0.331099
     10          1           0        2.838613   -2.161297   -0.534101
     11          1           0        2.964515   -0.454341   -0.086265
     12          1           0        2.251873   -1.627822    1.040474
     13          1           0        1.041767   -0.867933   -1.688475
     14          1           0        0.327498   -1.993693   -0.529222
     15          1           0        0.761113    0.011551    1.911940
     16          1           0        1.900088    3.326897   -0.346702
     17          1           0       -1.183845    0.467870   -1.633850
     18          1           0       -2.370469    0.481021    1.258941
     19          1           0       -3.292793    0.872381   -0.295323
 ---------------------------------------------------------------------

 SCF Done:  E(RB3LYP) =  -423.118783832     A.U. after    1 cycles

 The electronic state is 1-A.
 Alpha  occ. eigenvalues --  -19.14903 -19.14806 -10.26748 -10.23901 -10.22825
 Alpha  occ. eigenvalues --  -10.19123 -10.18762 -10.18645 -10.17796  -1.07244
 Alpha  occ. eigenvalues --   -1.03044  -0.80600  -0.75183  -0.71606  -0.66175
 Alpha  occ. eigenvalues --   -0.61179  -0.59875  -0.56552  -0.51739  -0.48926
 Alpha  occ. eigenvalues --   -0.48197  -0.45706  -0.43819  -0.40068  -0.39428
 Alpha  occ. eigenvalues --   -0.37307  -0.36603  -0.35783  -0.34402  -0.30912
 Alpha  occ. eigenvalues --   -0.29168  -0.28245  -0.28083  -0.25671
 Alpha virt. eigenvalues --    0.02586   0.04236   0.07905   0.10429   0.11725
 Alpha virt. eigenvalues --    0.12022   0.12973   0.13442   0.15767   0.16068
 Alpha virt. eigenvalues --    0.16693   0.17736   0.18854   0.20194   0.22383

 Mulliken charges:
               1
     1  C   -0.414730
     2  C   -0.186730
     3  C    0.155131
     4  O   -0.456205
     5  C    0.313697
     6  C   -0.496042
     7  C    0.075061
     8  C   -0.176018
     9  O   -0.244883
    10  H    0.120476
    11  H    0.125651
    12  H    0.116444
    13  H    0.100839
    14  H    0.127667
    15  H    0.290129
    16  H    0.203821
    17  H    0.100268
    18  H    0.134008
    19  H    0.111418
 Sum of Mulliken charges =   0.00000

 Dipole moment (field-independent basis, Debye):
    X=              1.6887    Y=              1.8034    Z=             -0.1732  Tot=              2.4767
 Quadrupole moment (field-independent basis, Debye-Ang):
   XX=            -51.8575   YY=            -51.5524   ZZ=            -51.6993
   XY=             -2.3066   XZ=              1.0907   YZ=              0.0272

  Exact polarizability:  85.586   4.485  82.283  -2.404  -1.720  63.703
 Approx polarizability: 112.292  17.734 129.139  -6.099  -4.525  97.233

                      1                      2                      3
                      A                      A                      A
 Frequencies --     69.1468                99.1893               133.2820
 Red. masses --      3.5952                 2.2385                 1.5814
 Frc consts  --      0.0101                 0.0130                 0.0166
 IR Inten    --      6.8168                 0.1596                48.4130

                      4                      5                      6
                      A                      A                      A
 Frequencies --    142.5654               169.7473               205.8758
 Red. masses --      2.6044                 2.3614                 2.8111
 Frc consts  --      0.0312                 0.0401                 0.0702
 IR Inten    --      8.9195                37.9386                 8.4861

                      7                      8                      9
                      A                      A                      A
 Frequencies --    239.9254               281.0544               319.1388
 Red. masses --      1.4328                 2.9832                 3.1616
 Frc consts  --      0.0486                 0.1388                 0.1897
 IR Inten    --      4.9050                 4.2826                 4.2428

                     10                     11                     12
                      A                      A                      A
 Frequencies --    405.2080               419.7736               492.4541
 Red. masses --      3.3720                 3.8750                 6.1682
 Frc consts  --      0.3262                 0.4023                 0.8813
 IR Inten    --      2.4991                 2.4231                 3.1933

                     13                     14                     15
                      A                      A                      A
 Frequencies --    556.2687               608.1663               635.1236
 Red. masses --      5.1670                 3.2792                 1.2327
 Frc consts  --      0.9420                 0.7146                 0.2930
 IR Inten    --     18.2189                 5.3653                44.2130

                     16                     17                     18
                      A                      A                      A
 Frequencies --    672.9909               717.2031               792.1108
 Red. masses --      1.2573                 2.9216                 1.2693
 Frc consts  --      0.3355                 0.8854                 0.4692
 IR Inten    --     35.0920                 6.9914                 1.5922

                     19                     20                     21
                      A                      A                      A
 Frequencies --    861.2732               898.9891               955.0084
 Red. masses --      7.1099                 2.9381                 1.9956
 Frc consts  --      3.1074                 1.3990                 1.0724
 IR Inten    --     20.0467                41.2940                41.9533

                     22                     23                     24
                      A                      A                      A
 Frequencies --    988.6292               996.7593              1037.1358
 Red. masses --      2.3760                 2.1423                 1.6167
 Frc consts  --      1.3682                 1.2540                 1.0246
 IR Inten    --     10.7393                18.2761                 7.0399

                     25                     26                     27
                      A                      A                      A
 Frequencies --   1088.5052              1106.6405              1147.5042
 Red. masses --      2.4816                 1.3880                 2.3078
 Frc consts  --      1.7324                 1.0015                 1.7904
 IR Inten    --     10.1673                 0.4552                38.6876

                     28                     29                     30
                      A                      A                      A
 Frequencies --   1162.3651              1172.2996              1191.8866
 Red. masses --      1.4369                 1.3863                 2.5017
 Frc consts  --      1.1438                 1.1225                 2.0939
 IR Inten    --      3.0501                 1.3225                22.8015

                     31                     32                     33
                      A                      A                      A
 Frequencies --   1290.6933              1316.3904              1321.2293
 Red. masses --      1.4276                 1.3765                 1.4113
 Frc consts  --      1.4012                 1.4054                 1.4516
 IR Inten    --      5.3595                32.4804                24.1873

                     34                     35                     36
                      A                      A                      A
 Frequencies --   1372.3270              1406.2799              1439.6709
 Red. masses --      1.4426                 1.2651                 1.7271
 Frc consts  --      1.6007                 1.4740                 2.1090
 IR Inten    --     19.5245                 3.4569                 7.4448

                     37                     38                     39
                      A                      A                      A
 Frequencies --   1475.8778              1498.5825              1510.2142
 Red. masses --      1.0835                 1.0417                 1.0498
 Frc consts  --      1.3906                 1.3783                 1.4107
 IR Inten    --      2.6698                 4.6857                 3.2646

                     40                     41                     42
                      A                      A                      A
 Frequencies --   1518.4187              2227.1867              3038.0613
 Red. masses --      1.4451                 5.9040                 1.0386
 Frc consts  --      1.9631                17.2549                 5.6477
 IR Inten    --      3.3340                 0.8676                13.9468

                     43                     44                     45
                      A                      A                      A
 Frequencies --   3040.5060              3086.6945              3097.5013
 Red. masses --      1.0575                 1.1004                 1.0554
 Frc consts  --      5.7601                 6.1770                 5.9659
 IR Inten    --     23.8675                 0.6833                26.3895

                     46                     47                     48
                      A                      A                      A
 Frequencies --   3108.6554              3110.9758              3113.7323
 Red. masses --      1.0914                 1.0959                 1.1017
 Frc consts  --      6.2140                 6.2492                 6.2934
 IR Inten    --      9.7087                34.7115                34.2554

                     49                     50                     51
                      A                      A                      A
 Frequencies --   3203.9801              3498.2015              3838.1977
 Red. masses --      1.1166                 1.1622                 1.0666
 Frc consts  --      6.7534                 8.3799                 9.2574
 IR Inten    --     11.1557                66.2528                30.0438

 - Thermochemistry -
 -------------------
 Temperature   298.150 Kelvin.  Pressure   1.00000 Atm.
 Atom     1 has atomic number  6 and mass  12.00000

 Molecular mass:   126.06808 amu.
 Principal axes and moments of inertia in atomic units:
                           1         2         3
     Eigenvalues --   802.369961336.919431725.79666
           X            0.99732  -0.07316  -0.00280
           Y            0.07317   0.99731   0.00468
           Z            0.00245  -0.00487   0.99999
 This molecule is an asymmetric top.
 Rotational symmetry number  1.
 Warning -- assumption of classical behavior for rotation
           may cause significant error
 Rotational temperatures (Kelvin)      0.10795     0.06479     0.05019
 Rotational constants (GHZ):           2.24926     1.34993     1.04574
 Zero-point vibrational energy     407206.4 (Joules/Mol)
                                   97.32467 (Kcal/Mol)
 Warning -- explicit consideration of  14 degrees of freedom as
           vibrations may cause significant error
 Vibrational temperatures:     99.49   142.71   191.76   205.12   244.23
          (Kelvin)            296.21   345.20   404.37   459.17   583.00
                              603.96   708.53   800.35   875.01   913.80
                              968.28  1031.89  1139.67  1239.18  1293.44
                             1374.04  1422.42  1434.11  1492.21  1566.11
                             1592.21  1651.00  1672.38  1686.68  1714.86
                             1857.02  1893.99  1900.95  1974.47  2023.32
                             2071.36  2123.46  2156.12  2172.86  2184.66
                             3204.42  4371.09  4374.60  4441.06  4456.61
                             4472.66  4475.99  4479.96  4609.81  5033.13
                             5522.30

 Zero-point correction=                           0.155097 (Hartree/Particle)
 Thermal correction to Energy=                    0.165380
 Thermal correction to Enthalpy=                  0.166324
 Thermal correction to Gibbs Free Energy=         0.119862
 Sum of electronic and zero-point Energies=           -422.963687
 Sum of electronic and thermal Energies=              -422.953404
 Sum of electronic and thermal Enthalpies=            -422.952459
 Sum of electronic and thermal Free Energies=         -422.998922

                     E (Thermal)             CV                S
                      KCal/Mol        Cal/Mol-Kelvin    Cal/Mol-Kelvin
 Total                  103.778             37.255             97.789
 Electronic               0.000              0.000              0.000
 Translational            0.889              2.981             40.409
 Rotational               0.889              2.981             29.006
 Vibrational            102.000             31.293             28.375
 Vibration     1          0.598              1.969              4.178
 Vibration     2          0.604              1.950              3.470
 Vibration     3          0.613              1.920              2.898
 Vibration     4          0.616              1.911              2.769
 Vibration     5          0.625              1.880              2.438
 Vibration     6          0.640              1.832              2.080
 Vibration     7          0.657              1.779              1.803
 Vibration     8          0.681              1.709              1.527
 Vibration     9          0.705              1.637              1.315
 Vibration    10          0.770              1.459              0.944
 Vibration    11          0.782              1.427              0.893
 Vibration    12          0.848              1.267              0.677
 Vibration    13          0.912              1.126              0.531
 Vibration    14          0.967              1.015              0.436

 Normal termination of Gaussian 09 at Tue Jan 28 10:11:01 2020.
