 Gaussian 09, Revision D.01,
 Gaussian 09:  ES64L-G09RevD.01 24-Apr-2013

 -----------------------------
 # b3lyp 6-31G(2df,p) opt Freq
 -----------------------------

 -----
 titel
 -----
 Symbolic Z-matrix:
 Charge =  0 Multiplicity = 1

 SCF Done:  E(RB3LYP) =  -423.131715103     A.U. after   14 cycles
 Optimization completed.
    -- Stationary point found.
 Normal termination of Gaussian 09 at Tue Jan 28 08:52:39 2020.

 ----------------------------------------------------------------------
 #N Geom=AllCheck Guess=TCheck SCRF=Check GenChk RB3LYP/6-31G(2df,p) Fr
 eq
 ----------------------------------------------------------------------

 Structure from the checkpoint file:  "/scratch/puck/g09_85e29325-a0b1-4ec9-b076-96d11894473b/Gau-103712.chk"
 -----
 titel
 -----
 Charge =  0 Multiplicity = 1

                         Standard orientation:
 ---------------------------------------------------------------------
 Center     Atomic      Atomic             Coordinates (Angstroms)
 Number     Number       Type             X           Y           Z
 ---------------------------------------------------------------------
      1          6           0       -1.004249    1.714880   -0.445039
      2          6           0       -0.703966    0.373395    0.197252
      3          6           0       -1.970759   -0.416054    0.536320
      4          8           0       -2.650531   -0.793011   -0.642851
      5          6           0        0.396394    0.333602    1.281178
      6          6           0        1.125161   -0.649029    0.327532
      7          8           0        0.108241   -0.465588   -0.693854
      8          6           0        2.460055   -0.289818   -0.117668
      9          6           0        3.569471    0.009805   -0.470039
     10          1           0       -0.084499    2.183516   -0.803716
     11          1           0       -1.687264    1.579349   -1.287682
     12          1           0       -1.481055    2.383656    0.280211
     13          1           0       -1.699465   -1.296792    1.141401
     14          1           0       -2.660516    0.195914    1.128452
     15          1           0       -1.984341   -1.220352   -1.197333
     16          1           0        0.922555    1.277142    1.425442
     17          1           0        0.106623   -0.080374    2.248618
     18          1           0        1.124821   -1.685736    0.688030
     19          1           0        4.548811    0.271788   -0.786995
 ---------------------------------------------------------------------

 SCF Done:  E(RB3LYP) =  -423.131715103     A.U. after    1 cycles

 The electronic state is 1-A.
 Alpha  occ. eigenvalues --  -19.14407 -19.13295 -10.26489 -10.24432 -10.22732
 Alpha  occ. eigenvalues --  -10.19926 -10.18795 -10.18427 -10.17620  -1.05040
 Alpha  occ. eigenvalues --   -1.01246  -0.78263  -0.77834  -0.72717  -0.68481
 Alpha  occ. eigenvalues --   -0.65387  -0.55385  -0.53773  -0.51302  -0.49571
 Alpha  occ. eigenvalues --   -0.48262  -0.47212  -0.43167  -0.42011  -0.40196
 Alpha  occ. eigenvalues --   -0.39166  -0.37462  -0.36015  -0.32431  -0.31654
 Alpha  occ. eigenvalues --   -0.28609  -0.27875  -0.26817  -0.25514
 Alpha virt. eigenvalues --    0.01622   0.04011   0.09445   0.10591   0.10950
 Alpha virt. eigenvalues --    0.11947   0.12624   0.13487   0.14646   0.15351
 Alpha virt. eigenvalues --    0.16418   0.17844   0.18822   0.19657   0.21297

 Mulliken charges:
               1
     1  C   -0.440498
     2  C    0.409826
     3  C   -0.094099
     4  O   -0.420720
     5  C   -0.366955
     6  C   -0.032216
     7  O   -0.342280
     8  C    0.323617
     9  C   -0.445608
    10  H    0.123887
    11  H    0.139677
    12  H    0.116095
    13  H    0.079696
    14  H    0.107257
    15  H    0.292457
    16  H    0.123662
    17  H    0.114487
    18  H    0.107532
    19  H    0.204183
 Sum of Mulliken charges =   0.00000

 Dipole moment (field-independent basis, Debye):
    X=              1.3939    Y=              0.5591    Z=              1.7027  Tot=              2.2704
 Quadrupole moment (field-independent basis, Debye-Ang):
   XX=            -54.9883   YY=            -51.6500   ZZ=            -52.5255
   XY=             -0.5163   XZ=             -2.7787   YZ=             -0.3727

  Exact polarizability: 103.374   1.251  65.885  -6.726  -1.703  64.744
 Approx polarizability: 143.291   6.689  95.032 -11.989  -1.033  99.212

                      1                      2                      3
                      A                      A                      A
 Frequencies --     43.1022               102.8128               148.4089
 Red. masses --      4.3784                 4.0770                 3.5003
 Frc consts  --      0.0048                 0.0254                 0.0454
 IR Inten    --      0.0859                 2.6690                 3.7828

                      4                      5                      6
                      A                      A                      A
 Frequencies --    218.0814               223.8647               252.1698
 Red. masses --      3.6861                 1.2372                 2.7357
 Frc consts  --      0.1033                 0.0365                 0.1025
 IR Inten    --      1.2856                 0.4789                 2.6237

                      7                      8                      9
                      A                      A                      A
 Frequencies --    320.5172               330.8279               401.8031
 Red. masses --      2.2298                 2.3291                 3.4581
 Frc consts  --      0.1350                 0.1502                 0.3289
 IR Inten    --      0.9351                 1.7676                 0.3541

                     10                     11                     12
                      A                      A                      A
 Frequencies --    476.3529               495.8331               536.0232
 Red. masses --      2.7515                 1.4042                 3.5316
 Frc consts  --      0.3679                 0.2034                 0.5978
 IR Inten    --      7.7276               109.2190                 8.0763

                     13                     14                     15
                      A                      A                      A
 Frequencies --    544.0118               620.6277               672.4927
 Red. masses --      3.6457                 1.2231                 1.2759
 Frc consts  --      0.6357                 0.2776                 0.3400
 IR Inten    --      3.2160                40.4317                32.3702

                     16                     17                     18
                      A                      A                      A
 Frequencies --    701.3083               769.6244               891.3564
 Red. masses --      3.1758                 2.7862                 2.5886
 Frc consts  --      0.9203                 0.9723                 1.2118
 IR Inten    --     14.3586                10.8963                24.9026

                     19                     20                     21
                      A                      A                      A
 Frequencies --    898.5783               905.7965               963.1493
 Red. masses --      2.6200                 2.1859                 1.5499
 Frc consts  --      1.2464                 1.0567                 0.8471
 IR Inten    --      2.7438                 9.4778                10.9644

                     22                     23                     24
                      A                      A                      A
 Frequencies --    980.0171               981.9778              1054.8393
 Red. masses --      4.6011                 2.0591                 2.5066
 Frc consts  --      2.6036                 1.1699                 1.6433
 IR Inten    --     74.8397                45.8436                98.5177

                     25                     26                     27
                      A                      A                      A
 Frequencies --   1081.1217              1109.3153              1139.0934
 Red. masses --      4.0004                 1.5362                 2.0566
 Frc consts  --      2.7549                 1.1138                 1.5722
 IR Inten    --     60.2761                 4.4195                 8.6578

                     28                     29                     30
                      A                      A                      A
 Frequencies --   1204.7211              1229.8170              1267.7774
 Red. masses --      1.6332                 1.3889                 1.6558
 Frc consts  --      1.3965                 1.2377                 1.5680
 IR Inten    --     10.7299                 5.0742                10.3285

                     31                     32                     33
                      A                      A                      A
 Frequencies --   1277.0547              1300.3880              1367.3909
 Red. masses --      1.5829                 2.2483                 1.3462
 Frc consts  --      1.5210                 2.2400                 1.4830
 IR Inten    --     12.9447                13.1772                35.7191

                     34                     35                     36
                      A                      A                      A
 Frequencies --   1382.0718              1408.7760              1431.5815
 Red. masses --      1.2812                 1.3754                 1.2679
 Frc consts  --      1.4419                 1.6082                 1.5310
 IR Inten    --      1.6758                17.6946                67.1442

                     37                     38                     39
                      A                      A                      A
 Frequencies --   1479.4189              1488.9260              1496.2853
 Red. masses --      1.0581                 1.1131                 1.0599
 Frc consts  --      1.3645                 1.4538                 1.3981
 IR Inten    --      8.1767                 4.5094                 3.3104

                     40                     41                     42
                      A                      A                      A
 Frequencies --   1501.8534              2236.2346              2966.5817
 Red. masses --      1.0898                 5.9218                 1.0700
 Frc consts  --      1.4483                17.4477                 5.5479
 IR Inten    --      1.2704                 2.9351                56.8066

                     43                     44                     45
                      A                      A                      A
 Frequencies --   3016.9449              3039.0651              3067.2995
 Red. masses --      1.0834                 1.0371                 1.0918
 Frc consts  --      5.8102                 5.6433                 6.0519
 IR Inten    --     31.9543                 8.9823                32.1440

                     46                     47                     48
                      A                      A                      A
 Frequencies --   3082.6103              3112.4696              3131.7786
 Red. masses --      1.0599                 1.0987                 1.1028
 Frc consts  --      5.9338                 6.2709                 6.3730
 IR Inten    --     19.2931                17.4676                10.6886

                     49                     50                     51
                      A                      A                      A
 Frequencies --   3145.0060              3502.4998              3768.1219
 Red. masses --      1.1084                 1.1626                 1.0651
 Frc consts  --      6.4592                 8.4031                 8.9105
 IR Inten    --     13.7901                65.7013                30.3114

 - Thermochemistry -
 -------------------
 Temperature   298.150 Kelvin.  Pressure   1.00000 Atm.
 Atom     1 has atomic number  6 and mass  12.00000

 Molecular mass:   126.06808 amu.
 Principal axes and moments of inertia in atomic units:
                           1         2         3
     Eigenvalues --   499.041101859.045731938.63615
           X            0.99998  -0.00537  -0.00449
           Y            0.00482   0.99339  -0.11466
           Z            0.00507   0.11464   0.99339
 This molecule is an asymmetric top.
 Rotational symmetry number  1.
 Warning -- assumption of classical behavior for rotation
           may cause significant error
 Rotational temperatures (Kelvin)      0.17356     0.04659     0.04468
 Rotational constants (GHZ):           3.61642     0.97079     0.93093
 Zero-point vibrational energy     411322.7 (Joules/Mol)
                                   98.30848 (Kcal/Mol)
 Warning -- explicit consideration of  14 degrees of freedom as
           vibrations may cause significant error
 Vibrational temperatures:     62.01   147.92   213.53   313.77   322.09
          (Kelvin)            362.82   461.15   475.99   578.10   685.36
                              713.39   771.22   782.71   892.94   967.57
                             1009.02  1107.32  1282.46  1292.85  1303.24
                             1385.76  1410.02  1412.85  1517.68  1555.49
                             1596.06  1638.90  1733.32  1769.43  1824.05
                             1837.39  1870.97  1967.37  1988.49  2026.91
                             2059.72  2128.55  2142.23  2152.82  2160.83
                             3217.44  4268.24  4340.71  4372.53  4413.15
                             4435.18  4478.14  4505.93  4524.96  5039.31
                             5421.48

 Zero-point correction=                           0.156665 (Hartree/Particle)
 Thermal correction to Energy=                    0.166188
 Thermal correction to Enthalpy=                  0.167132
 Thermal correction to Gibbs Free Energy=         0.122082
 Sum of electronic and zero-point Energies=           -422.975051
 Sum of electronic and thermal Energies=              -422.965527
 Sum of electronic and thermal Enthalpies=            -422.964583
 Sum of electronic and thermal Free Energies=         -423.009633

                     E (Thermal)             CV                S
                      KCal/Mol        Cal/Mol-Kelvin    Cal/Mol-Kelvin
 Total                  104.284             35.633             94.815
 Electronic               0.000              0.000              0.000
 Translational            0.889              2.981             40.409
 Rotational               0.889              2.981             28.977
 Vibrational            102.507             29.672             25.430
 Vibration     1          0.595              1.980              5.111
 Vibration     2          0.605              1.947              3.400
 Vibration     3          0.618              1.904              2.693
 Vibration     4          0.646              1.814              1.975
 Vibration     5          0.649              1.805              1.928
 Vibration     6          0.664              1.759              1.715
 Vibration     7          0.706              1.634              1.307
 Vibration     8          0.713              1.614              1.256
 Vibration     9          0.767              1.466              0.956
 Vibration    10          0.833              1.303              0.720
 Vibration    11          0.851              1.259              0.669
 Vibration    12          0.891              1.170              0.574
 Vibration    13          0.899              1.153              0.557
 Vibration    14          0.981              0.988              0.416

 Optimization completed.
    -- Stationary point found.
 Normal termination of Gaussian 09 at Tue Jan 28 09:32:20 2020.
