 Gaussian 09, Revision D.01,
 Gaussian 09:  ES64L-G09RevD.01 24-Apr-2013

 -----------------------------
 # b3lyp 6-31G(2df,p) opt Freq
 -----------------------------

 -----
 titel
 -----
 Symbolic Z-matrix:
 Charge =  0 Multiplicity = 1

 SCF Done:  E(RB3LYP) =  -423.190604977     A.U. after   15 cycles
 Optimization completed.
    -- Stationary point found.
 Normal termination of Gaussian 09 at Tue Jan 28 08:21:10 2020.

 ----------------------------------------------------------------------
 #N Geom=AllCheck Guess=TCheck SCRF=Check GenChk RB3LYP/6-31G(2df,p) Fr
 eq
 ----------------------------------------------------------------------

 Structure from the checkpoint file:  "/scratch/puck/g09_e9f3e13c-fc81-4984-aad3-2b15e7b1318f/Gau-106667.chk"
 -----
 titel
 -----
 Charge =  0 Multiplicity = 1

                         Standard orientation:
 ---------------------------------------------------------------------
 Center     Atomic      Atomic             Coordinates (Angstroms)
 Number     Number       Type             X           Y           Z
 ---------------------------------------------------------------------
      1          6           0       -1.524751   -2.301079    0.146443
      2          6           0       -1.863102   -0.851622   -0.206065
      3          6           0       -0.780849    0.139750    0.238831
      4          8           0        0.431586   -0.189669   -0.487021
      5          6           0        1.605945    0.010673    0.161827
      6          6           0        2.764981   -0.328503   -0.743398
      7          8           0        1.692872    0.404649    1.295403
      8          6           0       -1.153949    1.526440   -0.028491
      9          6           0       -1.489921    2.657623   -0.253275
     10          1           0       -1.400837   -2.428666    1.227400
     11          1           0       -2.323038   -2.973569   -0.180090
     12          1           0       -0.597428   -2.616211   -0.339023
     13          1           0       -2.010550   -0.740094   -1.285559
     14          1           0       -2.799510   -0.548238    0.274005
     15          1           0       -0.568162    0.023621    1.306472
     16          1           0        3.694321   -0.273633   -0.177903
     17          1           0        2.637625   -1.326422   -1.170604
     18          1           0        2.797882    0.380572   -1.576114
     19          1           0       -1.776087    3.663113   -0.440873
 ---------------------------------------------------------------------

 SCF Done:  E(RB3LYP) =  -423.190604977     A.U. after    1 cycles

 The electronic state is 1-A.
 Alpha  occ. eigenvalues --  -19.18243 -19.12612 -10.30885 -10.26399 -10.19517
 Alpha  occ. eigenvalues --  -10.19470 -10.18581 -10.18103 -10.18078  -1.09994
 Alpha  occ. eigenvalues --   -1.01550  -0.81661  -0.75410  -0.74737  -0.69291
 Alpha  occ. eigenvalues --   -0.61235  -0.58486  -0.53670  -0.49969  -0.49131
 Alpha  occ. eigenvalues --   -0.47126  -0.45334  -0.44027  -0.42146  -0.40639
 Alpha  occ. eigenvalues --   -0.39067  -0.37049  -0.36715  -0.35672  -0.34464
 Alpha  occ. eigenvalues --   -0.30866  -0.28033  -0.27093  -0.26926
 Alpha virt. eigenvalues --    0.01285   0.03415   0.05033   0.09552   0.11308
 Alpha virt. eigenvalues --    0.12434   0.13625   0.14097   0.14717   0.16456
 Alpha virt. eigenvalues --    0.16745   0.17515   0.18555   0.20724   0.23291

 Mulliken charges:
               1
     1  C   -0.395147
     2  C   -0.184176
     3  C   -0.063378
     4  O   -0.249569
     5  C    0.439286
     6  C   -0.482137
     7  O   -0.346047
     8  C    0.339429
     9  C   -0.451601
    10  H    0.120926
    11  H    0.117910
    12  H    0.128364
    13  H    0.117965
    14  H    0.116086
    15  H    0.137672
    16  H    0.149190
    17  H    0.148099
    18  H    0.155295
    19  H    0.201835
 Sum of Mulliken charges =   0.00000

 Dipole moment (field-independent basis, Debye):
    X=             -0.6464    Y=             -0.8506    Z=             -1.5784  Tot=              1.9060
 Quadrupole moment (field-independent basis, Debye-Ang):
   XX=            -49.4397   YY=            -48.6240   ZZ=            -56.2826
   XY=             -2.1768   XZ=             -4.5494   YZ=             -2.0729

  Exact polarizability:  83.195  -6.535  89.596   0.648  -1.522  63.182
 Approx polarizability: 104.824 -11.637 129.241   5.197  -1.503 103.567

                      1                      2                      3
                      A                      A                      A
 Frequencies --     26.7631                62.1885                89.5570
 Red. masses --      6.0966                 1.5342                 1.6377
 Frc consts  --      0.0026                 0.0035                 0.0077
 IR Inten    --      1.3466                 1.4683                 0.6395

                      4                      5                      6
                      A                      A                      A
 Frequencies --    103.7089               136.6378               177.0205
 Red. masses --      2.2342                 3.8893                 1.8631
 Frc consts  --      0.0142                 0.0428                 0.0344
 IR Inten    --      0.2968                 1.4770                 2.1303

                      7                      8                      9
                      A                      A                      A
 Frequencies --    245.7136               256.1837               300.6719
 Red. masses --      1.7385                 3.2880                 3.6004
 Frc consts  --      0.0618                 0.1271                 0.1918
 IR Inten    --      3.0153                 1.8600                 1.6767

                     10                     11                     12
                      A                      A                      A
 Frequencies --    384.6130               432.7639               519.1087
 Red. masses --      3.3690                 3.0689                 4.9792
 Frc consts  --      0.2936                 0.3386                 0.7906
 IR Inten    --      1.8664                 0.8958                 8.8320

                     13                     14                     15
                      A                      A                      A
 Frequencies --    553.8409               607.6295               624.6844
 Red. masses --      4.3214                 3.0887                 1.2352
 Frc consts  --      0.7810                 0.6719                 0.2840
 IR Inten    --      8.5871                 7.6491                40.9698

                     16                     17                     18
                      A                      A                      A
 Frequencies --    648.0861               675.0036               769.0534
 Red. masses --      4.3761                 1.2529                 1.3822
 Frc consts  --      1.0829                 0.3363                 0.4817
 IR Inten    --      5.6230                32.8904                 2.0254

                     19                     20                     21
                      A                      A                      A
 Frequencies --    880.0969               899.7981               971.0608
 Red. masses --      1.9433                 2.9444                 2.8926
 Frc consts  --      0.8868                 1.4046                 1.6071
 IR Inten    --      4.5111                15.3918                34.2033

                     22                     23                     24
                      A                      A                      A
 Frequencies --    998.1243              1027.2262              1059.9684
 Red. masses --      3.8410                 1.8252                 2.4662
 Frc consts  --      2.2546                 1.1347                 1.6325
 IR Inten    --     14.9455                81.5945                54.0147

                     25                     26                     27
                      A                      A                      A
 Frequencies --   1063.8188              1114.4836              1156.7810
 Red. masses --      1.8238                 2.1133                 2.2190
 Frc consts  --      1.2161                 1.5465                 1.7495
 IR Inten    --      7.6727                38.6069                 5.7833

                     28                     29                     30
                      A                      A                      A
 Frequencies --   1248.9198              1284.2500              1315.0533
 Red. masses --      3.0278                 1.3444                 1.2215
 Frc consts  --      2.7826                 1.3064                 1.2446
 IR Inten    --    333.3516                32.1568                14.4359

                     31                     32                     33
                      A                      A                      A
 Frequencies --   1362.5327              1389.6087              1396.3671
 Red. masses --      1.2722                 1.4186                 1.3808
 Frc consts  --      1.3915                 1.6140                 1.5863
 IR Inten    --      7.4673                17.8697                39.6112

                     34                     35                     36
                      A                      A                      A
 Frequencies --   1410.7272              1468.9081              1475.7176
 Red. masses --      1.2577                 1.0499                 1.0477
 Frc consts  --      1.4747                 1.3347                 1.3443
 IR Inten    --      1.5436                11.0716                 7.4792

                     37                     38                     39
                      A                      A                      A
 Frequencies --   1478.4701              1497.7696              1509.1213
 Red. masses --      1.0746                 1.0428                 1.0549
 Frc consts  --      1.3839                 1.3782                 1.4155
 IR Inten    --      0.6525                 5.5785                 4.5051

                     40                     41                     42
                      A                      A                      A
 Frequencies --   1830.1476              2240.7487              3040.2971
 Red. masses --     11.3318                 5.9007                 1.0373
 Frc consts  --     22.3626                17.4558                 5.6494
 IR Inten    --    215.2721                 1.3425                19.4794

                     43                     44                     45
                      A                      A                      A
 Frequencies --   3048.0143              3057.7648              3065.2648
 Red. masses --      1.0602                 1.0364                 1.0828
 Frc consts  --      5.8030                 5.7095                 5.9943
 IR Inten    --     18.4826                 1.9263                 2.7915

                     46                     47                     48
                      A                      A                      A
 Frequencies --   3087.6298              3109.6354              3123.4925
 Red. masses --      1.0999                 1.1010                 1.1016
 Frc consts  --      6.1780                 6.2729                 6.3322
 IR Inten    --      6.5387                31.7404                28.2509

                     49                     50                     51
                      A                      A                      A
 Frequencies --   3123.7618              3169.7955              3503.4154
 Red. masses --      1.0989                 1.1031                 1.1632
 Frc consts  --      6.3180                 6.5303                 8.4121
 IR Inten    --      5.0353                 6.9965                64.2881

 - Thermochemistry -
 -------------------
 Temperature   298.150 Kelvin.  Pressure   1.00000 Atm.
 Atom     1 has atomic number  6 and mass  12.00000

 Molecular mass:   126.06808 amu.
 Principal axes and moments of inertia in atomic units:
                           1         2         3
     Eigenvalues --   985.824581400.123032037.28114
           X            0.99877   0.04285  -0.02489
           Y           -0.04305   0.99905  -0.00742
           Z            0.02455   0.00848   0.99966
 This molecule is an asymmetric top.
 Rotational symmetry number  1.
 Warning -- assumption of classical behavior for rotation
           may cause significant error
 Rotational temperatures (Kelvin)      0.08786     0.06186     0.04251
 Rotational constants (GHZ):           1.83069     1.28899     0.88586
 Zero-point vibrational energy     406861.9 (Joules/Mol)
                                   97.24233 (Kcal/Mol)
 Warning -- explicit consideration of  14 degrees of freedom as
           vibrations may cause significant error
 Vibrational temperatures:     38.51    89.48   128.85   149.21   196.59
          (Kelvin)            254.69   353.53   368.59   432.60   553.37
                              622.65   746.88   796.85   874.24   898.78
                              932.45   971.18  1106.49  1266.26  1294.61
                             1397.14  1436.08  1477.95  1525.06  1530.60
                             1603.49  1664.35  1796.91  1847.75  1892.07
                             1960.38  1999.33  2009.06  2029.72  2113.43
                             2123.23  2127.19  2154.95  2171.29  2633.17
                             3223.93  4374.30  4385.41  4399.44  4410.23
                             4442.41  4474.07  4494.00  4494.39  4560.62
                             5040.63

 Zero-point correction=                           0.154966 (Hartree/Particle)
 Thermal correction to Energy=                    0.165699
 Thermal correction to Enthalpy=                  0.166643
 Thermal correction to Gibbs Free Energy=         0.117579
 Sum of electronic and zero-point Energies=           -423.035639
 Sum of electronic and thermal Energies=              -423.024906
 Sum of electronic and thermal Enthalpies=            -423.023962
 Sum of electronic and thermal Free Energies=         -423.073026

                     E (Thermal)             CV                S
                      KCal/Mol        Cal/Mol-Kelvin    Cal/Mol-Kelvin
 Total                  103.977             37.182            103.264
 Electronic               0.000              0.000              0.000
 Translational            0.889              2.981             40.409
 Rotational               0.889              2.981             29.421
 Vibrational            102.200             31.221             33.435
 Vibration     1          0.593              1.984              6.056
 Vibration     2          0.597              1.972              4.387
 Vibration     3          0.602              1.957              3.670
 Vibration     4          0.605              1.946              3.383
 Vibration     5          0.614              1.917              2.850
 Vibration     6          0.628              1.871              2.360
 Vibration     7          0.660              1.770              1.761
 Vibration     8          0.666              1.752              1.688
 Vibration     9          0.693              1.672              1.413
 Vibration    10          0.754              1.503              1.021
 Vibration    11          0.794              1.399              0.850
 Vibration    12          0.874              1.208              0.612
 Vibration    13          0.909              1.131              0.536
 Vibration    14          0.966              1.016              0.437

 Optimization completed.
    -- Stationary point found.
 Normal termination of Gaussian 09 at Tue Jan 28 09:02:05 2020.
