 Gaussian 09, Revision D.01,
 Gaussian 09:  ES64L-G09RevD.01 24-Apr-2013

 -----------------------------
 # b3lyp 6-31G(2df,p) opt Freq
 -----------------------------

 -----
 titel
 -----
 Symbolic Z-matrix:
 Charge =  0 Multiplicity = 1

 SCF Done:  E(RB3LYP) =  -423.120317522     A.U. after   14 cycles
 Optimization completed.
    -- Stationary point found.
 Normal termination of Gaussian 09 at Tue Jan 28 08:59:45 2020.

 ----------------------------------------------------------------------
 #N Geom=AllCheck Guess=TCheck SCRF=Check GenChk RB3LYP/6-31G(2df,p) Fr
 eq
 ----------------------------------------------------------------------

 Structure from the checkpoint file:  "/scratch/puck/g09_017896dc-6ecd-4a3e-a618-49c21adc0094/Gau-15872.chk"
 -----
 titel
 -----
 Charge =  0 Multiplicity = 1

                         Standard orientation:
 ---------------------------------------------------------------------
 Center     Atomic      Atomic             Coordinates (Angstroms)
 Number     Number       Type             X           Y           Z
 ---------------------------------------------------------------------
      1          8           0       -1.446950    1.965061    0.108920
      2          6           0       -0.457203    1.335423   -0.689724
      3          6           0        0.392363    0.344748    0.092019
      4          6           0       -0.389660   -0.688779    0.908124
      5          6           0       -1.574945   -1.201357    0.224754
      6          6           0       -2.571423   -1.578314   -0.334332
      7          6           0        1.701761    0.821849    0.690750
      8          6           0        1.698479   -0.068186   -0.528989
      9          8           0        2.072695   -1.410482   -0.408152
     10          1           0       -2.166438    1.331896    0.209751
     11          1           0       -0.914936    0.822095   -1.546871
     12          1           0        0.179531    2.134327   -1.085259
     13          1           0        0.277163   -1.518997    1.159346
     14          1           0       -0.704450   -0.227551    1.851947
     15          1           0       -3.438530   -1.944047   -0.826452
     16          1           0        1.972502    1.867273    0.584090
     17          1           0        2.016143    0.363064    1.623444
     18          1           0        1.952866    0.384974   -1.488261
     19          1           0        3.023964   -1.441978   -0.263492
 ---------------------------------------------------------------------

 SCF Done:  E(RB3LYP) =  -423.120317522     A.U. after    1 cycles

 The electronic state is 1-A.
 Alpha  occ. eigenvalues --  -19.14987 -19.12818 -10.23908 -10.22454 -10.20718
 Alpha  occ. eigenvalues --  -10.20072 -10.18601 -10.18583 -10.17454  -1.03450
 Alpha  occ. eigenvalues --   -1.01015  -0.86353  -0.77766  -0.70660  -0.68490
 Alpha  occ. eigenvalues --   -0.61255  -0.56181  -0.53521  -0.51607  -0.50166
 Alpha  occ. eigenvalues --   -0.48088  -0.45381  -0.44931  -0.42985  -0.40420
 Alpha  occ. eigenvalues --   -0.38639  -0.37524  -0.33832  -0.32706  -0.28632
 Alpha  occ. eigenvalues --   -0.27322  -0.26397  -0.26372  -0.25570
 Alpha virt. eigenvalues --    0.04865   0.05442   0.07176   0.09445   0.10368
 Alpha virt. eigenvalues --    0.12064   0.12542   0.13111   0.15485   0.15984
 Alpha virt. eigenvalues --    0.16836   0.17979   0.20246   0.21532   0.23138

 Mulliken charges:
               1
     1  O   -0.426872
     2  C   -0.142412
     3  C    0.308847
     4  C   -0.431102
     5  C    0.290001
     6  C   -0.455181
     7  C   -0.373022
     8  C    0.064453
     9  O   -0.419635
    10  H    0.289426
    11  H    0.105755
    12  H    0.098704
    13  H    0.150224
    14  H    0.138655
    15  H    0.198484
    16  H    0.115088
    17  H    0.111525
    18  H    0.086253
    19  H    0.290808
 Sum of Mulliken charges =   0.00000

 Dipole moment (field-independent basis, Debye):
    X=              1.5258    Y=             -0.5144    Z=             -0.0775  Tot=              1.6120
 Quadrupole moment (field-independent basis, Debye-Ang):
   XX=            -42.8449   YY=            -59.5051   ZZ=            -52.0044
   XY=              2.9082   XZ=              1.9681   YZ=             -1.7199

  Exact polarizability:  94.462   8.112  72.230   7.346   2.299  65.044
 Approx polarizability: 133.825  12.123 103.308  15.986   7.776 101.449

                      1                      2                      3
                      A                      A                      A
 Frequencies --     49.2643                88.1285               139.4731
 Red. masses --      4.0939                 4.0351                 3.7101
 Frc consts  --      0.0059                 0.0185                 0.0425
 IR Inten    --      0.6276                 3.5758                 1.0725

                      4                      5                      6
                      A                      A                      A
 Frequencies --    183.6282               238.8449               283.9909
 Red. masses --      3.8885                 3.5218                 1.9448
 Frc consts  --      0.0773                 0.1184                 0.0924
 IR Inten    --      0.9000                 8.8511                24.9219

                      7                      8                      9
                      A                      A                      A
 Frequencies --    290.7688               340.4916               357.0573
 Red. masses --      1.5480                 2.9754                 2.7687
 Frc consts  --      0.0771                 0.2032                 0.2080
 IR Inten    --     56.7816                 8.2818                17.7855

                     10                     11                     12
                      A                      A                      A
 Frequencies --    379.1929               410.5017               466.6832
 Red. masses --      3.3265                 1.0801                 2.4243
 Frc consts  --      0.2818                 0.1072                 0.3111
 IR Inten    --      5.9478                77.8360                 8.1288

                     13                     14                     15
                      A                      A                      A
 Frequencies --    494.0155               592.7991               621.8861
 Red. masses --      4.9516                 2.9273                 1.2140
 Frc consts  --      0.7120                 0.6061                 0.2766
 IR Inten    --      3.1309                10.6412                46.3618

                     16                     17                     18
                      A                      A                      A
 Frequencies --    644.4301               757.9946               813.9210
 Red. masses --      1.2348                 3.3148                 2.3423
 Frc consts  --      0.3021                 1.1221                 0.9142
 IR Inten    --     49.4202                 2.5527                 0.4591

                     19                     20                     21
                      A                      A                      A
 Frequencies --    874.1573               921.3898               935.1063
 Red. masses --      2.2600                 1.6510                 1.9218
 Frc consts  --      1.0175                 0.8258                 0.9901
 IR Inten    --     20.3289                 1.9310                 2.0704

                     22                     23                     24
                      A                      A                      A
 Frequencies --    982.9481              1003.5381              1031.9776
 Red. masses --      2.2541                 1.9908                 2.1571
 Frc consts  --      1.2832                 1.1813                 1.3535
 IR Inten    --      0.8713                38.6277                57.9781

                     25                     26                     27
                      A                      A                      A
 Frequencies --   1052.8064              1075.7660              1095.6002
 Red. masses --      1.5866                 3.5668                 1.8458
 Frc consts  --      1.0361                 2.4320                 1.3054
 IR Inten    --      2.3055                47.5484                10.7093

                     28                     29                     30
                      A                      A                      A
 Frequencies --   1165.0753              1211.8624              1229.9761
 Red. masses --      2.0783                 1.4458                 1.4500
 Frc consts  --      1.6622                 1.2510                 1.2925
 IR Inten    --      5.7026                72.5299                 5.0456

                     31                     32                     33
                      A                      A                      A
 Frequencies --   1273.8705              1292.0504              1329.5541
 Red. masses --      1.3766                 1.3167                 1.6969
 Frc consts  --      1.3162                 1.2950                 1.7674
 IR Inten    --     11.9616                26.3745                30.7423

                     34                     35                     36
                      A                      A                      A
 Frequencies --   1352.8896              1403.7116              1418.4192
 Red. masses --      1.5897                 1.2940                 1.2051
 Frc consts  --      1.7143                 1.5023                 1.4285
 IR Inten    --      7.9859                 7.8323                23.7705

                     37                     38                     39
                      A                      A                      A
 Frequencies --   1431.0854              1464.0333              1486.9339
 Red. masses --      1.3430                 1.0913                 1.4671
 Frc consts  --      1.6206                 1.3781                 1.9111
 IR Inten    --     30.2192                 7.5828                 9.2247

                     40                     41                     42
                      A                      A                      A
 Frequencies --   1497.9021              2229.7108              3006.3607
 Red. masses --      1.2010                 5.9438                 1.0633
 Frc consts  --      1.5877                17.4106                 5.6624
 IR Inten    --      4.5846                 3.1208                36.0171

                     43                     44                     45
                      A                      A                      A
 Frequencies --   3034.7603              3066.9052              3088.0152
 Red. masses --      1.0637                 1.1001                 1.0956
 Frc consts  --      5.7720                 6.0966                 6.1557
 IR Inten    --     11.1509                26.4120                 2.3863

                     46                     47                     48
                      A                      A                      A
 Frequencies --   3089.9676              3122.3658              3210.7624
 Red. masses --      1.0871                 1.0545                 1.1169
 Frc consts  --      6.1152                 6.0573                 6.7842
 IR Inten    --     39.1771                11.3463                 8.5814

                     49                     50                     51
                      A                      A                      A
 Frequencies --   3503.9871              3800.5215              3809.2853
 Red. masses --      1.1613                 1.0661                 1.0664
 Frc consts  --      8.4006                 9.0728                 9.1167
 IR Inten    --     69.8609                37.0825                27.2541

 - Thermochemistry -
 -------------------
 Temperature   298.150 Kelvin.  Pressure   1.00000 Atm.
 Atom     1 has atomic number  8 and mass  15.99491

 Molecular mass:   126.06808 amu.
 Principal axes and moments of inertia in atomic units:
                           1         2         3
     Eigenvalues --   858.721171321.739881866.48099
           X            0.99946   0.03084   0.01155
           Y           -0.03066   0.99941  -0.01524
           Z           -0.01202   0.01487   0.99982
 This molecule is an asymmetric top.
 Rotational symmetry number  1.
 Warning -- assumption of classical behavior for rotation
           may cause significant error
 Rotational temperatures (Kelvin)      0.10086     0.06553     0.04640
 Rotational constants (GHZ):           2.10166     1.36543     0.96692
 Zero-point vibrational energy     410596.5 (Joules/Mol)
                                   98.13491 (Kcal/Mol)
 Warning -- explicit consideration of  14 degrees of freedom as
           vibrations may cause significant error
 Vibrational temperatures:     70.88   126.80   200.67   264.20   343.64
          (Kelvin)            408.60   418.35   489.89   513.73   545.57
                              590.62   671.45   710.78   852.90   894.75
                              927.19  1090.58  1171.05  1257.72  1325.67
                             1345.41  1414.24  1443.87  1484.78  1514.75
                             1547.79  1576.32  1676.28  1743.60  1769.66
                             1832.81  1858.97  1912.93  1946.50  2019.63
                             2040.79  2059.01  2106.41  2139.36  2155.14
                             3208.05  4325.48  4366.34  4412.59  4442.96
                             4445.77  4492.38  4619.57  5041.45  5468.10
                             5480.71

 Zero-point correction=                           0.156388 (Hartree/Particle)
 Thermal correction to Energy=                    0.166364
 Thermal correction to Enthalpy=                  0.167308
 Thermal correction to Gibbs Free Energy=         0.121401
 Sum of electronic and zero-point Energies=           -422.963930
 Sum of electronic and thermal Energies=              -422.953953
 Sum of electronic and thermal Enthalpies=            -422.953009
 Sum of electronic and thermal Free Energies=         -422.998917

                     E (Thermal)             CV                S
                      KCal/Mol        Cal/Mol-Kelvin    Cal/Mol-Kelvin
 Total                  104.395             37.086             96.620
 Electronic               0.000              0.000              0.000
 Translational            0.889              2.981             40.409
 Rotational               0.889              2.981             29.140
 Vibrational            102.618             31.124             27.072
 Vibration     1          0.595              1.978              4.847
 Vibration     2          0.601              1.958              3.701
 Vibration     3          0.615              1.914              2.811
 Vibration     4          0.631              1.862              2.291
 Vibration     5          0.657              1.781              1.811
 Vibration     6          0.682              1.703              1.510
 Vibration     7          0.687              1.691              1.469
 Vibration     8          0.720              1.595              1.210
 Vibration     9          0.732              1.561              1.135
 Vibration    10          0.749              1.515              1.042
 Vibration    11          0.775              1.447              0.925
 Vibration    12          0.824              1.324              0.747
 Vibration    13          0.850              1.263              0.673
 Vibration    14          0.950              1.047              0.462

 Optimization completed.
    -- Stationary point found.
 Normal termination of Gaussian 09 at Tue Jan 28 09:40:38 2020.
