 Gaussian 09, Revision D.01,
 Gaussian 09:  ES64L-G09RevD.01 24-Apr-2013

 -----------------------------
 # b3lyp 6-31G(2df,p) opt Freq
 -----------------------------

 -----
 titel
 -----
 Symbolic Z-matrix:
 Charge =  0 Multiplicity = 1

 SCF Done:  E(RB3LYP) =  -423.154237617     A.U. after   12 cycles
 Optimization completed.
    -- Stationary point found.
 Normal termination of Gaussian 09 at Mon Jan 27 22:06:14 2020.

 ----------------------------------------------------------------------
 #N Geom=AllCheck Guess=TCheck SCRF=Check GenChk RB3LYP/6-31G(2df,p) Fr
 eq
 ----------------------------------------------------------------------

 Structure from the checkpoint file:  "/scratch/puck/g09_024f0156-fb4f-45a8-ab7f-8552e80eee26/Gau-85634.chk"
 -----
 titel
 -----
 Charge =  0 Multiplicity = 1

                         Standard orientation:
 ---------------------------------------------------------------------
 Center     Atomic      Atomic             Coordinates (Angstroms)
 Number     Number       Type             X           Y           Z
 ---------------------------------------------------------------------
      1          8           0       -2.282805   -1.060522   -0.349698
      2          6           0       -0.910834   -0.771543   -0.463313
      3          6           0       -0.125992   -0.576634    0.827891
      4          6           0        1.385898   -0.617840    0.805335
      5          6           0        2.122579   -0.847025   -0.494483
      6          6           0        1.879353    0.563078   -0.018060
      7          6           0        0.664342    1.338542   -0.525845
      8          6           0       -0.582285    0.620597   -0.004241
      9          8           0       -1.636310    1.455948    0.342071
     10          1           0       -2.384742   -1.893833    0.121214
     11          1           0       -0.440959   -1.211357   -1.340672
     12          1           0       -0.640468   -0.834199    1.748242
     13          1           0        1.880467   -0.905162    1.725972
     14          1           0        3.138958   -1.219484   -0.419539
     15          1           0        1.593751   -1.221238   -1.363884
     16          1           0        2.740754    1.138880    0.300889
     17          1           0        0.655460    2.344800   -0.095091
     18          1           0        0.652065    1.454045   -1.615524
     19          1           0       -2.440728    0.929085    0.235715
 ---------------------------------------------------------------------

 SCF Done:  E(RB3LYP) =  -423.154237617     A.U. after    1 cycles

 The electronic state is 1-A.
 Alpha  occ. eigenvalues --  -19.15867 -19.13126 -10.23345 -10.23125 -10.19107
 Alpha  occ. eigenvalues --  -10.18574 -10.18368 -10.18293 -10.18037  -1.04806
 Alpha  occ. eigenvalues --   -1.01197  -0.88600  -0.80757  -0.72024  -0.64282
 Alpha  occ. eigenvalues --   -0.58907  -0.56353  -0.55577  -0.52958  -0.50399
 Alpha  occ. eigenvalues --   -0.48336  -0.45055  -0.42613  -0.41001  -0.39054
 Alpha  occ. eigenvalues --   -0.37715  -0.36674  -0.35700  -0.33526  -0.30872
 Alpha  occ. eigenvalues --   -0.29842  -0.27939  -0.26066  -0.21694
 Alpha virt. eigenvalues --    0.06237   0.08487   0.09431   0.11850   0.12600
 Alpha virt. eigenvalues --    0.14303   0.14873   0.16728   0.17093   0.18058
 Alpha virt. eigenvalues --    0.18942   0.20126   0.20746   0.21315   0.24470

 Mulliken charges:
               1
     1  O   -0.444900
     2  C   -0.008055
     3  C   -0.193554
     4  C   -0.033303
     5  C   -0.304405
     6  C   -0.031680
     7  C   -0.310426
     8  C    0.433273
     9  O   -0.476806
    10  H    0.293677
    11  H    0.088710
    12  H    0.083397
    13  H    0.083760
    14  H    0.107894
    15  H    0.111569
    16  H    0.085148
    17  H    0.120432
    18  H    0.104745
    19  H    0.290525
 Sum of Mulliken charges =   0.00000

 Dipole moment (field-independent basis, Debye):
    X=              0.6050    Y=             -2.0964    Z=              0.3851  Tot=              2.2156
 Quadrupole moment (field-independent basis, Debye-Ang):
   XX=            -51.1590   YY=            -52.6678   ZZ=            -52.7487
   XY=              4.4280   XZ=             -1.1227   YZ=             -1.8661

  Exact polarizability:  84.346   0.372  73.043  -1.021  -1.354  63.983
 Approx polarizability: 112.833  -0.034 110.656  -0.700  -1.695 101.040

                      1                      2                      3
                      A                      A                      A
 Frequencies --    180.3002               204.4795               264.3790
 Red. masses --      2.8816                 3.4083                 4.1034
 Frc consts  --      0.0552                 0.0840                 0.1690
 IR Inten    --      5.0059                 0.1639                 2.4186

                      4                      5                      6
                      A                      A                      A
 Frequencies --    273.3410               300.2818               368.9112
 Red. masses --      1.2817                 2.6844                 2.9144
 Frc consts  --      0.0564                 0.1426                 0.2337
 IR Inten    --     54.9676                 2.0434                 0.4071

                      7                      8                      9
                      A                      A                      A
 Frequencies --    390.9084               422.9836               454.5097
 Red. masses --      2.6710                 2.1402                 1.3154
 Frc consts  --      0.2405                 0.2256                 0.1601
 IR Inten    --     10.9693                33.2749                75.9933

                     10                     11                     12
                      A                      A                      A
 Frequencies --    533.4533               659.1671               688.7863
 Red. masses --      3.6377                 3.6472                 4.0634
 Frc consts  --      0.6099                 0.9337                 1.1358
 IR Inten    --      8.5332                 1.6383                 7.8348

                     13                     14                     15
                      A                      A                      A
 Frequencies --    722.5630               787.9219               803.9087
 Red. masses --      3.4709                 2.0831                 1.7072
 Frc consts  --      1.0677                 0.7619                 0.6500
 IR Inten    --      4.3968                 7.1839                14.3753

                     16                     17                     18
                      A                      A                      A
 Frequencies --    836.0776               896.5035               916.0505
 Red. masses --      2.8672                 2.2060                 2.6290
 Frc consts  --      1.1809                 1.0446                 1.2998
 IR Inten    --      2.8447                 5.5373                 9.3106

                     19                     20                     21
                      A                      A                      A
 Frequencies --    941.7710               988.6537               999.5130
 Red. masses --      1.7131                 1.7611                 2.1406
 Frc consts  --      0.8952                 1.0142                 1.2600
 IR Inten    --      1.6523                11.3953                 0.6085

                     22                     23                     24
                      A                      A                      A
 Frequencies --   1022.0259              1046.4211              1058.4358
 Red. masses --      1.4587                 1.7698                 1.4678
 Frc consts  --      0.8977                 1.1418                 0.9688
 IR Inten    --     22.8273                11.8654                 0.8108

                     25                     26                     27
                      A                      A                      A
 Frequencies --   1084.6950              1097.4781              1106.4105
 Red. masses --      1.6347                 1.4430                 1.2565
 Frc consts  --      1.1332                 1.0241                 0.9062
 IR Inten    --      0.8704                29.2656                 1.2790

                     28                     29                     30
                      A                      A                      A
 Frequencies --   1131.4773              1185.8490              1192.4521
 Red. masses --      3.4153                 1.5803                 1.7848
 Frc consts  --      2.5762                 1.3093                 1.4953
 IR Inten    --     76.8646                22.7789                25.3698

                     31                     32                     33
                      A                      A                      A
 Frequencies --   1218.0771              1256.1043              1282.5180
 Red. masses --      1.4561                 1.8623                 1.4813
 Frc consts  --      1.2729                 1.7312                 1.4356
 IR Inten    --      3.5234                12.4637                69.7471

                     34                     35                     36
                      A                      A                      A
 Frequencies --   1292.4317              1333.3096              1346.1835
 Red. masses --      1.3355                 1.4954                 1.8300
 Frc consts  --      1.3144                 1.5663                 1.9539
 IR Inten    --      8.0525                47.2551                14.1069

                     37                     38                     39
                      A                      A                      A
 Frequencies --   1377.2414              1414.3973              1449.4188
 Red. masses --      1.9892                 1.6563                 2.4698
 Frc consts  --      2.2231                 1.9522                 3.0571
 IR Inten    --      3.3150                21.2601                53.0806

                     40                     41                     42
                      A                      A                      A
 Frequencies --   1483.1867              1499.4607              3042.3297
 Red. masses --      1.1277                 1.2034                 1.0620
 Frc consts  --      1.4617                 1.5942                 5.7915
 IR Inten    --      1.4323                 3.8096                31.7210

                     43                     44                     45
                      A                      A                      A
 Frequencies --   3086.2322              3112.3036              3135.1271
 Red. masses --      1.1012                 1.0852                 1.0576
 Frc consts  --      6.1799                 6.1933                 6.1246
 IR Inten    --     11.0214                14.5384                29.7872

                     46                     47                     48
                      A                      A                      A
 Frequencies --   3160.5881              3167.6051              3178.0827
 Red. masses --      1.0885                 1.0896                 1.0940
 Frc consts  --      6.4063                 6.4415                 6.5102
 IR Inten    --      6.1568                20.4456                14.4860

                     49                     50                     51
                      A                      A                      A
 Frequencies --   3212.2172              3744.2990              3813.1755
 Red. masses --      1.1135                 1.0647                 1.0666
 Frc consts  --      6.7692                 8.7949                 9.1373
 IR Inten    --     17.0426                62.2301                30.4285

 - Thermochemistry -
 -------------------
 Temperature   298.150 Kelvin.  Pressure   1.00000 Atm.
 Atom     1 has atomic number  8 and mass  15.99491

 Molecular mass:   126.06808 amu.
 Principal axes and moments of inertia in atomic units:
                           1         2         3
     Eigenvalues --   596.324001225.728881526.56798
           X            0.99994   0.00766  -0.00753
           Y           -0.00779   0.99982  -0.01717
           Z            0.00740   0.01722   0.99982
 This molecule is an asymmetric top.
 Rotational symmetry number  1.
 Warning -- assumption of classical behavior for rotation
           may cause significant error
 Rotational temperatures (Kelvin)      0.14525     0.07066     0.05674
 Rotational constants (GHZ):           3.02644     1.47238     1.18222
 Zero-point vibrational energy     419673.9 (Joules/Mol)
                                  100.30447 (Kcal/Mol)
 Warning -- explicit consideration of  10 degrees of freedom as
           vibrations may cause significant error
 Vibrational temperatures:    259.41   294.20   380.38   393.28   432.04
          (Kelvin)            530.78   562.43   608.58   653.94   767.52
                              948.39   991.01  1039.61  1133.64  1156.64
                             1202.93  1289.87  1317.99  1355.00  1422.45
                             1438.07  1470.47  1505.56  1522.85  1560.63
                             1579.02  1591.88  1627.94  1706.17  1715.67
                             1752.54  1807.25  1845.25  1859.52  1918.33
                             1936.86  1981.54  2035.00  2085.39  2133.97
                             2157.39  4377.23  4440.39  4477.91  4510.74
                             4547.38  4557.47  4572.55  4621.66  5387.20
                             5486.30

 Zero-point correction=                           0.159845 (Hartree/Particle)
 Thermal correction to Energy=                    0.167708
 Thermal correction to Enthalpy=                  0.168653
 Thermal correction to Gibbs Free Energy=         0.128153
 Sum of electronic and zero-point Energies=           -422.994392
 Sum of electronic and thermal Energies=              -422.986529
 Sum of electronic and thermal Enthalpies=            -422.985585
 Sum of electronic and thermal Free Energies=         -423.026084

                     E (Thermal)             CV                S
                      KCal/Mol        Cal/Mol-Kelvin    Cal/Mol-Kelvin
 Total                  105.239             32.341             85.238
 Electronic               0.000              0.000              0.000
 Translational            0.889              2.981             40.409
 Rotational               0.889              2.981             28.502
 Vibrational            103.461             26.379             16.327
 Vibration     1          0.629              1.866              2.325
 Vibration     2          0.640              1.834              2.092
 Vibration     3          0.671              1.738              1.633
 Vibration     4          0.676              1.723              1.575
 Vibration     5          0.693              1.673              1.415
 Vibration     6          0.741              1.536              1.084
 Vibration     7          0.759              1.490              0.997
 Vibration     8          0.785              1.420              0.882
 Vibration     9          0.813              1.351              0.782
 Vibration    10          0.888              1.176              0.580

 Optimization completed.
    -- Stationary point found.
 Normal termination of Gaussian 09 at Mon Jan 27 23:04:34 2020.
