 Gaussian 09, Revision D.01,
 Gaussian 09:  ES64L-G09RevD.01 24-Apr-2013

 -----------------------------
 # b3lyp 6-31G(2df,p) opt Freq
 -----------------------------

 -----
 titel
 -----
 Symbolic Z-matrix:
 Charge =  0 Multiplicity = 1

 SCF Done:  E(RB3LYP) =  -423.159476844     A.U. after   14 cycles
 Optimization completed.
    -- Stationary point found.
 Normal termination of Gaussian 09 at Tue Jan 28 14:08:26 2020.

 ----------------------------------------------------------------------
 #N Geom=AllCheck Guess=TCheck SCRF=Check GenChk RB3LYP/6-31G(2df,p) Fr
 eq
 ----------------------------------------------------------------------

 Structure from the checkpoint file:  "/scratch/puck/g09_bf132469-8f96-4edc-b56a-9cf01ef25dc7/Gau-144661.chk"
 -----
 titel
 -----
 Charge =  0 Multiplicity = 1

                         Standard orientation:
 ---------------------------------------------------------------------
 Center     Atomic      Atomic             Coordinates (Angstroms)
 Number     Number       Type             X           Y           Z
 ---------------------------------------------------------------------
      1          6           0        2.880556   -0.661109   -0.124536
      2          8           0        1.984343    0.329116    0.325221
      3          6           0        0.834022    0.461774   -0.497010
      4          6           0        0.017481    1.633895    0.022295
      5          6           0       -1.235591    1.287886    0.310718
      6          6           0       -1.475126   -0.171025    0.063161
      7          8           0       -2.716921   -0.608158   -0.389704
      8          6           0       -0.686818   -1.114004    0.921167
      9          6           0       -0.148049   -0.713383   -0.443125
     10          1           0        3.224987   -0.459787   -1.152016
     11          1           0        3.743845   -0.644850    0.545284
     12          1           0        2.432490   -1.665017   -0.101696
     13          1           0        1.165204    0.633075   -1.537171
     14          1           0        0.473543    2.602275    0.188729
     15          1           0       -2.005825    1.935457    0.715091
     16          1           0       -2.886256   -0.188001   -1.240717
     17          1           0       -0.194392   -0.733254    1.808809
     18          1           0       -1.075853   -2.124090    0.993743
     19          1           0       -0.135979   -1.467667   -1.220201
 ---------------------------------------------------------------------

 SCF Done:  E(RB3LYP) =  -423.159476844     A.U. after    1 cycles

 The electronic state is 1-A.
 Alpha  occ. eigenvalues --  -19.14606 -19.13673 -10.23992 -10.23537 -10.22037
 Alpha  occ. eigenvalues --  -10.18524 -10.18351 -10.18312 -10.18139  -1.03316
 Alpha  occ. eigenvalues --   -1.02810  -0.87400  -0.76979  -0.71215  -0.65540
 Alpha  occ. eigenvalues --   -0.60387  -0.56939  -0.54831  -0.52908  -0.48144
 Alpha  occ. eigenvalues --   -0.47595  -0.44613  -0.43459  -0.42892  -0.41501
 Alpha  occ. eigenvalues --   -0.38314  -0.37126  -0.35226  -0.32623  -0.31250
 Alpha  occ. eigenvalues --   -0.30340  -0.26683  -0.25865  -0.22697
 Alpha virt. eigenvalues --    0.00281   0.08555   0.09470   0.11718   0.13697
 Alpha virt. eigenvalues --    0.14096   0.14800   0.15428   0.16306   0.16812
 Alpha virt. eigenvalues --    0.17836   0.18025   0.19808   0.22079   0.23940

 Mulliken charges:
               1
     1  C   -0.229452
     2  O   -0.244071
     3  C    0.066927
     4  C   -0.096042
     5  C   -0.180463
     6  C    0.383360
     7  O   -0.466395
     8  C   -0.302076
     9  C   -0.154983
    10  H    0.099167
    11  H    0.125122
    12  H    0.110832
    13  H    0.064511
    14  H    0.106207
    15  H    0.104095
    16  H    0.280798
    17  H    0.126506
    18  H    0.118352
    19  H    0.087606
 Sum of Mulliken charges =   0.00000

 Dipole moment (field-independent basis, Debye):
    X=              0.3707    Y=              0.1207    Z=             -1.6083  Tot=              1.6549
 Quadrupole moment (field-independent basis, Debye-Ang):
   XX=            -53.8222   YY=            -51.7913   ZZ=            -51.1390
   XY=             -4.5208   XZ=              1.1853   YZ=             -0.0916

  Exact polarizability:  92.935  -0.170  74.793  -3.202  -1.095  62.765
 Approx polarizability: 131.768   5.010 107.593  -6.325  -2.210  98.800

                      1                      2                      3
                      A                      A                      A
 Frequencies --     88.4275               124.8350               179.4205
 Red. masses --      3.1514                 2.6778                 1.7699
 Frc consts  --      0.0145                 0.0246                 0.0336
 IR Inten    --      1.1989                 1.6153                 1.3516

                      4                      5                      6
                      A                      A                      A
 Frequencies --    228.8275               292.8381               320.3077
 Red. masses --      1.8597                 3.2262                 1.6690
 Frc consts  --      0.0574                 0.1630                 0.1009
 IR Inten    --      3.0420                 5.3509                25.3935

                      7                      8                      9
                      A                      A                      A
 Frequencies --    364.2199               397.1207               435.3098
 Red. masses --      1.6055                 3.3374                 3.0529
 Frc consts  --      0.1255                 0.3101                 0.3409
 IR Inten    --     56.8516                20.7604                 1.6638

                     10                     11                     12
                      A                      A                      A
 Frequencies --    501.0604               558.2526               634.3822
 Red. masses --      3.2984                 3.0029                 3.7050
 Frc consts  --      0.4879                 0.5514                 0.8785
 IR Inten    --      1.2921                 0.4792                16.4679

                     13                     14                     15
                      A                      A                      A
 Frequencies --    732.4106               742.4399               791.8145
 Red. masses --      3.2692                 2.3519                 1.8900
 Frc consts  --      1.0332                 0.7638                 0.6982
 IR Inten    --      2.2516                10.8809                14.5451

                     16                     17                     18
                      A                      A                      A
 Frequencies --    876.0202               918.8791               938.3350
 Red. masses --      3.7737                 2.4880                 1.7867
 Frc consts  --      1.7063                 1.2377                 0.9269
 IR Inten    --      7.5065                10.1324                 2.6336

                     19                     20                     21
                      A                      A                      A
 Frequencies --    954.5839               960.8164               992.8321
 Red. masses --      1.8896                 1.4356                 1.8356
 Frc consts  --      1.0145                 0.7808                 1.0661
 IR Inten    --      7.4718                10.8107                 1.9439

                     22                     23                     24
                      A                      A                      A
 Frequencies --   1014.6025              1051.3248              1068.6397
 Red. masses --      3.1919                 1.9599                 1.3411
 Frc consts  --      1.9359                 1.2763                 0.9024
 IR Inten    --     29.7011                 3.4430                 5.3249

                     25                     26                     27
                      A                      A                      A
 Frequencies --   1078.2587              1127.2182              1144.3636
 Red. masses --      1.3793                 1.3299                 4.5674
 Frc consts  --      0.9448                 0.9956                 3.5241
 IR Inten    --      3.8019                 8.2958               207.3507

                     28                     29                     30
                      A                      A                      A
 Frequencies --   1181.3250              1216.0766              1232.2341
 Red. masses --      1.2942                 1.4721                 1.8409
 Frc consts  --      1.0641                 1.2827                 1.6469
 IR Inten    --      2.8274                36.3534                31.7311

                     31                     32                     33
                      A                      A                      A
 Frequencies --   1262.6270              1293.5907              1337.2475
 Red. masses --      2.2294                 1.6405                 1.7106
 Frc consts  --      2.0940                 1.6175                 1.8023
 IR Inten    --     40.9589                66.2251                 2.9583

                     34                     35                     36
                      A                      A                      A
 Frequencies --   1359.2276              1379.0998              1407.6550
 Red. masses --      1.3466                 1.7948                 1.7115
 Frc consts  --      1.4658                 2.0113                 1.9981
 IR Inten    --     10.7345                73.8407                17.5291

                     37                     38                     39
                      A                      A                      A
 Frequencies --   1473.4219              1478.3971              1485.4135
 Red. masses --      1.3348                 1.2135                 1.0679
 Frc consts  --      1.7074                 1.5627                 1.3883
 IR Inten    --      7.4838                 6.9367                 3.9980

                     40                     41                     42
                      A                      A                      A
 Frequencies --   1509.8071              1679.1981              2933.4724
 Red. masses --      1.0536                 6.8460                 1.0812
 Frc consts  --      1.4151                11.3733                 5.4818
 IR Inten    --      5.6123                 2.2299                55.6677

                     43                     44                     45
                      A                      A                      A
 Frequencies --   2971.4928              3026.0469              3112.8559
 Red. masses --      1.0413                 1.0974                 1.0966
 Frc consts  --      5.4172                 5.9208                 6.2605
 IR Inten    --     71.1546                46.2346                30.5577

                     46                     47                     48
                      A                      A                      A
 Frequencies --   3133.6601              3186.3109              3189.8985
 Red. masses --      1.0532                 1.0915                 1.0860
 Frc consts  --      6.0937                 6.5292                 6.5110
 IR Inten    --      9.8532                 7.8651                 5.8923

                     49                     50                     51
                      A                      A                      A
 Frequencies --   3217.7034              3228.7416              3787.7274
 Red. masses --      1.1039                 1.1173                 1.0659
 Frc consts  --      6.7340                 6.8628                 9.0102
 IR Inten    --     13.3435                 3.7985                16.2462

 - Thermochemistry -
 -------------------
 Temperature   298.150 Kelvin.  Pressure   1.00000 Atm.
 Atom     1 has atomic number  6 and mass  12.00000

 Molecular mass:   126.06808 amu.
 Principal axes and moments of inertia in atomic units:
                           1         2         3
     Eigenvalues --   511.328371493.047121769.26986
           X            0.99967  -0.02440  -0.00775
           Y            0.02440   0.99970  -0.00119
           Z            0.00778   0.00100   0.99997
 This molecule is an asymmetric top.
 Rotational symmetry number  1.
 Warning -- assumption of classical behavior for rotation
           may cause significant error
 Rotational temperatures (Kelvin)      0.16939     0.05801     0.04895
 Rotational constants (GHZ):           3.52952     1.20876     1.02005
 Zero-point vibrational energy     416305.1 (Joules/Mol)
                                   99.49930 (Kcal/Mol)
 Warning -- explicit consideration of  11 degrees of freedom as
           vibrations may cause significant error
 Vibrational temperatures:    127.23   179.61   258.15   329.23   421.33
          (Kelvin)            460.85   524.03   571.37   626.31   720.91
                              803.20   912.73  1053.77  1068.20  1139.24
                             1260.40  1322.06  1350.05  1373.43  1382.40
                             1428.46  1459.78  1512.62  1537.53  1551.37
                             1621.81  1646.48  1699.66  1749.66  1772.91
                             1816.64  1861.19  1924.00  1955.62  1984.21
                             2025.30  2119.92  2127.08  2137.18  2172.27
                             2415.99  4220.61  4275.31  4353.80  4478.70
                             4508.63  4584.39  4589.55  4629.55  4645.43
                             5449.69

 Zero-point correction=                           0.158562 (Hartree/Particle)
 Thermal correction to Energy=                    0.167112
 Thermal correction to Enthalpy=                  0.168056
 Thermal correction to Gibbs Free Energy=         0.125533
 Sum of electronic and zero-point Energies=           -423.000915
 Sum of electronic and thermal Energies=              -422.992365
 Sum of electronic and thermal Enthalpies=            -422.991421
 Sum of electronic and thermal Free Energies=         -423.033944

                     E (Thermal)             CV                S
                      KCal/Mol        Cal/Mol-Kelvin    Cal/Mol-Kelvin
 Total                  104.864             32.990             89.496
 Electronic               0.000              0.000              0.000
 Translational            0.889              2.981             40.409
 Rotational               0.889              2.981             28.692
 Vibrational            103.087             27.028             20.395
 Vibration     1          0.601              1.957              3.695
 Vibration     2          0.610              1.928              3.024
 Vibration     3          0.629              1.868              2.334
 Vibration     4          0.652              1.797              1.888
 Vibration     5          0.688              1.687              1.458
 Vibration     6          0.706              1.635              1.309
 Vibration     7          0.738              1.546              1.104
 Vibration     8          0.764              1.476              0.973
 Vibration     9          0.796              1.393              0.841
 Vibration    10          0.856              1.248              0.655
 Vibration    11          0.914              1.122              0.527

 Normal termination of Gaussian 09 at Tue Jan 28 14:48:37 2020.
