 Gaussian 09, Revision D.01,
 Gaussian 09:  ES64L-G09RevD.01 24-Apr-2013

 -----------------------------
 # b3lyp 6-31G(2df,p) opt Freq
 -----------------------------

 -----
 titel
 -----
 Symbolic Z-matrix:
 Charge =  0 Multiplicity = 1

 SCF Done:  E(RB3LYP) =  -423.112775466     A.U. after   14 cycles
 Optimization completed.
    -- Stationary point found.
 Normal termination of Gaussian 09 at Mon Jan 27 15:48:13 2020.

 ----------------------------------------------------------------------
 #N Geom=AllCheck Guess=TCheck SCRF=Check GenChk RB3LYP/6-31G(2df,p) Fr
 eq
 ----------------------------------------------------------------------

 Structure from the checkpoint file:  "/scratch/puck/g09_e9f61a2e-6214-4bb0-b060-ee5cfaad0df5/Gau-37332.chk"
 -----
 titel
 -----
 Charge =  0 Multiplicity = 1

                         Standard orientation:
 ---------------------------------------------------------------------
 Center     Atomic      Atomic             Coordinates (Angstroms)
 Number     Number       Type             X           Y           Z
 ---------------------------------------------------------------------
      1          6           0        2.318179   -1.478899   -0.478166
      2          6           0        1.288183   -0.352218   -0.397385
      3          8           0        0.280749   -0.779039    0.521008
      4          6           0       -0.843196    0.045413    0.557517
      5          6           0       -2.121926   -0.597430    1.009675
      6          6           0       -1.946319   -0.172072   -0.435796
      7          8           0       -2.596279    0.966886   -0.914875
      8          6           0        1.899812    0.917735    0.016224
      9          6           0        2.406874    1.952666    0.357743
     10          1           0        1.827974   -2.399199   -0.805431
     11          1           0        3.108913   -1.220687   -1.186559
     12          1           0        2.765861   -1.646778    0.504213
     13          1           0        0.828292   -0.205508   -1.387337
     14          1           0       -0.659642    1.075115    0.858711
     15          1           0       -2.095452   -1.659481    1.226364
     16          1           0       -2.779556   -0.005333    1.636446
     17          1           0       -1.794253   -0.973902   -1.158917
     18          1           0       -3.537572    0.771092   -0.971416
     19          1           0        2.850026    2.870730    0.655992
 ---------------------------------------------------------------------

 SCF Done:  E(RB3LYP) =  -423.112775466     A.U. after    1 cycles

 The electronic state is 1-A.
 Alpha  occ. eigenvalues --  -19.14855 -19.14324 -10.25706 -10.23284 -10.23043
 Alpha  occ. eigenvalues --  -10.18377 -10.18136 -10.18073 -10.17639  -1.04586
 Alpha  occ. eigenvalues --   -1.02572  -0.84315  -0.78014  -0.72713  -0.63912
 Alpha  occ. eigenvalues --   -0.60898  -0.59373  -0.53825  -0.52744  -0.50281
 Alpha  occ. eigenvalues --   -0.48527  -0.46137  -0.42720  -0.42075  -0.39242
 Alpha  occ. eigenvalues --   -0.38465  -0.37458  -0.35107  -0.32486  -0.31011
 Alpha  occ. eigenvalues --   -0.27507  -0.26818  -0.25892  -0.24758
 Alpha virt. eigenvalues --    0.03964   0.05144   0.08136   0.11090   0.11377
 Alpha virt. eigenvalues --    0.12694   0.13003   0.14080   0.14822   0.15994
 Alpha virt. eigenvalues --    0.17553   0.18492   0.19239   0.21379   0.23425

 Mulliken charges:
               1
     1  C   -0.395813
     2  C   -0.032292
     3  O   -0.247978
     4  C    0.103737
     5  C   -0.351634
     6  C    0.064924
     7  O   -0.419471
     8  C    0.350812
     9  C   -0.494787
    10  H    0.122888
    11  H    0.127604
    12  H    0.137603
    13  H    0.103350
    14  H    0.110932
    15  H    0.123689
    16  H    0.117138
    17  H    0.089883
    18  H    0.288560
    19  H    0.200854
 Sum of Mulliken charges =   0.00000

 Dipole moment (field-independent basis, Debye):
    X=             -0.9011    Y=             -0.5304    Z=             -0.4218  Tot=              1.1275
 Quadrupole moment (field-independent basis, Debye-Ang):
   XX=            -44.0882   YY=            -51.5636   ZZ=            -53.8517
   XY=              2.7809   XZ=             -0.4384   YZ=              3.6983

  Exact polarizability:  89.378   7.229  82.779  -0.414   4.578  63.373
 Approx polarizability: 111.505  15.536 126.959   2.976   8.155  95.857

                      1                      2                      3
                      A                      A                      A
 Frequencies --     43.2831                85.8608               113.8725
 Red. masses --      4.3719                 3.4270                 4.0810
 Frc consts  --      0.0048                 0.0149                 0.0312
 IR Inten    --      0.2886                 3.7961                 1.0079

                      4                      5                      6
                      A                      A                      A
 Frequencies --    182.6634               214.3347               250.0743
 Red. masses --      3.4042                 1.3978                 1.9025
 Frc consts  --      0.0669                 0.0378                 0.0701
 IR Inten    --      1.0210                 0.4933                 1.3305

                      7                      8                      9
                      A                      A                      A
 Frequencies --    291.0206               301.5235               340.5750
 Red. masses --      2.5736                 1.5581                 2.4212
 Frc consts  --      0.1284                 0.0835                 0.1655
 IR Inten    --     17.5160                36.2004                48.4513

                     10                     11                     12
                      A                      A                      A
 Frequencies --    371.5647               444.1813               480.8061
 Red. masses --      3.6456                 2.3415                 4.1529
 Frc consts  --      0.2965                 0.2722                 0.5656
 IR Inten    --     16.5761                 2.1130                 3.4664

                     13                     14                     15
                      A                      A                      A
 Frequencies --    565.5152               603.8991               628.4809
 Red. masses --      3.6643                 5.1736                 1.2334
 Frc consts  --      0.6904                 1.1117                 0.2870
 IR Inten    --      2.4141                 6.5732                42.7531

                     16                     17                     18
                      A                      A                      A
 Frequencies --    675.8753               792.8450               817.8695
 Red. masses --      1.2531                 1.9626                 1.9509
 Frc consts  --      0.3372                 0.7269                 0.7689
 IR Inten    --     35.3137                 6.1241                 4.9986

                     19                     20                     21
                      A                      A                      A
 Frequencies --    851.4003               911.1869               951.0928
 Red. masses --      2.0058                 2.9423                 1.9778
 Frc consts  --      0.8567                 1.4393                 1.0541
 IR Inten    --      6.5408                28.7172                11.2972

                     22                     23                     24
                      A                      A                      A
 Frequencies --    983.6205              1035.4554              1059.2527
 Red. masses --      3.0933                 1.3958                 2.2345
 Frc consts  --      1.7633                 0.8817                 1.4772
 IR Inten    --      4.7106                 2.9733                30.2751

                     25                     26                     27
                      A                      A                      A
 Frequencies --   1089.9360              1105.2465              1120.1995
 Red. masses --      1.3817                 1.5802                 1.8984
 Frc consts  --      0.9671                 1.1373                 1.4036
 IR Inten    --     29.2648                 5.0700                86.8728

                     28                     29                     30
                      A                      A                      A
 Frequencies --   1148.2957              1183.2359              1198.0501
 Red. masses --      2.3982                 2.5385                 2.7273
 Frc consts  --      1.8631                 2.0940                 2.3064
 IR Inten    --     58.7397                15.8916               104.4101

                     31                     32                     33
                      A                      A                      A
 Frequencies --   1226.3580              1289.9745              1330.0238
 Red. masses --      1.7935                 1.1711                 1.2606
 Frc consts  --      1.5892                 1.1481                 1.3138
 IR Inten    --     33.2922                62.7812                29.4578

                     34                     35                     36
                      A                      A                      A
 Frequencies --   1354.2369              1369.3889              1401.4867
 Red. masses --      1.3699                 1.2725                 1.2538
 Frc consts  --      1.4802                 1.4059                 1.4509
 IR Inten    --     45.5236                 2.4755                 4.5575

                     37                     38                     39
                      A                      A                      A
 Frequencies --   1420.3042              1482.0997              1488.7250
 Red. masses --      1.2464                 1.0488                 1.8071
 Frc consts  --      1.4814                 1.3573                 2.3598
 IR Inten    --      0.4155                 3.9510                13.9319

                     40                     41                     42
                      A                      A                      A
 Frequencies --   1495.1156              2231.7610              2981.4727
 Red. masses --      1.0761                 5.8924                 1.0813
 Frc consts  --      1.4173                17.2918                 5.6631
 IR Inten    --      3.6206                 1.6927                21.8845

                     43                     44                     45
                      A                      A                      A
 Frequencies --   3053.1267              3098.3332              3130.6341
 Red. masses --      1.0336                 1.0872                 1.0843
 Frc consts  --      5.6767                 6.1493                 6.2612
 IR Inten    --     14.0646                25.9319                10.4558

                     46                     47                     48
                      A                      A                      A
 Frequencies --   3133.9131              3137.5874              3138.0177
 Red. masses --      1.1029                 1.1014                 1.0590
 Frc consts  --      6.3818                 6.3880                 6.1439
 IR Inten    --     19.5992                16.3796                 4.5404

                     49                     50                     51
                      A                      A                      A
 Frequencies --   3232.0759              3502.7153              3800.1993
 Red. masses --      1.1173                 1.1626                 1.0662
 Frc consts  --      6.8770                 8.4044                 9.0723
 IR Inten    --      5.0547                60.2594                18.7767

 - Thermochemistry -
 -------------------
 Temperature   298.150 Kelvin.  Pressure   1.00000 Atm.
 Atom     1 has atomic number  6 and mass  12.00000

 Molecular mass:   126.06808 amu.
 Principal axes and moments of inertia in atomic units:
                           1         2         3
     Eigenvalues --   681.117231880.059992176.53835
           X            0.99989  -0.00796  -0.01266
           Y            0.00856   0.99880   0.04814
           Z            0.01226  -0.04825   0.99876
 This molecule is an asymmetric top.
 Rotational symmetry number  1.
 Warning -- assumption of classical behavior for rotation
           may cause significant error
 Rotational temperatures (Kelvin)      0.12716     0.04607     0.03979
 Rotational constants (GHZ):           2.64968     0.95994     0.82918
 Zero-point vibrational energy     407560.3 (Joules/Mol)
                                   97.40926 (Kcal/Mol)
 Warning -- explicit consideration of  14 degrees of freedom as
           vibrations may cause significant error
 Vibrational temperatures:     62.27   123.53   163.84   262.81   308.38
          (Kelvin)            359.80   418.71   433.82   490.01   534.60
                              639.08   691.77   813.65   868.88   904.24
                              972.43  1140.73  1176.73  1224.97  1310.99
                             1368.41  1415.21  1489.79  1524.03  1568.17
                             1590.20  1611.72  1652.14  1702.41  1723.72
                             1764.45  1855.98  1913.61  1948.44  1970.24
                             2016.42  2043.50  2132.41  2141.94  2151.14
                             3211.00  4289.67  4392.76  4457.80  4504.28
                             4509.00  4514.28  4514.90  4650.23  5039.62
                             5467.63

 Zero-point correction=                           0.155232 (Hartree/Particle)
 Thermal correction to Energy=                    0.165298
 Thermal correction to Enthalpy=                  0.166242
 Thermal correction to Gibbs Free Energy=         0.119730
 Sum of electronic and zero-point Energies=           -422.957544
 Sum of electronic and thermal Energies=              -422.947478
 Sum of electronic and thermal Enthalpies=            -422.946533
 Sum of electronic and thermal Free Energies=         -422.993046

                     E (Thermal)             CV                S
                      KCal/Mol        Cal/Mol-Kelvin    Cal/Mol-Kelvin
 Total                  103.726             36.890             97.893
 Electronic               0.000              0.000              0.000
 Translational            0.889              2.981             40.409
 Rotational               0.889              2.981             29.412
 Vibrational            101.949             30.928             28.072
 Vibration     1          0.595              1.980              5.103
 Vibration     2          0.601              1.959              3.752
 Vibration     3          0.607              1.938              3.202
 Vibration     4          0.630              1.863              2.301
 Vibration     5          0.644              1.819              2.006
 Vibration     6          0.663              1.763              1.730
 Vibration     7          0.687              1.690              1.468
 Vibration     8          0.694              1.671              1.408
 Vibration     9          0.720              1.594              1.209
 Vibration    10          0.743              1.531              1.073
 Vibration    11          0.804              1.374              0.814
 Vibration    12          0.837              1.293              0.708
 Vibration    13          0.921              1.106              0.513
 Vibration    14          0.962              1.024              0.443

 Optimization completed.
    -- Stationary point found.
 Normal termination of Gaussian 09 at Mon Jan 27 16:23:16 2020.
