 Gaussian 09, Revision D.01,
 Gaussian 09:  ES64L-G09RevD.01 24-Apr-2013

 -----------------------------
 # b3lyp 6-31G(2df,p) opt Freq
 -----------------------------

 -----
 titel
 -----
 Symbolic Z-matrix:
 Charge =  0 Multiplicity = 1

 SCF Done:  E(RB3LYP) =  -423.173140489     A.U. after   14 cycles
 Optimization completed.
    -- Stationary point found.
 Normal termination of Gaussian 09 at Tue Jan 28 02:51:15 2020.

 ----------------------------------------------------------------------
 #N Geom=AllCheck Guess=TCheck SCRF=Check GenChk RB3LYP/6-31G(2df,p) Fr
 eq
 ----------------------------------------------------------------------

 Structure from the checkpoint file:  "/scratch/puck/g09_c0456adb-3372-4cca-8c47-2d940fd01aa1/Gau-60104.chk"
 -----
 titel
 -----
 Charge =  0 Multiplicity = 1

                         Standard orientation:
 ---------------------------------------------------------------------
 Center     Atomic      Atomic             Coordinates (Angstroms)
 Number     Number       Type             X           Y           Z
 ---------------------------------------------------------------------
      1          8           0        2.950530   -0.529424    0.286608
      2          6           0        1.764918   -0.159918   -0.409047
      3          6           0        0.513076   -0.979385   -0.010610
      4          6           0       -0.641278    0.033235    0.110212
      5          6           0       -1.832295   -0.285204    1.048846
      6          6           0       -2.693880   -0.231855   -0.223669
      7          8           0       -1.541177    0.027604   -1.048072
      8          6           0        0.075717    1.349907    0.248825
      9          6           0        1.371630    1.247172   -0.034497
     10          1           0        3.253464   -1.369208   -0.072227
     11          1           0        1.943576   -0.214232   -1.495306
     12          1           0        0.259066   -1.779265   -0.710675
     13          1           0        0.717022   -1.420829    0.970493
     14          1           0       -1.774738   -1.261754    1.533380
     15          1           0       -2.043218    0.475277    1.803471
     16          1           0       -3.197758   -1.165125   -0.503673
     17          1           0       -3.422540    0.587261   -0.269179
     18          1           0       -0.452480    2.264531    0.495432
     19          1           0        2.095451    2.054194   -0.040357
 ---------------------------------------------------------------------

 SCF Done:  E(RB3LYP) =  -423.173140489     A.U. after    1 cycles

 The electronic state is 1-A.
 Alpha  occ. eigenvalues --  -19.13378 -19.12407 -10.23792 -10.23343 -10.22577
 Alpha  occ. eigenvalues --  -10.18534 -10.18372 -10.18045 -10.17576  -1.02808
 Alpha  occ. eigenvalues --   -1.01549  -0.83267  -0.73899  -0.71079  -0.68869
 Alpha  occ. eigenvalues --   -0.61141  -0.55699  -0.52347  -0.51220  -0.49573
 Alpha  occ. eigenvalues --   -0.47188  -0.46000  -0.43964  -0.40312  -0.39221
 Alpha  occ. eigenvalues --   -0.37963  -0.36477  -0.35427  -0.32511  -0.32223
 Alpha  occ. eigenvalues --   -0.30228  -0.27518  -0.25704  -0.23549
 Alpha virt. eigenvalues --    0.00417   0.08137   0.09639   0.10651   0.11676
 Alpha virt. eigenvalues --    0.12222   0.13759   0.15079   0.16949   0.17070
 Alpha virt. eigenvalues --    0.17620   0.18390   0.20016   0.21742   0.23093

 Mulliken charges:
               1
     1  O   -0.436383
     2  C    0.068528
     3  C   -0.318183
     4  C    0.423868
     5  C   -0.350341
     6  C   -0.069193
     7  O   -0.325775
     8  C   -0.119339
     9  C   -0.074948
    10  H    0.283586
    11  H    0.081671
    12  H    0.102912
    13  H    0.111568
    14  H    0.109713
    15  H    0.109467
    16  H    0.099582
    17  H    0.099980
    18  H    0.097219
    19  H    0.106067
 Sum of Mulliken charges =   0.00000

 Dipole moment (field-independent basis, Debye):
    X=             -0.4536    Y=             -0.9801    Z=              0.5603  Tot=              1.2167
 Quadrupole moment (field-independent basis, Debye-Ang):
   XX=            -51.7935   YY=            -48.3570   ZZ=            -55.9526
   XY=             -2.6467   XZ=             -6.0166   YZ=              1.2915

  Exact polarizability: 100.384  -0.151  72.855  -3.681   2.282  59.327
 Approx polarizability: 136.292  -1.674 104.389  -4.641   3.765  93.645

                      1                      2                      3
                      A                      A                      A
 Frequencies --     58.6020                69.6270               192.4682
 Red. masses --      2.7177                 2.8465                 3.6804
 Frc consts  --      0.0055                 0.0081                 0.0803
 IR Inten    --      0.9412                 1.3613                 4.8734

                      4                      5                      6
                      A                      A                      A
 Frequencies --    260.5422               275.6966               319.8910
 Red. masses --      1.1751                 2.0717                 6.0824
 Frc consts  --      0.0470                 0.0928                 0.3667
 IR Inten    --     78.3174                19.4198                11.2085

                      7                      8                      9
                      A                      A                      A
 Frequencies --    409.5803               428.9746               455.1350
 Red. masses --      2.4686                 3.2630                 2.7720
 Frc consts  --      0.2440                 0.3538                 0.3383
 IR Inten    --     14.4852                 1.2677                 1.2215

                     10                     11                     12
                      A                      A                      A
 Frequencies --    583.8936               681.3305               778.1141
 Red. masses --      3.4840                 3.5902                 1.2486
 Frc consts  --      0.6998                 0.9819                 0.4454
 IR Inten    --      3.1581                 3.3871                 0.7662

                     13                     14                     15
                      A                      A                      A
 Frequencies --    801.2150               814.6943               861.5049
 Red. masses --      2.2093                 2.0375                 3.6337
 Frc consts  --      0.8356                 0.7968                 1.5890
 IR Inten    --      3.6151                11.0503                41.5860

                     16                     17                     18
                      A                      A                      A
 Frequencies --    866.0855               890.5467               951.2376
 Red. masses --      3.0794                 2.5401                 1.5866
 Frc consts  --      1.3609                 1.1869                 0.8458
 IR Inten    --      0.3742                10.7988                 6.6253

                     19                     20                     21
                      A                      A                      A
 Frequencies --    980.8886               986.3152              1001.2887
 Red. masses --      2.6211                 1.3733                 2.0543
 Frc consts  --      1.4858                 0.7871                 1.2135
 IR Inten    --      1.4602                 0.8640                10.3603

                     22                     23                     24
                      A                      A                      A
 Frequencies --   1019.5428              1050.0599              1092.4135
 Red. masses --      6.6916                 2.3171                 3.8928
 Frc consts  --      4.0982                 1.5053                 2.7371
 IR Inten    --    132.6107                17.7320               103.0472

                     25                     26                     27
                      A                      A                      A
 Frequencies --   1121.2884              1159.1858              1177.0080
 Red. masses --      1.4357                 1.2829                 2.0345
 Frc consts  --      1.0636                 1.0157                 1.6606
 IR Inten    --      5.1437                 4.7139                14.4070

                     28                     29                     30
                      A                      A                      A
 Frequencies --   1200.7760              1211.9455              1226.1930
 Red. masses --      1.6557                 1.3185                 1.0697
 Frc consts  --      1.4066                 1.1410                 0.9476
 IR Inten    --      0.6587                 3.2906                57.4026

                     31                     32                     33
                      A                      A                      A
 Frequencies --   1256.5998              1264.4777              1285.5416
 Red. masses --      1.7168                 1.4917                 1.7997
 Frc consts  --      1.5972                 1.4053                 1.7524
 IR Inten    --      7.6229                 2.8232                22.0194

                     34                     35                     36
                      A                      A                      A
 Frequencies --   1338.6456              1351.1810              1371.6142
 Red. masses --      1.4246                 1.3934                 1.6621
 Frc consts  --      1.5040                 1.4988                 1.8423
 IR Inten    --     23.7834                 5.4613                21.6838

                     37                     38                     39
                      A                      A                      A
 Frequencies --   1430.8765              1467.0128              1488.3763
 Red. masses --      1.5788                 1.1059                 1.1046
 Frc consts  --      1.9045                 1.4023                 1.4418
 IR Inten    --     13.7910                 2.8654                 3.3737

                     40                     41                     42
                      A                      A                      A
 Frequencies --   1532.3182              1684.6707              2964.5023
 Red. masses --      1.1059                 6.9631                 1.0824
 Frc consts  --      1.5299                11.6434                 5.6046
 IR Inten    --      1.9497                 0.8473                49.4214

                     43                     44                     45
                      A                      A                      A
 Frequencies --   3012.8357              3049.4527              3052.0116
 Red. masses --      1.0551                 1.1108                 1.0603
 Frc consts  --      5.6429                 6.0860                 5.8192
 IR Inten    --    100.9710                38.4141                10.1521

                     46                     47                     48
                      A                      A                      A
 Frequencies --   3072.8576              3110.3176              3127.0007
 Red. masses --      1.0594                 1.1043                 1.1087
 Frc consts  --      5.8938                 6.2944                 6.3872
 IR Inten    --     25.5291                18.4106                19.9688

                     49                     50                     51
                      A                      A                      A
 Frequencies --   3185.3934              3212.0233              3820.7433
 Red. masses --      1.0855                 1.1045                 1.0663
 Frc consts  --      6.4893                 6.7137                 9.1711
 IR Inten    --      6.2251                14.1585                19.7854

 - Thermochemistry -
 -------------------
 Temperature   298.150 Kelvin.  Pressure   1.00000 Atm.
 Atom     1 has atomic number  8 and mass  15.99491

 Molecular mass:   126.06808 amu.
 Principal axes and moments of inertia in atomic units:
                           1         2         3
     Eigenvalues --   442.730101668.980561787.59325
           X            0.99984   0.00023  -0.01801
           Y            0.00013   0.99980   0.02003
           Z            0.01801  -0.02003   0.99964
 This molecule is an asymmetric top.
 Rotational symmetry number  1.
 Warning -- assumption of classical behavior for rotation
           may cause significant error
 Rotational temperatures (Kelvin)      0.19564     0.05190     0.04845
 Rotational constants (GHZ):           4.07639     1.08134     1.00959
 Zero-point vibrational energy     418719.9 (Joules/Mol)
                                  100.07645 (Kcal/Mol)
 Warning -- explicit consideration of  10 degrees of freedom as
           vibrations may cause significant error
 Vibrational temperatures:     84.32   100.18   276.92   374.86   396.67
          (Kelvin)            460.25   589.29   617.20   654.84   840.09
                              980.28  1119.53  1152.77  1172.16  1239.51
                             1246.10  1281.30  1368.62  1411.28  1419.09
                             1440.63  1466.89  1510.80  1571.74  1613.28
                             1667.81  1693.45  1727.65  1743.72  1764.22
                             1807.96  1819.30  1849.61  1926.01  1944.05
                             1973.44  2058.71  2110.70  2141.44  2204.66
                             2423.86  4265.25  4334.79  4387.48  4391.16
                             4421.15  4475.05  4499.05  4583.06  4621.38
                             5497.19

 Zero-point correction=                           0.159482 (Hartree/Particle)
 Thermal correction to Energy=                    0.167814
 Thermal correction to Enthalpy=                  0.168758
 Thermal correction to Gibbs Free Energy=         0.125962
 Sum of electronic and zero-point Energies=           -423.013659
 Sum of electronic and thermal Energies=              -423.005327
 Sum of electronic and thermal Enthalpies=            -423.004383
 Sum of electronic and thermal Free Energies=         -423.047179

                     E (Thermal)             CV                S
                      KCal/Mol        Cal/Mol-Kelvin    Cal/Mol-Kelvin
 Total                  105.305             31.673             90.072
 Electronic               0.000              0.000              0.000
 Translational            0.889              2.981             40.409
 Rotational               0.889              2.981             28.670
 Vibrational            103.527             25.711             20.993
 Vibration     1          0.596              1.974              4.504
 Vibration     2          0.598              1.969              4.164
 Vibration     3          0.634              1.850              2.204
 Vibration     4          0.669              1.745              1.658
 Vibration     5          0.677              1.718              1.560
 Vibration     6          0.706              1.636              1.311
 Vibration     7          0.774              1.449              0.928
 Vibration     8          0.790              1.407              0.862
 Vibration     9          0.813              1.350              0.780
 Vibration    10          0.941              1.066              0.478

 Normal termination of Gaussian 09 at Tue Jan 28 03:36:45 2020.
