 Gaussian 09, Revision D.01,
 Gaussian 09:  ES64L-G09RevD.01 24-Apr-2013

 -----------------------------
 # b3lyp 6-31G(2df,p) opt Freq
 -----------------------------

 -----
 titel
 -----
 Symbolic Z-matrix:
 Charge =  0 Multiplicity = 1

 SCF Done:  E(RB3LYP) =  -423.175319983     A.U. after   14 cycles
 Optimization completed.
    -- Stationary point found.
 Normal termination of Gaussian 09 at Tue Jan 28 12:08:53 2020.

 ----------------------------------------------------------------------
 #N Geom=AllCheck Guess=TCheck SCRF=Check GenChk RB3LYP/6-31G(2df,p) Fr
 eq
 ----------------------------------------------------------------------

 Structure from the checkpoint file:  "/scratch/puck/g09_1fd4d2f1-d0e2-4a85-a1ef-9c94369c5922/Gau-65841.chk"
 -----
 titel
 -----
 Charge =  0 Multiplicity = 1

                         Standard orientation:
 ---------------------------------------------------------------------
 Center     Atomic      Atomic             Coordinates (Angstroms)
 Number     Number       Type             X           Y           Z
 ---------------------------------------------------------------------
      1          6           0       -2.860924   -0.598196   -0.190494
      2          6           0       -1.732642   -0.268354    0.794502
      3          6           0       -0.428523    0.021621    0.093423
      4          6           0        0.350449   -1.126284   -0.612781
      5          6           0        1.640213   -0.593880    0.046319
      6          8           0        2.780879   -0.954488    0.042997
      7          6           0        0.893191    0.533415    0.770026
      8          6           0        0.682201    1.773812   -0.128074
      9          8           0       -0.484620    1.200297   -0.752199
     10          1           0       -3.003631    0.224704   -0.896262
     11          1           0       -2.635345   -1.501791   -0.766719
     12          1           0       -3.803966   -0.764556    0.337629
     13          1           0       -2.008300    0.605967    1.395855
     14          1           0       -1.579623   -1.100485    1.493360
     15          1           0        0.101997   -2.129400   -0.247778
     16          1           0        0.321683   -1.123181   -1.704766
     17          1           0        1.066069    0.682103    1.835380
     18          1           0        0.430334    2.680185    0.435098
     19          1           0        1.476916    2.007177   -0.845713
 ---------------------------------------------------------------------

 SCF Done:  E(RB3LYP) =  -423.175319983     A.U. after    1 cycles

 The electronic state is 1-A.
 Alpha  occ. eigenvalues --  -19.14191 -19.14087 -10.27461 -10.25107 -10.24653
 Alpha  occ. eigenvalues --  -10.20099 -10.19316 -10.19289 -10.18050  -1.05553
 Alpha  occ. eigenvalues --   -1.04468  -0.83225  -0.77964  -0.72374  -0.66256
 Alpha  occ. eigenvalues --   -0.62860  -0.56033  -0.52619  -0.49572  -0.48800
 Alpha  occ. eigenvalues --   -0.48120  -0.44824  -0.42902  -0.41398  -0.41166
 Alpha  occ. eigenvalues --   -0.40525  -0.38552  -0.37475  -0.36204  -0.34360
 Alpha  occ. eigenvalues --   -0.31944  -0.30005  -0.25711  -0.24550
 Alpha virt. eigenvalues --   -0.02781   0.06247   0.09129   0.11623   0.12479
 Alpha virt. eigenvalues --    0.12996   0.13202   0.14748   0.14854   0.16509
 Alpha virt. eigenvalues --    0.17037   0.17625   0.18693   0.19223   0.20990

 Mulliken charges:
               1
     1  C   -0.383857
     2  C   -0.270754
     3  C    0.459799
     4  C   -0.403589
     5  C    0.413565
     6  O   -0.297307
     7  C   -0.283106
     8  C   -0.092272
     9  O   -0.327695
    10  H    0.141050
    11  H    0.119122
    12  H    0.115984
    13  H    0.105240
    14  H    0.099774
    15  H    0.131781
    16  H    0.138949
    17  H    0.100685
    18  H    0.114234
    19  H    0.118397
 Sum of Mulliken charges =   0.00000

 Dipole moment (field-independent basis, Debye):
    X=             -1.9697    Y=              0.3649    Z=              1.1466  Tot=              2.3081
 Quadrupole moment (field-independent basis, Debye-Ang):
   XX=            -62.1383   YY=            -51.7228   ZZ=            -52.2401
   XY=              5.7831   XZ=             -1.3869   YZ=              1.6210

  Exact polarizability:  86.691   1.792  76.242   0.112   3.088  64.099
 Approx polarizability: 120.272  -2.335 110.323   2.179   2.652  98.304

                      1                      2                      3
                      A                      A                      A
 Frequencies --     71.2607                96.4843               160.9580
 Red. masses --      4.3650                 2.4321                 2.8150
 Frc consts  --      0.0131                 0.0133                 0.0430
 IR Inten    --      4.4964                 1.3280                 0.8550

                      4                      5                      6
                      A                      A                      A
 Frequencies --    206.6350               220.8449               340.6057
 Red. masses --      2.1322                 1.3259                 2.1699
 Frc consts  --      0.0536                 0.0381                 0.1483
 IR Inten    --      2.1384                 0.8902                 0.1539

                      7                      8                      9
                      A                      A                      A
 Frequencies --    353.7457               382.6167               444.6658
 Red. masses --      3.0836                 3.2345                 3.8424
 Frc consts  --      0.2274                 0.2790                 0.4476
 IR Inten    --      1.4276                 5.1928                 2.4204

                     10                     11                     12
                      A                      A                      A
 Frequencies --    525.9632               612.8549               646.9102
 Red. masses --      2.1945                 4.2887                 3.0005
 Frc consts  --      0.3577                 0.9491                 0.7398
 IR Inten    --      1.4445                 3.5363                 2.7911

                     13                     14                     15
                      A                      A                      A
 Frequencies --    726.2289               783.2448               837.9086
 Red. masses --      2.3850                 1.2175                 2.6580
 Frc consts  --      0.7411                 0.4401                 1.0995
 IR Inten    --      3.3801                 0.8704                10.0911

                     16                     17                     18
                      A                      A                      A
 Frequencies --    917.7747               928.2785               946.3917
 Red. masses --      2.6311                 1.9824                 2.0062
 Frc consts  --      1.3057                 1.0064                 1.0587
 IR Inten    --      6.3326                 0.6507                11.4048

                     19                     20                     21
                      A                      A                      A
 Frequencies --    975.0593               986.3643               999.0962
 Red. masses --      2.9559                 2.1210                 3.5667
 Frc consts  --      1.6558                 1.2158                 2.0977
 IR Inten    --     17.4985                16.5252                24.0652

                     22                     23                     24
                      A                      A                      A
 Frequencies --   1039.7445              1070.2690              1100.7071
 Red. masses --      2.6667                 2.1710                 1.8832
 Frc consts  --      1.6985                 1.4652                 1.3443
 IR Inten    --     49.3731                40.4133                 5.4192

                     25                     26                     27
                      A                      A                      A
 Frequencies --   1112.2784              1141.5566              1165.4924
 Red. masses --      1.8985                 2.1203                 1.2191
 Frc consts  --      1.3839                 1.6280                 0.9757
 IR Inten    --      2.0036                14.6079                 7.2060

                     28                     29                     30
                      A                      A                      A
 Frequencies --   1193.2414              1199.9592              1239.1387
 Red. masses --      2.0773                 1.8002                 1.7844
 Frc consts  --      1.7427                 1.5272                 1.6143
 IR Inten    --     12.5035                10.2393                27.5354

                     31                     32                     33
                      A                      A                      A
 Frequencies --   1286.8863              1317.5301              1343.6422
 Red. masses --      1.5177                 1.5612                 1.3883
 Frc consts  --      1.4808                 1.5967                 1.4767
 IR Inten    --     19.1878                17.5414                 6.1153

                     34                     35                     36
                      A                      A                      A
 Frequencies --   1378.8261              1408.1979              1417.9455
 Red. masses --      1.9237                 1.2227                 1.1447
 Frc consts  --      2.1548                 1.4285                 1.3560
 IR Inten    --      4.3910                 4.0729                 8.2104

                     37                     38                     39
                      A                      A                      A
 Frequencies --   1476.1287              1497.5674              1509.2319
 Red. masses --      1.0767                 1.0431                 1.0662
 Frc consts  --      1.3823                 1.3783                 1.4309
 IR Inten    --      1.2719                 4.3444                 5.1409

                     40                     41                     42
                      A                      A                      A
 Frequencies --   1527.0530              1891.0398              3021.3942
 Red. masses --      1.0938                12.6643                 1.0558
 Frc consts  --      1.5028                26.6828                 5.6784
 IR Inten    --      0.4409               283.0485                70.9318

                     43                     44                     45
                      A                      A                      A
 Frequencies --   3026.3456              3040.5091              3050.9491
 Red. masses --      1.0598                 1.0361                 1.0619
 Frc consts  --      5.7188                 5.6435                 5.8236
 IR Inten    --     19.0079                21.4545                 3.0198

                     46                     47                     48
                      A                      A                      A
 Frequencies --   3063.9742              3067.9668              3108.4052
 Red. masses --      1.1011                 1.1105                 1.1010
 Frc consts  --      6.0904                 6.1584                 6.2679
 IR Inten    --     13.4444                29.7147                34.3464

                     49                     50                     51
                      A                      A                      A
 Frequencies --   3120.0264              3122.5197              3125.0326
 Red. masses --      1.1020                 1.1022                 1.0900
 Frc consts  --      6.3206                 6.3315                 6.2717
 IR Inten    --      3.7478                21.0601                11.0285

 - Thermochemistry -
 -------------------
 Temperature   298.150 Kelvin.  Pressure   1.00000 Atm.
 Atom     1 has atomic number  6 and mass  12.00000

 Molecular mass:   126.06808 amu.
 Principal axes and moments of inertia in atomic units:
                           1         2         3
     Eigenvalues --   596.523071412.219571709.18478
           X            0.99884   0.04801  -0.00349
           Y           -0.04786   0.99822   0.03572
           Z            0.00520  -0.03551   0.99936
 This molecule is an asymmetric top.
 Rotational symmetry number  1.
 Warning -- assumption of classical behavior for rotation
           may cause significant error
 Rotational temperatures (Kelvin)      0.14520     0.06133     0.05068
 Rotational constants (GHZ):           3.02543     1.27795     1.05591
 Zero-point vibrational energy     414072.1 (Joules/Mol)
                                   98.96561 (Kcal/Mol)
 Warning -- explicit consideration of  11 degrees of freedom as
           vibrations may cause significant error
 Vibrational temperatures:    102.53   138.82   231.58   297.30   317.75
          (Kelvin)            490.06   508.96   550.50   639.77   756.74
                              881.76   930.76  1044.88  1126.91  1205.56
                             1320.47  1335.58  1361.64  1402.89  1419.16
                             1437.47  1495.96  1539.88  1583.67  1600.32
                             1642.44  1676.88  1716.81  1726.47  1782.84
                             1851.54  1895.63  1933.20  1983.82  2026.08
                             2040.10  2123.82  2154.66  2171.45  2197.09
                             2720.78  4347.11  4354.23  4374.61  4389.63
                             4408.37  4414.11  4472.30  4489.02  4492.60
                             4496.22

 Zero-point correction=                           0.157712 (Hartree/Particle)
 Thermal correction to Energy=                    0.166385
 Thermal correction to Enthalpy=                  0.167329
 Thermal correction to Gibbs Free Energy=         0.124100
 Sum of electronic and zero-point Energies=           -423.017608
 Sum of electronic and thermal Energies=              -423.008935
 Sum of electronic and thermal Enthalpies=            -423.007991
 Sum of electronic and thermal Free Energies=         -423.051220

                     E (Thermal)             CV                S
                      KCal/Mol        Cal/Mol-Kelvin    Cal/Mol-Kelvin
 Total                  104.408             32.504             90.984
 Electronic               0.000              0.000              0.000
 Translational            0.889              2.981             40.409
 Rotational               0.889              2.981             28.756
 Vibrational            102.631             26.542             21.820
 Vibration     1          0.598              1.968              4.118
 Vibration     2          0.603              1.952              3.524
 Vibration     3          0.622              1.890              2.539
 Vibration     4          0.641              1.830              2.073
 Vibration     5          0.648              1.809              1.952
 Vibration     6          0.720              1.594              1.209
 Vibration     7          0.730              1.568              1.149
 Vibration     8          0.752              1.507              1.029
 Vibration     9          0.804              1.373              0.812
 Vibration    10          0.881              1.193              0.596
 Vibration    11          0.972              1.005              0.428

 Optimization completed.
    -- Stationary point found.
 Normal termination of Gaussian 09 at Tue Jan 28 12:54:16 2020.
