 Gaussian 09, Revision D.01,
 Gaussian 09:  ES64L-G09RevD.01 24-Apr-2013

 -----------------------------
 # b3lyp 6-31G(2df,p) opt Freq
 -----------------------------

 -----
 titel
 -----
 Symbolic Z-matrix:
 Charge =  0 Multiplicity = 1

 SCF Done:  E(RB3LYP) =  -423.154630366     A.U. after   13 cycles
 Optimization completed.
    -- Stationary point found.
 Normal termination of Gaussian 09 at Mon Jan 27 12:19:30 2020.

 ----------------------------------------------------------------------
 #N Geom=AllCheck Guess=TCheck SCRF=Check GenChk RB3LYP/6-31G(2df,p) Fr
 eq
 ----------------------------------------------------------------------

 Structure from the checkpoint file:  "/scratch/puck/g09_e593dc6c-c2f8-41a3-a742-96d1ef834e5d/Gau-45343.chk"
 -----
 titel
 -----
 Charge =  0 Multiplicity = 1

                         Standard orientation:
 ---------------------------------------------------------------------
 Center     Atomic      Atomic             Coordinates (Angstroms)
 Number     Number       Type             X           Y           Z
 ---------------------------------------------------------------------
      1          6           0        2.273869    0.645524    0.030461
      2          8           0        2.166079   -0.796882    0.097444
      3          6           0        0.842457   -0.769639   -0.471182
      4          6           0        0.836672    0.783864   -0.496465
      5          6           0       -0.254675    0.794736    0.605175
      6          6           0       -1.660743    1.147501    0.111842
      7          8           0       -2.108013    0.020715   -0.631536
      8          6           0       -1.667268   -1.124463    0.090464
      9          6           0       -0.265853   -0.784451    0.605020
     10          1           0        2.486474    1.095708    1.009010
     11          1           0        3.053328    0.951152   -0.679092
     12          1           0        0.740380   -1.430267   -1.337636
     13          1           0        0.668557    1.392848   -1.384620
     14          1           0        0.010526    1.313953    1.528844
     15          1           0       -2.326384    1.334923    0.971016
     16          1           0       -1.694914    2.018301   -0.549519
     17          1           0       -2.342791   -1.333958    0.936148
     18          1           0       -1.693340   -1.978728   -0.592711
     19          1           0        0.006873   -1.313034    1.519400
 ---------------------------------------------------------------------

 SCF Done:  E(RB3LYP) =  -423.154630366     A.U. after    1 cycles

 The electronic state is 1-A.
 Alpha  occ. eigenvalues --  -19.13905 -19.13147 -10.23142 -10.23100 -10.22822
 Alpha  occ. eigenvalues --  -10.22793 -10.19426 -10.19155 -10.18821  -1.04188
 Alpha  occ. eigenvalues --   -1.03414  -0.83006  -0.74696  -0.71068  -0.67370
 Alpha  occ. eigenvalues --   -0.59787  -0.59308  -0.52535  -0.51185  -0.49597
 Alpha  occ. eigenvalues --   -0.49163  -0.44877  -0.44221  -0.43102  -0.41341
 Alpha  occ. eigenvalues --   -0.39374  -0.36629  -0.34077  -0.33165  -0.31436
 Alpha  occ. eigenvalues --   -0.30410  -0.28655  -0.25558  -0.24101
 Alpha virt. eigenvalues --    0.06530   0.09035   0.10245   0.10668   0.12817
 Alpha virt. eigenvalues --    0.13516   0.14234   0.14525   0.15144   0.16170
 Alpha virt. eigenvalues --    0.17349   0.18777   0.20076   0.20416   0.21073

 Mulliken charges:
               1
     1  C   -0.095270
     2  O   -0.296191
     3  C    0.129338
     4  C   -0.074632
     5  C   -0.047101
     6  C   -0.105394
     7  O   -0.249553
     8  C   -0.104606
     9  C   -0.064311
    10  H    0.098165
    11  H    0.102014
    12  H    0.075635
    13  H    0.078779
    14  H    0.073508
    15  H    0.088157
    16  H    0.107725
    17  H    0.090272
    18  H    0.109521
    19  H    0.083944
 Sum of Mulliken charges =   0.00000

 Dipole moment (field-independent basis, Debye):
    X=             -0.2280    Y=              1.1874    Z=              0.6550  Tot=              1.3751
 Quadrupole moment (field-independent basis, Debye-Ang):
   XX=            -59.2018   YY=            -50.6108   ZZ=            -52.5954
   XY=              4.0051   XZ=             -3.4951   YZ=              0.5208

  Exact polarizability:  82.076   3.859  74.584  -2.477   0.990  65.012
 Approx polarizability: 106.729   2.760 111.040  -0.046   1.106 101.457

                      1                      2                      3
                      A                      A                      A
 Frequencies --     95.1298               186.6772               267.9116
 Red. masses --      3.1459                 5.2379                 2.4474
 Frc consts  --      0.0168                 0.1075                 0.1035
 IR Inten    --      2.3924                 6.2362                 1.6805

                      4                      5                      6
                      A                      A                      A
 Frequencies --    304.5174               325.3094               395.6524
 Red. masses --      2.2668                 2.7486                 3.0121
 Frc consts  --      0.1238                 0.1714                 0.2778
 IR Inten    --      2.6660                 0.2704                 3.3831

                      7                      8                      9
                      A                      A                      A
 Frequencies --    586.8540               707.0570               775.6431
 Red. masses --      3.9594                 4.7095                 2.3878
 Frc consts  --      0.8034                 1.3872                 0.8464
 IR Inten    --      0.6568                12.3631                 3.2312

                     10                     11                     12
                      A                      A                      A
 Frequencies --    824.6371               843.3298               862.9098
 Red. masses --      1.8966                 3.1534                 2.1305
 Frc consts  --      0.7599                 1.3214                 0.9347
 IR Inten    --      5.8524                 4.0986                 4.2285

                     13                     14                     15
                      A                      A                      A
 Frequencies --    882.7701               891.1662               943.8938
 Red. masses --      2.7372                 3.4802                 3.8704
 Frc consts  --      1.2568                 1.6284                 2.0317
 IR Inten    --      1.1324                 0.6818                26.3771

                     16                     17                     18
                      A                      A                      A
 Frequencies --    965.5430               988.4537              1001.2637
 Red. masses --      2.8067                 1.4385                 2.1637
 Frc consts  --      1.5417                 0.8281                 1.2781
 IR Inten    --     18.2159                 2.5659                 0.6318

                     19                     20                     21
                      A                      A                      A
 Frequencies --   1017.3436              1024.4481              1063.5311
 Red. masses --      3.3102                 2.6523                 2.3984
 Frc consts  --      2.0185                 1.6400                 1.5984
 IR Inten    --     46.9533                42.5463                28.5864

                     22                     23                     24
                      A                      A                      A
 Frequencies --   1071.6458              1113.4617              1127.9659
 Red. masses --      1.5243                 4.5997                 2.2353
 Frc consts  --      1.0314                 3.3599                 1.6756
 IR Inten    --      1.8642                55.5599                 4.7580

                     25                     26                     27
                      A                      A                      A
 Frequencies --   1152.7950              1166.5133              1193.3713
 Red. masses --      1.6171                 1.4162                 1.4262
 Frc consts  --      1.2662                 1.1354                 1.1967
 IR Inten    --      0.7310                 2.8560                10.4605

                     28                     29                     30
                      A                      A                      A
 Frequencies --   1203.4385              1231.3249              1255.0037
 Red. masses --      1.4097                 1.5628                 1.3850
 Frc consts  --      1.2029                 1.3960                 1.2853
 IR Inten    --      6.8029                 1.5702                 0.7382

                     31                     32                     33
                      A                      A                      A
 Frequencies --   1259.1503              1266.9060              1296.3514
 Red. masses --      1.3657                 1.4272                 1.2688
 Frc consts  --      1.2758                 1.3497                 1.2562
 IR Inten    --      2.6640                 3.6250                 1.7781

                     34                     35                     36
                      A                      A                      A
 Frequencies --   1314.5040              1335.9064              1351.1763
 Red. masses --      1.5547                 1.9209                 1.2593
 Frc consts  --      1.5828                 2.0198                 1.3546
 IR Inten    --     11.7888                 0.7011                 2.4729

                     37                     38                     39
                      A                      A                      A
 Frequencies --   1365.0888              1402.3621              1497.9339
 Red. masses --      1.4851                 1.3586                 1.0834
 Frc consts  --      1.6306                 1.5743                 1.4323
 IR Inten    --      9.9052                 4.5872                 0.0899

                     40                     41                     42
                      A                      A                      A
 Frequencies --   1511.6590              1523.1796              2962.9905
 Red. masses --      1.1035                 1.0998                 1.0703
 Frc consts  --      1.4857                 1.5033                 5.5361
 IR Inten    --      1.8489                 0.8428                46.0381

                     43                     44                     45
                      A                      A                      A
 Frequencies --   2970.7135              3005.2546              3047.5226
 Red. masses --      1.0714                 1.0548                 1.1109
 Frc consts  --      5.5710                 5.6129                 6.0788
 IR Inten    --    101.7136                86.2156                37.0999

                     46                     47                     48
                      A                      A                      A
 Frequencies --   3060.5982              3080.7792              3083.5535
 Red. masses --      1.0883                 1.0902                 1.0921
 Frc consts  --      6.0062                 6.0967                 6.1182
 IR Inten    --     43.6051                58.1782                28.2517

                     49                     50                     51
                      A                      A                      A
 Frequencies --   3084.6109              3108.4621              3111.9107
 Red. masses --      1.0899                 1.0877                 1.0908
 Frc consts  --      6.1102                 6.1923                 6.2236
 IR Inten    --      2.9331                40.2706                13.4215

 - Thermochemistry -
 -------------------
 Temperature   298.150 Kelvin.  Pressure   1.00000 Atm.
 Atom     1 has atomic number  6 and mass  12.00000

 Molecular mass:   126.06808 amu.
 Principal axes and moments of inertia in atomic units:
                           1         2         3
     Eigenvalues --   464.998671286.531571512.07259
           X            0.99963   0.02356  -0.01331
           Y           -0.02345   0.99969   0.00814
           Z            0.01350  -0.00783   0.99988
 This molecule is an asymmetric top.
 Rotational symmetry number  1.
 Warning -- assumption of classical behavior for rotation
           may cause significant error
 Rotational temperatures (Kelvin)      0.18627     0.06732     0.05728
 Rotational constants (GHZ):           3.88117     1.40280     1.19355
 Zero-point vibrational energy     425333.3 (Joules/Mol)
                                  101.65710 (Kcal/Mol)
 Warning -- explicit consideration of   7 degrees of freedom as
           vibrations may cause significant error
 Vibrational temperatures:    136.87   268.59   385.46   438.13   468.05
          (Kelvin)            569.25   844.35  1017.30  1115.98  1186.47
                             1213.36  1241.53  1270.11  1282.19  1358.05
                             1389.20  1422.16  1440.59  1463.73  1473.95
                             1530.18  1541.86  1602.02  1622.89  1658.61
                             1678.35  1716.99  1731.48  1771.60  1805.67
                             1811.63  1822.79  1865.16  1891.28  1922.07
                             1944.04  1964.06  2017.68  2155.19  2174.94
                             2191.51  4263.08  4274.19  4323.89  4384.70
                             4403.51  4432.55  4436.54  4438.06  4472.38
                             4477.34

 Zero-point correction=                           0.162001 (Hartree/Particle)
 Thermal correction to Energy=                    0.168947
 Thermal correction to Enthalpy=                  0.169891
 Thermal correction to Gibbs Free Energy=         0.130491
 Sum of electronic and zero-point Energies=           -422.992629
 Sum of electronic and thermal Energies=              -422.985683
 Sum of electronic and thermal Enthalpies=            -422.984739
 Sum of electronic and thermal Free Energies=         -423.024140

                     E (Thermal)             CV                S
                      KCal/Mol        Cal/Mol-Kelvin    Cal/Mol-Kelvin
 Total                  106.016             27.660             82.926
 Electronic               0.000              0.000              0.000
 Translational            0.889              2.981             40.409
 Rotational               0.889              2.981             28.294
 Vibrational            104.239             21.698             14.224
 Vibration     1          0.603              1.953              3.552
 Vibration     2          0.632              1.858              2.261
 Vibration     3          0.673              1.732              1.610
 Vibration     4          0.695              1.665              1.392
 Vibration     5          0.709              1.625              1.283
 Vibration     6          0.762              1.479              0.979
 Vibration     7          0.944              1.060              0.473

 Optimization completed.
    -- Stationary point found.
 Normal termination of Gaussian 09 at Mon Jan 27 13:05:38 2020.
