 Gaussian 09, Revision D.01,
 Gaussian 09:  ES64L-G09RevD.01 24-Apr-2013

 -----------------------------
 # b3lyp 6-31G(2df,p) opt Freq
 -----------------------------

 -----
 titel
 -----
 Symbolic Z-matrix:
 Charge =  0 Multiplicity = 1

 SCF Done:  E(RB3LYP) =  -423.172082549     A.U. after   13 cycles
 SCF Done:  E(RB3LYP) =  -423.172083206     A.U. after    6 cycles
 Optimization completed.
    -- Stationary point found.
 Normal termination of Gaussian 09 at Mon Jan 27 18:39:14 2020.

 ----------------------------------------------------------------------
 #N Geom=AllCheck Guess=TCheck SCRF=Check GenChk RB3LYP/6-31G(2df,p) Fr
 eq
 ----------------------------------------------------------------------

 Structure from the checkpoint file:  "/scratch/puck/g09_e117a7ba-0a07-4d0f-bb67-49d5cd1aae70/Gau-18344.chk"
 -----
 titel
 -----
 Charge =  0 Multiplicity = 1

                         Standard orientation:
 ---------------------------------------------------------------------
 Center     Atomic      Atomic             Coordinates (Angstroms)
 Number     Number       Type             X           Y           Z
 ---------------------------------------------------------------------
      1          6           0       -1.726890   -1.481292   -0.125654
      2          6           0       -0.837759   -0.261975   -0.076499
      3          6           0       -1.359398    1.198002    0.002714
      4          6           0        0.105175    1.484088    0.390805
      5          8           0        0.805937    1.192181   -0.830350
      6          6           0        0.378963   -0.173800   -1.048529
      7          6           0        1.444971   -1.026607   -0.364225
      8          8           0        1.298561   -0.668133    1.023132
      9          6           0        0.114206    0.087550    1.109052
     10          1           0       -2.276109   -1.533717   -1.072791
     11          1           0       -1.148741   -2.405651   -0.023912
     12          1           0       -2.462799   -1.462166    0.684556
     13          1           0       -1.720201    1.679320   -0.908158
     14          1           0       -2.070537    1.329550    0.822412
     15          1           0        0.465188    2.416339    0.821946
     16          1           0        0.207856   -0.365552   -2.109229
     17          1           0        1.296358   -2.108518   -0.495190
     18          1           0        2.447370   -0.756547   -0.708480
     19          1           0       -0.289981    0.058765    2.120601
 ---------------------------------------------------------------------

 SCF Done:  E(RB3LYP) =  -423.172083206     A.U. after    1 cycles

 The electronic state is 1-A.
 Alpha  occ. eigenvalues --  -19.13850 -19.13639 -10.23415 -10.23186 -10.23134
 Alpha  occ. eigenvalues --  -10.22479 -10.20135 -10.18506 -10.18454  -1.06676
 Alpha  occ. eigenvalues --   -1.01057  -0.83672  -0.76604  -0.70944  -0.66986
 Alpha  occ. eigenvalues --   -0.62850  -0.56878  -0.55359  -0.50921  -0.49064
 Alpha  occ. eigenvalues --   -0.46903  -0.45330  -0.41426  -0.41055  -0.40129
 Alpha  occ. eigenvalues --   -0.38853  -0.37878  -0.36512  -0.34359  -0.33652
 Alpha  occ. eigenvalues --   -0.31468  -0.30930  -0.25581  -0.22589
 Alpha virt. eigenvalues --    0.08561   0.09773   0.10844   0.12224   0.12856
 Alpha virt. eigenvalues --    0.13952   0.15291   0.15647   0.16223   0.17322
 Alpha virt. eigenvalues --    0.17849   0.18255   0.19169   0.19854   0.21824

 Mulliken charges:
               1
     1  C   -0.512549
     2  C    0.266459
     3  C   -0.301219
     4  C    0.042289
     5  O   -0.283469
     6  C    0.022473
     7  C   -0.080186
     8  O   -0.281103
     9  C    0.098778
    10  H    0.121261
    11  H    0.127631
    12  H    0.121782
    13  H    0.105631
    14  H    0.100615
    15  H    0.081467
    16  H    0.078229
    17  H    0.090266
    18  H    0.115226
    19  H    0.086418
 Sum of Mulliken charges =   0.00000

 Dipole moment (field-independent basis, Debye):
    X=             -1.8760    Y=             -0.6513    Z=             -0.2920  Tot=              2.0072
 Quadrupole moment (field-independent basis, Debye-Ang):
   XX=            -54.3672   YY=            -53.0203   ZZ=            -52.7245
   XY=             -1.0725   XZ=             -2.0610   YZ=              4.0652

  Exact polarizability:  75.696  -2.458  76.395  -2.574   4.268  68.252
 Approx polarizability: 107.714  -2.793 109.668  -3.057   4.004 107.424

                      1                      2                      3
                      A                      A                      A
 Frequencies --    177.0123               227.6456               258.1154
 Red. masses --      1.0931                 2.6886                 2.3773
 Frc consts  --      0.0202                 0.0821                 0.0933
 IR Inten    --      0.0838                 0.9072                 1.4256

                      4                      5                      6
                      A                      A                      A
 Frequencies --    281.4137               409.1025               439.2935
 Red. masses --      3.3165                 2.2105                 2.9545
 Frc consts  --      0.1547                 0.2180                 0.3359
 IR Inten    --      4.2861                 1.7753                 0.9245

                      7                      8                      9
                      A                      A                      A
 Frequencies --    494.7755               578.1286               648.2056
 Red. masses --      2.8695                 4.1793                 4.1943
 Frc consts  --      0.4139                 0.8230                 1.0383
 IR Inten    --      3.1221                 0.7856                 0.5960

                     10                     11                     12
                      A                      A                      A
 Frequencies --    737.4231               755.7177               810.1115
 Red. masses --      5.4079                 3.9732                 2.4033
 Frc consts  --      1.7326                 1.3369                 0.9293
 IR Inten    --     10.1254                 2.1584                 3.1098

                     13                     14                     15
                      A                      A                      A
 Frequencies --    853.6554               878.6111               919.2411
 Red. masses --      3.2789                 2.4145                 2.5202
 Frc consts  --      1.4078                 1.0982                 1.2547
 IR Inten    --     20.2434                17.5491                 5.5072

                     16                     17                     18
                      A                      A                      A
 Frequencies --    923.2299               938.0704               952.4538
 Red. masses --      3.4920                 2.2237                 2.0606
 Frc consts  --      1.7537                 1.1529                 1.1014
 IR Inten    --     17.4066                 6.4134                 3.0983

                     19                     20                     21
                      A                      A                      A
 Frequencies --    974.9505              1000.1096              1021.2825
 Red. masses --      1.8649                 2.1210                 1.8175
 Frc consts  --      1.0444                 1.2499                 1.1169
 IR Inten    --     11.6038                10.0429                14.7124

                     22                     23                     24
                      A                      A                      A
 Frequencies --   1050.4333              1087.2434              1111.7306
 Red. masses --      2.3869                 1.3855                 1.7467
 Frc consts  --      1.5517                 0.9650                 1.2720
 IR Inten    --     28.0482                 7.1051                 6.3300

                     25                     26                     27
                      A                      A                      A
 Frequencies --   1114.3706              1151.2147              1193.8859
 Red. masses --      6.1453                 1.7451                 1.2717
 Frc consts  --      4.4962                 1.3626                 1.0679
 IR Inten    --    117.7222                 1.3829                 0.8274

                     28                     29                     30
                      A                      A                      A
 Frequencies --   1214.3537              1225.2114              1230.2185
 Red. masses --      1.7416                 1.7993                 1.5472
 Frc consts  --      1.5132                 1.5914                 1.3796
 IR Inten    --      2.7043                 2.7080                 2.4690

                     31                     32                     33
                      A                      A                      A
 Frequencies --   1250.4425              1284.6068              1304.0775
 Red. masses --      1.9056                 1.4564                 1.7458
 Frc consts  --      1.7555                 1.4161                 1.7492
 IR Inten    --      2.3178                 3.1561                16.2211

                     34                     35                     36
                      A                      A                      A
 Frequencies --   1327.3009              1354.1965              1393.6825
 Red. masses --      1.5150                 1.7752                 1.6014
 Frc consts  --      1.5725                 1.9181                 1.8327
 IR Inten    --      5.2307                 0.4769                 3.4873

                     37                     38                     39
                      A                      A                      A
 Frequencies --   1416.0438              1486.1297              1491.9899
 Red. masses --      1.3026                 1.1453                 1.0519
 Frc consts  --      1.5389                 1.4903                 1.3796
 IR Inten    --      2.0195                 1.8426                 4.4341

                     40                     41                     42
                      A                      A                      A
 Frequencies --   1494.0804              1509.6574              2995.4876
 Red. masses --      1.0553                 1.0919                 1.0683
 Frc consts  --      1.3879                 1.4662                 5.6479
 IR Inten    --      4.9713                 2.6854                65.1960

                     43                     44                     45
                      A                      A                      A
 Frequencies --   3028.5595              3066.0128              3085.1825
 Red. masses --      1.0362                 1.0568                 1.0959
 Frc consts  --      5.5996                 5.8533                 6.1459
 IR Inten    --     29.2670                23.7388                30.3945

                     46                     47                     48
                      A                      A                      A
 Frequencies --   3091.9785              3100.4940              3104.1951
 Red. masses --      1.1002                 1.1008                 1.0896
 Frc consts  --      6.1969                 6.2346                 6.1858
 IR Inten    --     16.4623                15.0605                45.3514

                     49                     50                     51
                      A                      A                      A
 Frequencies --   3126.0755              3131.1741              3143.7709
 Red. masses --      1.0915                 1.1069                 1.0927
 Frc consts  --      6.2846                 6.3942                 6.3626
 IR Inten    --      7.8333                30.6796                42.2449

 - Thermochemistry -
 -------------------
 Temperature   298.150 Kelvin.  Pressure   1.00000 Atm.
 Atom     1 has atomic number  6 and mass  12.00000

 Molecular mass:   126.06808 amu.
 Principal axes and moments of inertia in atomic units:
                           1         2         3
     Eigenvalues --   759.40648 826.104321066.93877
           X            0.99834   0.05107  -0.02654
           Y           -0.04911   0.99637   0.06959
           Z            0.03000  -0.06817   0.99722
 This molecule is an asymmetric top.
 Rotational symmetry number  1.
 Warning -- assumption of classical behavior for rotation
           may cause significant error
 Rotational temperatures (Kelvin)      0.11405     0.10485     0.08118
 Rotational constants (GHZ):           2.37652     2.18464     1.69151
 Zero-point vibrational energy     423731.3 (Joules/Mol)
                                  101.27422 (Kcal/Mol)
 Warning -- explicit consideration of   8 degrees of freedom as
           vibrations may cause significant error
 Vibrational temperatures:    254.68   327.53   371.37   404.89   588.61
          (Kelvin)            632.04   711.87   831.80   932.62  1060.99
                             1087.31  1165.57  1228.22  1264.12  1322.58
                             1328.32  1349.67  1370.37  1402.73  1438.93
                             1469.40  1511.34  1564.30  1599.53  1603.33
                             1656.34  1717.73  1747.18  1762.80  1770.01
                             1799.11  1848.26  1876.27  1909.69  1948.38
                             2005.20  2037.37  2138.21  2146.64  2149.65
                             2172.06  4309.83  4357.42  4411.30  4438.88
                             4448.66  4460.91  4466.24  4497.72  4505.06
                             4523.18

 Zero-point correction=                           0.161391 (Hartree/Particle)
 Thermal correction to Energy=                    0.168337
 Thermal correction to Enthalpy=                  0.169281
 Thermal correction to Gibbs Free Energy=         0.130491
 Sum of electronic and zero-point Energies=           -423.010692
 Sum of electronic and thermal Energies=              -423.003747
 Sum of electronic and thermal Enthalpies=            -423.002803
 Sum of electronic and thermal Free Energies=         -423.041592

                     E (Thermal)             CV                S
                      KCal/Mol        Cal/Mol-Kelvin    Cal/Mol-Kelvin
 Total                  105.633             28.796             81.640
 Electronic               0.000              0.000              0.000
 Translational            0.889              2.981             40.409
 Rotational               0.889              2.981             27.995
 Vibrational            103.855             22.834             13.237
 Vibration     1          0.628              1.871              2.360
 Vibration     2          0.651              1.799              1.897
 Vibration     3          0.667              1.749              1.674
 Vibration     4          0.681              1.708              1.525
 Vibration     5          0.773              1.450              0.930
 Vibration     6          0.799              1.384              0.829
 Vibration     7          0.850              1.262              0.671
 Vibration     8          0.935              1.079              0.489

 Normal termination of Gaussian 09 at Mon Jan 27 20:30:44 2020.
