 Gaussian 09, Revision D.01,
 Gaussian 09:  ES64L-G09RevD.01 24-Apr-2013

 -----------------------------
 # b3lyp 6-31G(2df,p) opt Freq
 -----------------------------

 -----
 titel
 -----
 Symbolic Z-matrix:
 Charge =  0 Multiplicity = 1

 SCF Done:  E(RB3LYP) =  -423.182181822     A.U. after   14 cycles
 Optimization completed.
    -- Stationary point found.
 Normal termination of Gaussian 09 at Mon Jan 27 18:45:43 2020.

 ----------------------------------------------------------------------
 #N Geom=AllCheck Guess=TCheck SCRF=Check GenChk RB3LYP/6-31G(2df,p) Fr
 eq
 ----------------------------------------------------------------------

 Structure from the checkpoint file:  "/scratch/puck/g09_37b72167-a700-4ed8-8b19-6423d9e4432d/Gau-70161.chk"
 -----
 titel
 -----
 Charge =  0 Multiplicity = 1

                         Standard orientation:
 ---------------------------------------------------------------------
 Center     Atomic      Atomic             Coordinates (Angstroms)
 Number     Number       Type             X           Y           Z
 ---------------------------------------------------------------------
      1          6           0        0.408262    1.990230   -0.301971
      2          6           0        0.796434    0.581115    0.035155
      3          6           0        1.956320    0.175856    0.958688
      4          6           0        2.258982   -1.050912    0.033812
      5          6           0        1.084234   -0.647387   -0.858394
      6          6           0       -0.158460   -0.580503   -0.027112
      7          8           0       -1.324556   -0.371917   -0.813185
      8          6           0       -2.473055   -0.196909   -0.136495
      9          8           0       -2.603363   -0.193557    1.055134
     10          1           0        0.008300    2.506639    0.579020
     11          1           0        1.272228    2.561292   -0.659179
     12          1           0       -0.357729    2.015418   -1.081433
     13          1           0        2.768151    0.907276    0.957516
     14          1           0        1.685760   -0.041666    1.997383
     15          1           0        3.224493   -0.960425   -0.467752
     16          1           0        2.196215   -2.043472    0.492247
     17          1           0        1.013794   -0.751393   -1.934941
     18          1           0       -0.337217   -1.230272    0.826052
     19          1           0       -3.286938   -0.068545   -0.866605
 ---------------------------------------------------------------------

 SCF Done:  E(RB3LYP) =  -423.182181822     A.U. after    1 cycles

 The electronic state is 1-A.
 Alpha  occ. eigenvalues --  -19.19400 -19.13455 -10.30947 -10.24363 -10.20262
 Alpha  occ. eigenvalues --  -10.19449 -10.19048 -10.18844 -10.18127  -1.10928
 Alpha  occ. eigenvalues --   -1.02560  -0.90177  -0.74436  -0.72784  -0.65273
 Alpha  occ. eigenvalues --   -0.64019  -0.56655  -0.53292  -0.51880  -0.48386
 Alpha  occ. eigenvalues --   -0.47578  -0.45704  -0.43736  -0.42985  -0.40745
 Alpha  occ. eigenvalues --   -0.40094  -0.37808  -0.36997  -0.34227  -0.33276
 Alpha  occ. eigenvalues --   -0.32323  -0.28268  -0.26813  -0.25400
 Alpha virt. eigenvalues --    0.00725   0.08954   0.09643   0.11185   0.12084
 Alpha virt. eigenvalues --    0.12850   0.14430   0.14770   0.15672   0.16852
 Alpha virt. eigenvalues --    0.17436   0.17616   0.20145   0.20581   0.22346

 Mulliken charges:
               1
     1  C   -0.503668
     2  C    0.320512
     3  C   -0.287093
     4  C   -0.234052
     5  C   -0.149438
     6  C    0.090970
     7  O   -0.222114
     8  C    0.172477
     9  O   -0.297053
    10  H    0.128383
    11  H    0.117960
    12  H    0.126204
    13  H    0.107544
    14  H    0.102871
    15  H    0.109335
    16  H    0.100417
    17  H    0.094525
    18  H    0.111864
    19  H    0.110357
 Sum of Mulliken charges =   0.00000

 Dipole moment (field-independent basis, Debye):
    X=              1.5040    Y=              0.2220    Z=             -1.3971  Tot=              2.0648
 Quadrupole moment (field-independent basis, Debye-Ang):
   XX=            -53.1237   YY=            -52.1056   ZZ=            -55.2932
   XY=             -0.1648   XZ=              5.0642   YZ=             -0.2900

  Exact polarizability:  90.768  -2.768  70.502   0.651   0.498  69.868
 Approx polarizability: 116.163  -1.965 100.431  -4.674   2.894 115.453

                      1                      2                      3
                      A                      A                      A
 Frequencies --     29.6162               134.0060               180.8495
 Red. masses --      6.0475                 4.0368                 1.9307
 Frc consts  --      0.0031                 0.0427                 0.0372
 IR Inten    --      1.2738                 2.7829                 1.4301

                      4                      5                      6
                      A                      A                      A
 Frequencies --    192.0219               212.3843               308.9175
 Red. masses --      1.3071                 1.9589                 2.6661
 Frc consts  --      0.0284                 0.0521                 0.1499
 IR Inten    --      0.4356                 3.3105                 4.1919

                      7                      8                      9
                      A                      A                      A
 Frequencies --    323.9391               341.8359               370.6841
 Red. masses --      3.3601                 2.2534                 3.3926
 Frc consts  --      0.2077                 0.1551                 0.2747
 IR Inten    --      8.3662                 0.5609                 4.4053

                     10                     11                     12
                      A                      A                      A
 Frequencies --    507.6570               652.7382               710.1400
 Red. masses --      4.3102                 3.8684                 3.2001
 Frc consts  --      0.6545                 0.9711                 0.9508
 IR Inten    --      4.1580                 0.3517                 4.9505

                     13                     14                     15
                      A                      A                      A
 Frequencies --    767.1012               799.3257               845.8072
 Red. masses --      1.9268                 1.9877                 3.2411
 Frc consts  --      0.6680                 0.7482                 1.3661
 IR Inten    --      2.0228                 4.2509                 7.2221

                     16                     17                     18
                      A                      A                      A
 Frequencies --    919.9979               933.4013               953.4228
 Red. masses --      1.7320                 1.8988                 2.6076
 Frc consts  --      0.8637                 0.9747                 1.3966
 IR Inten    --      8.1939                 2.7428                 2.8079

                     19                     20                     21
                      A                      A                      A
 Frequencies --    970.1571              1003.7490              1039.8536
 Red. masses --      1.8557                 1.5110                 1.6547
 Frc consts  --      1.0291                 0.8970                 1.0542
 IR Inten    --      1.7562                 5.2897                 0.4012

                     22                     23                     24
                      A                      A                      A
 Frequencies --   1043.3959              1064.9570              1109.7787
 Red. masses --      1.8446                 1.5834                 1.7333
 Frc consts  --      1.1832                 1.0580                 1.2578
 IR Inten    --      4.4940                 4.3779                 3.0208

                     25                     26                     27
                      A                      A                      A
 Frequencies --   1139.0384              1146.2801              1208.7085
 Red. masses --      1.5154                 2.1329                 5.5025
 Frc consts  --      1.1584                 1.6512                 4.7364
 IR Inten    --      0.6559                 1.4696               350.0185

                     28                     29                     30
                      A                      A                      A
 Frequencies --   1221.4609              1228.4952              1246.7216
 Red. masses --      1.4945                 1.7065                 1.5482
 Frc consts  --      1.3138                 1.5175                 1.4178
 IR Inten    --     59.2470                 7.4976                 0.6804

                     31                     32                     33
                      A                      A                      A
 Frequencies --   1260.5730              1289.6919              1353.3715
 Red. masses --      1.8706                 1.5511                 1.5925
 Frc consts  --      1.7513                 1.5201                 1.7185
 IR Inten    --      0.7365                 0.4861                 5.4910

                     34                     35                     36
                      A                      A                      A
 Frequencies --   1409.4261              1415.1331              1440.1823
 Red. masses --      1.1456                 1.3092                 3.1417
 Frc consts  --      1.3409                 1.5447                 3.8392
 IR Inten    --      0.7426                 3.4820                 7.8236

                     37                     38                     39
                      A                      A                      A
 Frequencies --   1481.2715              1492.2800              1495.0621
 Red. masses --      1.0829                 1.0476                 1.0746
 Frc consts  --      1.4000                 1.3745                 1.4152
 IR Inten    --      0.2749                 5.2950                 4.1619

                     40                     41                     42
                      A                      A                      A
 Frequencies --   1505.5839              1825.4910              3026.4149
 Red. masses --      1.1730                 9.5277                 1.0378
 Frc consts  --      1.5666                18.7066                 5.6003
 IR Inten    --      3.2288               278.8943                30.7640

                     43                     44                     45
                      A                      A                      A
 Frequencies --   3032.1953              3042.4841              3050.3091
 Red. masses --      1.0907                 1.0606                 1.0633
 Frc consts  --      5.9083                 5.7846                 5.8292
 IR Inten    --     67.3511                43.8898                53.0785

                     46                     47                     48
                      A                      A                      A
 Frequencies --   3083.5269              3095.4340              3114.6749
 Red. masses --      1.1003                 1.1043                 1.1025
 Frc consts  --      6.1637                 6.2341                 6.3016
 IR Inten    --     20.0175                 2.6954                28.9006

                     49                     50                     51
                      A                      A                      A
 Frequencies --   3115.6642              3136.5346              3182.4120
 Red. masses --      1.0990                 1.0892                 1.0923
 Frc consts  --      6.2859                 6.3135                 6.5176
 IR Inten    --     24.2235                11.3679                11.4921

 - Thermochemistry -
 -------------------
 Temperature   298.150 Kelvin.  Pressure   1.00000 Atm.
 Atom     1 has atomic number  6 and mass  12.00000

 Molecular mass:   126.06808 amu.
 Principal axes and moments of inertia in atomic units:
                           1         2         3
     Eigenvalues --   588.040641579.794191724.90093
           X            0.99980  -0.00811   0.01819
           Y            0.00888   0.99906  -0.04248
           Z           -0.01783   0.04263   0.99893
 This molecule is an asymmetric top.
 Rotational symmetry number  1.
 Warning -- assumption of classical behavior for rotation
           may cause significant error
 Rotational temperatures (Kelvin)      0.14729     0.05483     0.05021
 Rotational constants (GHZ):           3.06908     1.14239     1.04629
 Zero-point vibrational energy     415428.1 (Joules/Mol)
                                   99.28970 (Kcal/Mol)
 Warning -- explicit consideration of  10 degrees of freedom as
           vibrations may cause significant error
 Vibrational temperatures:     42.61   192.80   260.20   276.28   305.57
          (Kelvin)            444.46   466.08   491.82   533.33   730.40
                              939.14  1021.73  1103.69  1150.05  1216.93
                             1323.67  1342.95  1371.76  1395.84  1444.17
                             1496.12  1501.21  1532.23  1596.72  1638.82
                             1649.24  1739.06  1757.41  1767.53  1793.75
                             1813.68  1855.58  1947.20  2027.85  2036.06
                             2072.10  2131.22  2147.06  2151.06  2166.20
                             2626.47  4354.33  4362.65  4377.45  4388.71
                             4436.50  4453.63  4481.32  4482.74  4512.77
                             4578.78

 Zero-point correction=                           0.158228 (Hartree/Particle)
 Thermal correction to Energy=                    0.167033
 Thermal correction to Enthalpy=                  0.167977
 Thermal correction to Gibbs Free Energy=         0.123928
 Sum of electronic and zero-point Energies=           -423.023954
 Sum of electronic and thermal Energies=              -423.015149
 Sum of electronic and thermal Enthalpies=            -423.014205
 Sum of electronic and thermal Free Energies=         -423.058254

                     E (Thermal)             CV                S
                      KCal/Mol        Cal/Mol-Kelvin    Cal/Mol-Kelvin
 Total                  104.815             32.426             92.709
 Electronic               0.000              0.000              0.000
 Translational            0.889              2.981             40.409
 Rotational               0.889              2.981             28.862
 Vibrational            103.037             26.464             23.438
 Vibration     1          0.593              1.984              5.855
 Vibration     2          0.613              1.919              2.888
 Vibration     3          0.630              1.866              2.320
 Vibration     4          0.634              1.851              2.208
 Vibration     5          0.643              1.822              2.023
 Vibration     6          0.698              1.657              1.368
 Vibration     7          0.708              1.628              1.290
 Vibration     8          0.721              1.592              1.204
 Vibration     9          0.743              1.532              1.077
 Vibration    10          0.863              1.233              0.639

 Normal termination of Gaussian 09 at Mon Jan 27 19:28:34 2020.
