 Gaussian 09, Revision D.01,
 Gaussian 09:  ES64L-G09RevD.01 24-Apr-2013

 -----------------------------
 # b3lyp 6-31G(2df,p) opt Freq
 -----------------------------

 -----
 titel
 -----
 Symbolic Z-matrix:
 Charge =  0 Multiplicity = 1

 SCF Done:  E(RB3LYP) =  -423.165197852     A.U. after   14 cycles
 Optimization completed.
    -- Stationary point found.
 Normal termination of Gaussian 09 at Mon Jan 27 18:50:12 2020.

 ----------------------------------------------------------------------
 #N Geom=AllCheck Guess=TCheck SCRF=Check GenChk RB3LYP/6-31G(2df,p) Fr
 eq
 ----------------------------------------------------------------------

 Structure from the checkpoint file:  "/scratch/puck/g09_5fc8858c-e1a1-44a5-a403-d1f333f097c4/Gau-182991.chk"
 -----
 titel
 -----
 Charge =  0 Multiplicity = 1

                         Standard orientation:
 ---------------------------------------------------------------------
 Center     Atomic      Atomic             Coordinates (Angstroms)
 Number     Number       Type             X           Y           Z
 ---------------------------------------------------------------------
      1          6           0       -0.982410    1.836425   -0.673992
      2          6           0       -0.572458    0.559723    0.041193
      3          6           0       -1.653157   -0.214846    0.826961
      4          8           0       -1.352504   -1.438927    0.130154
      5          6           0       -0.424343   -0.774287   -0.761430
      6          6           0        1.000945   -1.327979   -0.610090
      7          6           0        1.647056   -0.423241    0.425732
      8          8           0        1.852406    0.911184   -0.067692
      9          6           0        0.738417    0.671687    0.798090
     10          1           0       -1.865775    1.673529   -1.299416
     11          1           0       -1.223351    2.629063    0.043920
     12          1           0       -0.167338    2.194846   -1.309029
     13          1           0       -1.506908   -0.308644    1.910958
     14          1           0       -2.679624    0.125314    0.635018
     15          1           0       -0.796110   -0.776348   -1.792290
     16          1           0        0.950200   -2.367558   -0.272342
     17          1           0        1.564617   -1.297249   -1.548147
     18          1           0        2.425049   -0.791451    1.089853
     19          1           0        0.775717    1.175550    1.762998
 ---------------------------------------------------------------------

 SCF Done:  E(RB3LYP) =  -423.165197852     A.U. after    1 cycles

 The electronic state is 1-A.
 Alpha  occ. eigenvalues --  -19.15131 -19.13307 -10.23793 -10.23640 -10.23428
 Alpha  occ. eigenvalues --  -10.23047 -10.20173 -10.18618 -10.18079  -1.07442
 Alpha  occ. eigenvalues --   -1.03776  -0.80035  -0.76674  -0.68912  -0.66154
 Alpha  occ. eigenvalues --   -0.64393  -0.58530  -0.54515  -0.51595  -0.47918
 Alpha  occ. eigenvalues --   -0.46460  -0.45285  -0.43476  -0.41984  -0.40318
 Alpha  occ. eigenvalues --   -0.39501  -0.38288  -0.36410  -0.35716  -0.31608
 Alpha  occ. eigenvalues --   -0.30544  -0.28752  -0.26897  -0.24738
 Alpha virt. eigenvalues --    0.07302   0.09369   0.10072   0.11544   0.11822
 Alpha virt. eigenvalues --    0.13046   0.13877   0.14797   0.15274   0.16237
 Alpha virt. eigenvalues --    0.16949   0.18242   0.19147   0.19347   0.21395

 Mulliken charges:
               1
     1  C   -0.484257
     2  C    0.245803
     3  C   -0.121619
     4  O   -0.295581
     5  C    0.097633
     6  C   -0.267256
     7  C    0.047754
     8  O   -0.265133
     9  C   -0.020259
    10  H    0.118128
    11  H    0.117004
    12  H    0.139392
    13  H    0.097928
    14  H    0.096452
    15  H    0.072628
    16  H    0.118076
    17  H    0.112185
    18  H    0.096847
    19  H    0.094278
 Sum of Mulliken charges =   0.00000

 Dipole moment (field-independent basis, Debye):
    X=             -0.3378    Y=              0.4083    Z=              0.5909  Tot=              0.7937
 Quadrupole moment (field-independent basis, Debye-Ang):
   XX=            -55.4780   YY=            -55.9560   ZZ=            -50.1604
   XY=             -6.5242   XZ=              1.0494   YZ=              1.6147

  Exact polarizability:  77.956  -6.333  73.667  -1.334   2.468  69.173
 Approx polarizability: 109.159  -4.091 108.961  -5.544   2.564 104.367

                      1                      2                      3
                      A                      A                      A
 Frequencies --     98.6789               192.7640               224.2893
 Red. masses --      3.4285                 2.9035                 1.4045
 Frc consts  --      0.0197                 0.0636                 0.0416
 IR Inten    --      4.9656                 2.1577                 1.0278

                      4                      5                      6
                      A                      A                      A
 Frequencies --    250.3829               323.9346               368.1973
 Red. masses --      1.7335                 2.3366                 3.7011
 Frc consts  --      0.0640                 0.1445                 0.2956
 IR Inten    --      1.8072                 0.2146                 3.3400

                      7                      8                      9
                      A                      A                      A
 Frequencies --    406.8831               460.2003               592.3788
 Red. masses --      2.2748                 3.8037                 3.8904
 Frc consts  --      0.2219                 0.4746                 0.8044
 IR Inten    --      1.4903                 8.4937                 0.5239

                     10                     11                     12
                      A                      A                      A
 Frequencies --    680.0193               731.4700               826.1386
 Red. masses --      4.0861                 4.7862                 4.3457
 Frc consts  --      1.1133                 1.5088                 1.7475
 IR Inten    --      3.4939                 4.2625                 4.7374

                     13                     14                     15
                      A                      A                      A
 Frequencies --    858.0714               858.9765               873.5331
 Red. masses --      2.0773                 2.6804                 3.1880
 Frc consts  --      0.9011                 1.1652                 1.4333
 IR Inten    --     14.4646                25.0537                10.0559

                     16                     17                     18
                      A                      A                      A
 Frequencies --    913.3439               935.1907               949.7481
 Red. masses --      2.0629                 2.0122                 2.6960
 Frc consts  --      1.0139                 1.0369                 1.4328
 IR Inten    --      1.2467                 6.2467                 5.1708

                     19                     20                     21
                      A                      A                      A
 Frequencies --    988.9437              1020.8002              1028.7187
 Red. masses --      1.5062                 2.3897                 2.5429
 Frc consts  --      0.8679                 1.4671                 1.5855
 IR Inten    --      2.1916                26.0154                34.6562

                     22                     23                     24
                      A                      A                      A
 Frequencies --   1037.1475              1072.1739              1115.6769
 Red. masses --      2.1513                 2.2971                 1.3485
 Frc consts  --      1.3634                 1.5558                 0.9890
 IR Inten    --     25.1775                22.1034                 4.9253

                     25                     26                     27
                      A                      A                      A
 Frequencies --   1154.5960              1174.8505              1185.4733
 Red. masses --      1.3281                 1.6708                 1.9894
 Frc consts  --      1.0432                 1.3587                 1.6472
 IR Inten    --      0.5742                 4.1914                 0.8844

                     28                     29                     30
                      A                      A                      A
 Frequencies --   1223.1716              1248.5880              1256.5434
 Red. masses --      1.6669                 2.4591                 1.3626
 Frc consts  --      1.4694                 2.2587                 1.2676
 IR Inten    --      1.3556                 3.9564                 4.1981

                     31                     32                     33
                      A                      A                      A
 Frequencies --   1279.0830              1305.5755              1329.3704
 Red. masses --      1.5992                 1.3961                 1.6658
 Frc consts  --      1.5415                 1.4021                 1.7345
 IR Inten    --      1.3445                 8.9274                 3.7363

                     34                     35                     36
                      A                      A                      A
 Frequencies --   1362.9594              1378.1146              1407.9779
 Red. masses --      1.4467                 1.7801                 1.3162
 Frc consts  --      1.5834                 1.9918                 1.5374
 IR Inten    --      5.8921                 3.1610                 6.2115

                     37                     38                     39
                      A                      A                      A
 Frequencies --   1432.5518              1461.9551              1494.6572
 Red. masses --      2.9034                 1.1049                 1.0538
 Frc consts  --      3.5106                 1.3913                 1.3870
 IR Inten    --     11.2480                 4.5144                 4.9061

                     40                     41                     42
                      A                      A                      A
 Frequencies --   1499.6360              1523.6166              3000.5591
 Red. masses --      1.0548                 1.1009                 1.0549
 Frc consts  --      1.3976                 1.5057                 5.5960
 IR Inten    --      5.0753                 1.4553                74.3588

                     43                     44                     45
                      A                      A                      A
 Frequencies --   3030.5527              3038.4556              3043.7607
 Red. masses --      1.0389                 1.0799                 1.1093
 Frc consts  --      5.6217                 5.8742                 6.0553
 IR Inten    --     19.9360                28.2795                52.0052

                     46                     47                     48
                      A                      A                      A
 Frequencies --   3054.9214              3094.8524              3100.6600
 Red. masses --      1.0654                 1.0997                 1.1039
 Frc consts  --      5.8584                 6.2059                 6.2531
 IR Inten    --     36.1348                21.7151                11.4871

                     49                     50                     51
                      A                      A                      A
 Frequencies --   3116.7472              3121.3158              3148.2728
 Red. masses --      1.1011                 1.0885                 1.0934
 Frc consts  --      6.3020                 6.2485                 6.3849
 IR Inten    --     13.7854                23.9083                34.3213

 - Thermochemistry -
 -------------------
 Temperature   298.150 Kelvin.  Pressure   1.00000 Atm.
 Atom     1 has atomic number  6 and mass  12.00000

 Molecular mass:   126.06808 amu.
 Principal axes and moments of inertia in atomic units:
                           1         2         3
     Eigenvalues --   723.41102 948.775791294.86975
           X            0.98363  -0.18012   0.00508
           Y            0.18014   0.98364  -0.00261
           Z           -0.00452   0.00348   0.99998
 This molecule is an asymmetric top.
 Rotational symmetry number  1.
 Warning -- assumption of classical behavior for rotation
           may cause significant error
 Rotational temperatures (Kelvin)      0.11973     0.09129     0.06689
 Rotational constants (GHZ):           2.49477     1.90218     1.39376
 Zero-point vibrational energy     420346.7 (Joules/Mol)
                                  100.46527 (Kcal/Mol)
 Warning -- explicit consideration of   9 degrees of freedom as
           vibrations may cause significant error
 Vibrational temperatures:    141.98   277.34   322.70   360.24   466.07
          (Kelvin)            529.75   585.41   662.12   852.30   978.39
                             1052.42  1188.63  1234.57  1235.87  1256.82
                             1314.10  1345.53  1366.47  1422.87  1468.70
                             1480.09  1492.22  1542.62  1605.21  1661.20
                             1690.35  1705.63  1759.87  1796.44  1807.88
                             1840.31  1878.43  1912.67  1960.99  1982.80
                             2025.76  2061.12  2103.42  2150.48  2157.64
                             2192.14  4317.13  4360.28  4371.65  4379.29
                             4395.35  4452.80  4461.15  4484.30  4490.87
                             4529.66

 Zero-point correction=                           0.160102 (Hartree/Particle)
 Thermal correction to Energy=                    0.167701
 Thermal correction to Enthalpy=                  0.168645
 Thermal correction to Gibbs Free Energy=         0.128199
 Sum of electronic and zero-point Energies=           -423.005096
 Sum of electronic and thermal Energies=              -422.997497
 Sum of electronic and thermal Enthalpies=            -422.996553
 Sum of electronic and thermal Free Energies=         -423.036999

                     E (Thermal)             CV                S
                      KCal/Mol        Cal/Mol-Kelvin    Cal/Mol-Kelvin
 Total                  105.234             29.995             85.126
 Electronic               0.000              0.000              0.000
 Translational            0.889              2.981             40.409
 Rotational               0.889              2.981             28.276
 Vibrational            103.456             24.034             16.441
 Vibration     1          0.604              1.950              3.480
 Vibration     2          0.635              1.850              2.201
 Vibration     3          0.649              1.804              1.924
 Vibration     4          0.663              1.762              1.728
 Vibration     5          0.708              1.628              1.290
 Vibration     6          0.741              1.538              1.087
 Vibration     7          0.772              1.455              0.938
 Vibration     8          0.818              1.338              0.766
 Vibration     9          0.950              1.048              0.463

 Optimization completed.
    -- Stationary point found.
 Normal termination of Gaussian 09 at Mon Jan 27 19:33:34 2020.
