 Gaussian 09, Revision D.01,
 Gaussian 09:  ES64L-G09RevD.01 24-Apr-2013

 -----------------------------
 # b3lyp 6-31G(2df,p) opt Freq
 -----------------------------

 -----
 titel
 -----
 Symbolic Z-matrix:
 Charge =  0 Multiplicity = 1

 SCF Done:  E(RB3LYP) =  -423.204829797     A.U. after   13 cycles
 Optimization completed.
    -- Stationary point found.
 Normal termination of Gaussian 09 at Mon Jan 27 12:20:36 2020.

 ----------------------------------------------------------------------
 #N Geom=AllCheck Guess=TCheck SCRF=Check GenChk RB3LYP/6-31G(2df,p) Fr
 eq
 ----------------------------------------------------------------------

 Structure from the checkpoint file:  "/scratch/puck/g09_b59019b4-a5ed-41a3-b1f9-54d6bd684bc0/Gau-152679.chk"
 -----
 titel
 -----
 Charge =  0 Multiplicity = 1

                         Standard orientation:
 ---------------------------------------------------------------------
 Center     Atomic      Atomic             Coordinates (Angstroms)
 Number     Number       Type             X           Y           Z
 ---------------------------------------------------------------------
      1          6           0        1.476739    0.094934   -0.956668
      2          6           0        1.021333    1.391478   -0.275289
      3          6           0       -0.250525    1.169435    0.566042
      4          6           0       -1.555029    0.965938   -0.229939
      5          6           0       -1.719708   -0.457623   -0.692752
      6          6           0       -0.899966   -1.421117   -0.282301
      7          6           0        0.242776   -1.111387    0.658336
      8          8           0        1.475049   -0.994977   -0.037740
      9          8           0       -0.025177    0.042731    1.422932
     10          1           0        0.840012   -0.133064   -1.822650
     11          1           0        2.507221    0.181980   -1.311457
     12          1           0        1.809088    1.725803    0.408013
     13          1           0        0.867318    2.179993   -1.020329
     14          1           0       -0.377012    2.021289    1.240092
     15          1           0       -2.414222    1.241296    0.397450
     16          1           0       -1.581446    1.651348   -1.086680
     17          1           0       -2.548631   -0.675769   -1.361837
     18          1           0       -0.994165   -2.445960   -0.626854
     19          1           0        0.399138   -1.918901    1.378150
 ---------------------------------------------------------------------

 SCF Done:  E(RB3LYP) =  -423.204829797     A.U. after    1 cycles

 The electronic state is 1-A.
 Alpha  occ. eigenvalues --  -19.13683 -19.13626 -10.27210 -10.23546 -10.22477
 Alpha  occ. eigenvalues --  -10.19119 -10.19092 -10.18281 -10.17955  -1.06585
 Alpha  occ. eigenvalues --   -0.99695  -0.80647  -0.79131  -0.71303  -0.67133
 Alpha  occ. eigenvalues --   -0.63356  -0.59067  -0.52538  -0.49821  -0.47968
 Alpha  occ. eigenvalues --   -0.47225  -0.45428  -0.44133  -0.42956  -0.41114
 Alpha  occ. eigenvalues --   -0.39637  -0.37976  -0.35593  -0.35058  -0.31747
 Alpha  occ. eigenvalues --   -0.30945  -0.26637  -0.25405  -0.24484
 Alpha virt. eigenvalues --    0.01127   0.08015   0.11439   0.11835   0.13326
 Alpha virt. eigenvalues --    0.13890   0.15189   0.15529   0.16710   0.17111
 Alpha virt. eigenvalues --    0.18213   0.19315   0.19681   0.21822   0.23095

 Mulliken charges:
               1
     1  C   -0.081520
     2  C   -0.219101
     3  C    0.079283
     4  C   -0.268101
     5  C   -0.067067
     6  C   -0.078640
     7  C    0.148034
     8  O   -0.258621
     9  O   -0.258613
    10  H    0.097230
    11  H    0.108884
    12  H    0.112212
    13  H    0.094214
    14  H    0.082498
    15  H    0.118012
    16  H    0.107984
    17  H    0.094141
    18  H    0.096614
    19  H    0.092559
 Sum of Mulliken charges =   0.00000

 Dipole moment (field-independent basis, Debye):
    X=             -1.1426    Y=              1.1963    Z=             -1.5198  Tot=              2.2464
 Quadrupole moment (field-independent basis, Debye-Ang):
   XX=            -53.1745   YY=            -49.9423   ZZ=            -54.7251
   XY=              1.6139   XZ=              0.1397   YZ=             -0.6415

  Exact polarizability:  77.903  -2.998  80.478   2.979  -1.558  64.336
 Approx polarizability: 111.998 -13.056 120.373   6.854  -6.827 100.514

                      1                      2                      3
                      A                      A                      A
 Frequencies --    147.5464               242.0151               315.2386
 Red. masses --      2.4401                 2.8999                 2.9852
 Frc consts  --      0.0313                 0.1001                 0.1748
 IR Inten    --      0.4061                 0.3321                 3.9252

                      4                      5                      6
                      A                      A                      A
 Frequencies --    352.3200               421.0560               472.1820
 Red. masses --      1.8933                 4.0242                 4.1843
 Frc consts  --      0.1385                 0.4203                 0.5497
 IR Inten    --      0.2348                 2.3238                 9.1378

                      7                      8                      9
                      A                      A                      A
 Frequencies --    503.6533               513.2985               657.8013
 Red. masses --      3.1003                 4.8077                 2.2306
 Frc consts  --      0.4634                 0.7463                 0.5687
 IR Inten    --      7.4222                 3.6821                 4.5178

                     10                     11                     12
                      A                      A                      A
 Frequencies --    672.9544               740.8288               788.2459
 Red. masses --      2.6572                 2.5235                 2.9483
 Frc consts  --      0.7090                 0.8160                 1.0793
 IR Inten    --      4.8153                 6.0355                 1.6313

                     13                     14                     15
                      A                      A                      A
 Frequencies --    842.2873               859.7317               893.5620
 Red. masses --      3.6791                 3.1350                 2.2158
 Frc consts  --      1.5379                 1.3653                 1.0424
 IR Inten    --     10.5556                 5.4877                10.8895

                     16                     17                     18
                      A                      A                      A
 Frequencies --    927.8188               951.3422               970.9392
 Red. masses --      2.6986                 2.0282                 2.7295
 Frc consts  --      1.3687                 1.0815                 1.5161
 IR Inten    --     24.8729                11.8392                59.6852

                     19                     20                     21
                      A                      A                      A
 Frequencies --    998.4579              1005.8254              1016.3946
 Red. masses --      1.3095                 2.2173                 3.5736
 Frc consts  --      0.7691                 1.3216                 2.1751
 IR Inten    --     10.9291                 1.3801                74.2867

                     22                     23                     24
                      A                      A                      A
 Frequencies --   1070.5902              1097.3028              1110.0802
 Red. masses --      2.1201                 3.0242                 1.9800
 Frc consts  --      1.4317                 2.1455                 1.4375
 IR Inten    --      1.9204                 9.0214                26.2938

                     25                     26                     27
                      A                      A                      A
 Frequencies --   1129.9327              1200.7701              1217.8752
 Red. masses --      2.8069                 1.3271                 1.1561
 Frc consts  --      2.1115                 1.1274                 1.0103
 IR Inten    --     82.8513                26.2526                12.3271

                     28                     29                     30
                      A                      A                      A
 Frequencies --   1248.8649              1278.4490              1329.8700
 Red. masses --      1.2177                 1.3296                 1.6037
 Frc consts  --      1.1190                 1.2804                 1.6711
 IR Inten    --      6.3015                17.8869                 3.2645

                     31                     32                     33
                      A                      A                      A
 Frequencies --   1347.1899              1359.5215              1370.8115
 Red. masses --      1.3074                 1.2007                 1.3849
 Frc consts  --      1.3980                 1.3076                 1.5333
 IR Inten    --     11.6522                 2.5741                 2.5730

                     34                     35                     36
                      A                      A                      A
 Frequencies --   1382.7995              1406.4155              1410.7845
 Red. masses --      1.3679                 1.4444                 1.4341
 Frc consts  --      1.5410                 1.6834                 1.6817
 IR Inten    --      8.6119                12.1851                 6.0020

                     37                     38                     39
                      A                      A                      A
 Frequencies --   1420.7551              1462.4422              1473.1508
 Red. masses --      1.3911                 1.0981                 1.0923
 Frc consts  --      1.6544                 1.3837                 1.3966
 IR Inten    --      7.8790                 2.8789                 5.7000

                     40                     41                     42
                      A                      A                      A
 Frequencies --   1503.8109              1722.2142              3010.7668
 Red. masses --      1.0866                 6.5889                 1.0675
 Frc consts  --      1.4478                11.5144                 5.7012
 IR Inten    --      3.6516                 5.5902                33.9995

                     43                     44                     45
                      A                      A                      A
 Frequencies --   3011.3369              3037.1231              3046.1228
 Red. masses --      1.0647                 1.0651                 1.0921
 Frc consts  --      5.6884                 5.7884                 5.9706
 IR Inten    --     26.4789                 6.2102                24.0885

                     46                     47                     48
                      A                      A                      A
 Frequencies --   3065.7045              3082.3223              3084.2371
 Red. masses --      1.0859                 1.0937                 1.0921
 Frc consts  --      6.0132                 6.1221                 6.1210
 IR Inten    --     52.3367                50.6857                 8.8057

                     49                     50                     51
                      A                      A                      A
 Frequencies --   3093.4552              3151.5065              3185.5567
 Red. masses --      1.1018                 1.0859                 1.0968
 Frc consts  --      6.2119                 6.3546                 6.5577
 IR Inten    --     41.0184                13.2987                18.9437

 - Thermochemistry -
 -------------------
 Temperature   298.150 Kelvin.  Pressure   1.00000 Atm.
 Atom     1 has atomic number  6 and mass  12.00000

 Molecular mass:   126.06808 amu.
 Principal axes and moments of inertia in atomic units:
                           1         2         3
     Eigenvalues --   744.79855 894.876051111.48812
           X            0.99849   0.05492  -0.00010
           Y           -0.05492   0.99844  -0.01005
           Z           -0.00046   0.01004   0.99995
 This molecule is an asymmetric top.
 Rotational symmetry number  1.
 Warning -- assumption of classical behavior for rotation
           may cause significant error
 Rotational temperatures (Kelvin)      0.11629     0.09679     0.07793
 Rotational constants (GHZ):           2.42313     2.01675     1.62372
 Zero-point vibrational energy     428294.6 (Joules/Mol)
                                  102.36486 (Kcal/Mol)
 Warning -- explicit consideration of   8 degrees of freedom as
           vibrations may cause significant error
 Vibrational temperatures:    212.29   348.21   453.56   506.91   605.80
          (Kelvin)            679.36   724.64   738.52   946.43   968.23
                             1065.89  1134.11  1211.86  1236.96  1285.63
                             1334.92  1368.77  1396.96  1436.56  1447.16
                             1462.36  1540.34  1578.77  1597.16  1625.72
                             1727.64  1752.25  1796.84  1839.40  1913.38
                             1938.30  1956.05  1972.29  1989.54  2023.52
                             2029.80  2044.15  2104.13  2119.53  2163.65
                             2477.88  4331.82  4332.64  4369.74  4382.69
                             4410.86  4434.77  4437.52  4450.79  4534.31
                             4583.30

 Zero-point correction=                           0.163129 (Hartree/Particle)
 Thermal correction to Energy=                    0.169940
 Thermal correction to Enthalpy=                  0.170884
 Thermal correction to Gibbs Free Energy=         0.132279
 Sum of electronic and zero-point Energies=           -423.041701
 Sum of electronic and thermal Energies=              -423.034890
 Sum of electronic and thermal Enthalpies=            -423.033946
 Sum of electronic and thermal Free Energies=         -423.072551

                     E (Thermal)             CV                S
                      KCal/Mol        Cal/Mol-Kelvin    Cal/Mol-Kelvin
 Total                  106.639             28.379             81.252
 Electronic               0.000              0.000              0.000
 Translational            0.889              2.981             40.409
 Rotational               0.889              2.981             28.096
 Vibrational            104.861             22.418             12.748
 Vibration     1          0.617              1.905              2.704
 Vibration     2          0.658              1.776              1.788
 Vibration     3          0.703              1.645              1.335
 Vibration     4          0.729              1.571              1.156
 Vibration     5          0.784              1.424              0.888
 Vibration     6          0.829              1.312              0.731
 Vibration     7          0.859              1.242              0.649
 Vibration     8          0.868              1.221              0.626

 Optimization completed.
    -- Stationary point found.
 Normal termination of Gaussian 09 at Mon Jan 27 13:11:52 2020.
