 Gaussian 09, Revision D.01,
 Gaussian 09:  ES64L-G09RevD.01 24-Apr-2013

 -----------------------------
 # b3lyp 6-31G(2df,p) opt Freq
 -----------------------------

 -----
 titel
 -----
 Symbolic Z-matrix:
 Charge =  0 Multiplicity = 1

 SCF Done:  E(RB3LYP) =  -423.207980338     A.U. after   14 cycles
 Optimization completed.
    -- Stationary point found.
 Normal termination of Gaussian 09 at Mon Jan 27 13:57:50 2020.

 ----------------------------------------------------------------------
 #N Geom=AllCheck Guess=TCheck SCRF=Check GenChk RB3LYP/6-31G(2df,p) Fr
 eq
 ----------------------------------------------------------------------

 Structure from the checkpoint file:  "/scratch/puck/g09_beea130e-45e5-4828-9efa-5633e297c397/Gau-3541.chk"
 -----
 titel
 -----
 Charge =  0 Multiplicity = 1

                         Standard orientation:
 ---------------------------------------------------------------------
 Center     Atomic      Atomic             Coordinates (Angstroms)
 Number     Number       Type             X           Y           Z
 ---------------------------------------------------------------------
      1          8           0       -2.733275   -0.800827   -0.371527
      2          6           0       -2.461871    0.171607    0.279153
      3          8           0       -1.276804    0.792267    0.329276
      4          6           0       -0.221058    0.241093   -0.496118
      5          6           0        0.944650    1.265128   -0.580935
      6          6           0        2.061811    0.407746    0.047797
      7          6           0        1.338620   -0.217376    1.275680
      8          6           0        0.508102   -0.935044    0.170922
      9          6           0        1.829272   -0.962650   -0.654459
     10          1           0       -3.165897    0.705952    0.936919
     11          1           0       -0.656935   -0.029322   -1.458640
     12          1           0        1.164374    1.561138   -1.610250
     13          1           0        0.715103    2.164201   -0.003670
     14          1           0        3.050972    0.858503    0.126117
     15          1           0        1.974288   -0.912595    1.827877
     16          1           0        0.812797    0.448408    1.964592
     17          1           0       -0.083824   -1.828793    0.359268
     18          1           0        2.512606   -1.741520   -0.309581
     19          1           0        1.759992   -0.980511   -1.746865
 ---------------------------------------------------------------------

 SCF Done:  E(RB3LYP) =  -423.207980338     A.U. after    1 cycles

 The electronic state is 1-A.
 Alpha  occ. eigenvalues --  -19.18566 -19.13072 -10.30564 -10.24245 -10.19648
 Alpha  occ. eigenvalues --  -10.19468 -10.18890 -10.18684 -10.18542  -1.10175
 Alpha  occ. eigenvalues --   -1.01859  -0.89410  -0.74305  -0.70050  -0.66538
 Alpha  occ. eigenvalues --   -0.62392  -0.55545  -0.53893  -0.52775  -0.50342
 Alpha  occ. eigenvalues --   -0.47991  -0.46523  -0.43504  -0.42443  -0.38484
 Alpha  occ. eigenvalues --   -0.37559  -0.36514  -0.35721  -0.33602  -0.31945
 Alpha  occ. eigenvalues --   -0.31368  -0.31191  -0.29283  -0.27593
 Alpha virt. eigenvalues --    0.01099   0.09019   0.10803   0.12355   0.12679
 Alpha virt. eigenvalues --    0.13669   0.14475   0.15393   0.16016   0.16511
 Alpha virt. eigenvalues --    0.17521   0.18637   0.19703   0.20540   0.21866

 Mulliken charges:
               1
     1  O   -0.307825
     2  C    0.173293
     3  O   -0.224936
     4  C    0.157056
     5  C   -0.253870
     6  C   -0.014757
     7  C   -0.225008
     8  C   -0.042397
     9  C   -0.229206
    10  H    0.107154
    11  H    0.103760
    12  H    0.102438
    13  H    0.113404
    14  H    0.063538
    15  H    0.099252
    16  H    0.100509
    17  H    0.081834
    18  H    0.103048
    19  H    0.092712
 Sum of Mulliken charges =   0.00000

 Dipole moment (field-independent basis, Debye):
    X=              1.8005    Y=              1.0221    Z=              0.4744  Tot=              2.1241
 Quadrupole moment (field-independent basis, Debye-Ang):
   XX=            -55.5604   YY=            -54.1857   ZZ=            -52.0536
   XY=             -4.5715   XZ=             -2.9225   YZ=             -1.2658

  Exact polarizability:  87.638   0.077  70.578  -2.244   2.153  68.494
 Approx polarizability: 114.233   4.825 110.713  -0.742   8.160 105.173

                      1                      2                      3
                      A                      A                      A
 Frequencies --     48.3809               132.6499               190.6065
 Red. masses --      6.4174                 3.6648                 3.6160
 Frc consts  --      0.0089                 0.0380                 0.0774
 IR Inten    --      1.6592                 1.4550                 4.2348

                      4                      5                      6
                      A                      A                      A
 Frequencies --    280.2808               372.2943               415.9532
 Red. masses --      3.3779                 3.1866                 1.9886
 Frc consts  --      0.1563                 0.2602                 0.2027
 IR Inten    --     10.8767                 7.4338                 0.7161

                      7                      8                      9
                      A                      A                      A
 Frequencies --    462.2517               525.0852               666.7256
 Red. masses --      2.6835                 2.2323                 3.3840
 Frc consts  --      0.3378                 0.3626                 0.8863
 IR Inten    --      1.6497                 2.5233                 0.7703

                     10                     11                     12
                      A                      A                      A
 Frequencies --    781.3561               824.7833               834.3781
 Red. masses --      4.9277                 3.1888                 2.5966
 Frc consts  --      1.7725                 1.2781                 1.0651
 IR Inten    --      1.7832                 3.3391                 1.5196

                     13                     14                     15
                      A                      A                      A
 Frequencies --    848.5573               860.8972               875.9957
 Red. masses --      2.4952                 2.3872                 2.4093
 Frc consts  --      1.0586                 1.0424                 1.0893
 IR Inten    --      5.7071                 3.5291                 9.2929

                     16                     17                     18
                      A                      A                      A
 Frequencies --    943.0896               961.6098               969.3837
 Red. masses --      1.9991                 1.4361                 1.7944
 Frc consts  --      1.0476                 0.7824                 0.9935
 IR Inten    --      0.9594                 1.0653                 2.9406

                     19                     20                     21
                      A                      A                      A
 Frequencies --    986.7885              1035.5292              1039.3740
 Red. masses --      2.0024                 1.6747                 3.5547
 Frc consts  --      1.1488                 1.0581                 2.2626
 IR Inten    --     19.5152                 6.7677                 0.2136

                     22                     23                     24
                      A                      A                      A
 Frequencies --   1046.3441              1082.5392              1094.6642
 Red. masses --      1.6900                 1.1033                 1.4394
 Frc consts  --      1.0901                 0.7618                 1.0163
 IR Inten    --      0.4749                 1.4346                 2.0459

                     25                     26                     27
                      A                      A                      A
 Frequencies --   1108.5952              1126.1699              1187.2650
 Red. masses --      1.2868                 1.7463                 1.3053
 Frc consts  --      0.9318                 1.3049                 1.0841
 IR Inten    --      5.5686                 6.9748                 0.8251

                     28                     29                     30
                      A                      A                      A
 Frequencies --   1207.8619              1230.5147              1242.4471
 Red. masses --      6.6665                 1.4666                 1.8789
 Frc consts  --      5.7304                 1.3084                 1.7089
 IR Inten    --    397.2602                 4.4855                11.5162

                     31                     32                     33
                      A                      A                      A
 Frequencies --   1245.9044              1273.9236              1292.0084
 Red. masses --      1.5571                 1.6059                 1.5042
 Frc consts  --      1.4241                 1.5355                 1.4794
 IR Inten    --     11.4446                 1.8440                 0.9980

                     34                     35                     36
                      A                      A                      A
 Frequencies --   1318.4354              1339.7606              1391.9562
 Red. masses --      1.5855                 1.5593                 1.2897
 Frc consts  --      1.6238                 1.6490                 1.4723
 IR Inten    --      4.4008                 0.6516                16.3473

                     37                     38                     39
                      A                      A                      A
 Frequencies --   1410.6589              1488.4072              1490.2539
 Red. masses --      1.1440                 1.0932                 1.0946
 Frc consts  --      1.3412                 1.4270                 1.4322
 IR Inten    --      1.4402                 1.8581                 2.0611

                     40                     41                     42
                      A                      A                      A
 Frequencies --   1524.1532              1816.7352              3021.2468
 Red. masses --      1.1218                 9.5231                 1.0899
 Frc consts  --      1.5354                18.5188                 5.8617
 IR Inten    --      1.8092               269.8073                73.8385

                     43                     44                     45
                      A                      A                      A
 Frequencies --   3049.8188              3061.6236              3065.2110
 Red. masses --      1.0595                 1.0594                 1.0573
 Frc consts  --      5.8065                 5.8508                 5.8531
 IR Inten    --     44.9028                34.2659                16.3707

                     46                     47                     48
                      A                      A                      A
 Frequencies --   3102.2124              3113.1527              3115.8613
 Red. masses --      1.0916                 1.1015                 1.0964
 Frc consts  --      6.1893                 6.2900                 6.2718
 IR Inten    --      4.1066                10.9041                43.6434

                     49                     50                     51
                      A                      A                      A
 Frequencies --   3118.7262              3126.1286              3138.7959
 Red. masses --      1.0997                 1.1075                 1.0910
 Frc consts  --      6.3022                 6.3770                 6.3332
 IR Inten    --     42.9611                37.9715                20.6292

 - Thermochemistry -
 -------------------
 Temperature   298.150 Kelvin.  Pressure   1.00000 Atm.
 Atom     1 has atomic number  8 and mass  15.99491

 Molecular mass:   126.06808 amu.
 Principal axes and moments of inertia in atomic units:
                           1         2         3
     Eigenvalues --   480.939781549.486661651.15509
           X            0.99991  -0.01213  -0.00623
           Y            0.01194   0.99946  -0.03050
           Z            0.00660   0.03042   0.99952
 This molecule is an asymmetric top.
 Rotational symmetry number  1.
 Warning -- assumption of classical behavior for rotation
           may cause significant error
 Rotational temperatures (Kelvin)      0.18009     0.05590     0.05246
 Rotational constants (GHZ):           3.75253     1.16473     1.09302
 Zero-point vibrational energy     424000.5 (Joules/Mol)
                                  101.33855 (Kcal/Mol)
 Warning -- explicit consideration of   8 degrees of freedom as
           vibrations may cause significant error
 Vibrational temperatures:     69.61   190.85   274.24   403.26   535.65
          (Kelvin)            598.46   665.08   755.48   959.27  1124.20
                             1186.68  1200.48  1220.88  1238.64  1260.36
                             1356.89  1383.54  1394.73  1419.77  1489.89
                             1495.43  1505.45  1557.53  1574.98  1595.02
                             1620.31  1708.21  1737.84  1770.43  1787.60
                             1792.58  1832.89  1858.91  1896.93  1927.61
                             2002.71  2029.62  2141.48  2144.14  2192.91
                             2613.87  4346.89  4388.00  4404.99  4410.15
                             4463.39  4479.13  4483.02  4487.15  4497.80
                             4516.02

 Zero-point correction=                           0.161493 (Hartree/Particle)
 Thermal correction to Energy=                    0.169002
 Thermal correction to Enthalpy=                  0.169947
 Thermal correction to Gibbs Free Energy=         0.128800
 Sum of electronic and zero-point Energies=           -423.046487
 Sum of electronic and thermal Energies=              -423.038978
 Sum of electronic and thermal Enthalpies=            -423.038034
 Sum of electronic and thermal Free Energies=         -423.079181

                     E (Thermal)             CV                S
                      KCal/Mol        Cal/Mol-Kelvin    Cal/Mol-Kelvin
 Total                  106.051             29.144             86.601
 Electronic               0.000              0.000              0.000
 Translational            0.889              2.981             40.409
 Rotational               0.889              2.981             28.600
 Vibrational            104.273             23.183             17.592
 Vibration     1          0.595              1.978              4.883
 Vibration     2          0.613              1.921              2.907
 Vibration     3          0.634              1.853              2.222
 Vibration     4          0.680              1.710              1.532
 Vibration     5          0.744              1.529              1.070
 Vibration     6          0.779              1.436              0.906
 Vibration     7          0.820              1.334              0.760
 Vibration     8          0.880              1.194              0.598

 Optimization completed.
    -- Stationary point found.
 Normal termination of Gaussian 09 at Mon Jan 27 15:52:42 2020.
