 Gaussian 09, Revision D.01,
 Gaussian 09:  ES64L-G09RevD.01 24-Apr-2013

 -----------------------------
 # b3lyp 6-31G(2df,p) opt Freq
 -----------------------------

 -----
 titel
 -----
 Symbolic Z-matrix:
 Charge =  0 Multiplicity = 1

 SCF Done:  E(RB3LYP) =  -423.142173230     A.U. after   14 cycles
 Optimization completed.
    -- Stationary point found.
 Normal termination of Gaussian 09 at Tue Jan 28 11:39:50 2020.

 ----------------------------------------------------------------------
 #N Geom=AllCheck Guess=TCheck SCRF=Check GenChk RB3LYP/6-31G(2df,p) Fr
 eq
 ----------------------------------------------------------------------

 Structure from the checkpoint file:  "/scratch/puck/g09_aceed2e4-c005-4764-84a7-de98bbbec20a/Gau-112413.chk"
 -----
 titel
 -----
 Charge =  0 Multiplicity = 1

                         Standard orientation:
 ---------------------------------------------------------------------
 Center     Atomic      Atomic             Coordinates (Angstroms)
 Number     Number       Type             X           Y           Z
 ---------------------------------------------------------------------
      1          8           0        3.166414   -0.613250   -0.027003
      2          6           0        2.241415    0.341075    0.472475
      3          6           0        1.006438    0.309832   -0.421524
      4          6           0       -0.069819    1.375106   -0.008448
      5          6           0       -1.384122    0.702243   -0.429847
      6          8           0       -2.482903    0.450145    0.517992
      7          6           0       -2.411415   -0.986234    0.252113
      8          6           0       -1.063405   -0.754219   -0.382211
      9          6           0        0.236062   -1.009699   -0.306896
     10          1           0        3.924657   -0.638875    0.563777
     11          1           0        1.947576    0.109447    1.509415
     12          1           0        2.671149    1.355978    0.468698
     13          1           0        1.352658    0.490736   -1.448668
     14          1           0       -0.066458    1.487879    1.081994
     15          1           0        0.100651    2.357083   -0.458513
     16          1           0       -1.800793    1.109514   -1.360886
     17          1           0       -2.440342   -1.589409    1.165574
     18          1           0       -3.218795   -1.300337   -0.422723
     19          1           0        0.730695   -1.945794   -0.080560
 ---------------------------------------------------------------------

 SCF Done:  E(RB3LYP) =  -423.142173230     A.U. after    1 cycles

 The electronic state is 1-A.
 Alpha  occ. eigenvalues --  -19.13788 -19.13297 -10.23734 -10.22943 -10.22528
 Alpha  occ. eigenvalues --  -10.19393 -10.18540 -10.18281 -10.18093  -1.02979
 Alpha  occ. eigenvalues --   -1.01864  -0.83734  -0.73922  -0.71649  -0.66441
 Alpha  occ. eigenvalues --   -0.63090  -0.56733  -0.53039  -0.50772  -0.48472
 Alpha  occ. eigenvalues --   -0.48307  -0.45407  -0.43484  -0.41975  -0.40465
 Alpha  occ. eigenvalues --   -0.36486  -0.35638  -0.34828  -0.33280  -0.32381
 Alpha  occ. eigenvalues --   -0.30781  -0.27030  -0.25235  -0.23540
 Alpha virt. eigenvalues --    0.00751   0.07285   0.08582   0.10616   0.11583
 Alpha virt. eigenvalues --    0.12746   0.13701   0.15482   0.16434   0.16850
 Alpha virt. eigenvalues --    0.17422   0.18181   0.19579   0.20985   0.22892

 Mulliken charges:
               1
     1  O   -0.421899
     2  C   -0.089760
     3  C   -0.005524
     4  C   -0.288043
     5  C    0.108279
     6  O   -0.309266
     7  C   -0.155497
     8  C    0.183709
     9  C   -0.203158
    10  H    0.288111
    11  H    0.086462
    12  H    0.088609
    13  H    0.091545
    14  H    0.114807
    15  H    0.097635
    16  H    0.078630
    17  H    0.118788
    18  H    0.106627
    19  H    0.109946
 Sum of Mulliken charges =   0.00000

 Dipole moment (field-independent basis, Debye):
    X=              1.5884    Y=             -0.1195    Z=              0.5519  Tot=              1.6857
 Quadrupole moment (field-independent basis, Debye-Ang):
   XX=            -51.5376   YY=            -51.9247   ZZ=            -52.9863
   XY=              4.5603   XZ=              6.7321   YZ=             -2.7189

  Exact polarizability: 101.823   2.539  73.687   1.225  -3.468  60.262
 Approx polarizability: 140.999  -3.014 108.988  -0.734  -2.985  95.201

                      1                      2                      3
                      A                      A                      A
 Frequencies --     79.6748               121.8393               196.1788
 Red. masses --      4.8842                 3.5086                 2.3943
 Frc consts  --      0.0183                 0.0307                 0.0543
 IR Inten    --      0.9477                 6.1285                15.1856

                      4                      5                      6
                      A                      A                      A
 Frequencies --    226.1346               267.1585               313.7728
 Red. masses --      2.8272                 1.1515                 2.6276
 Frc consts  --      0.0852                 0.0484                 0.1524
 IR Inten    --      0.7204                87.9875                 6.5170

                      7                      8                      9
                      A                      A                      A
 Frequencies --    344.8773               449.7482               464.2383
 Red. masses --      4.3270                 3.3363                 2.2405
 Frc consts  --      0.3032                 0.3976                 0.2845
 IR Inten    --      1.1748                 4.3418                 7.5279

                     10                     11                     12
                      A                      A                      A
 Frequencies --    597.4197               644.2067               763.2128
 Red. masses --      2.7478                 3.6525                 4.5944
 Frc consts  --      0.5778                 0.8931                 1.5768
 IR Inten    --     10.7506                 5.0637                 9.7134

                     13                     14                     15
                      A                      A                      A
 Frequencies --    835.0135               855.3697               868.5121
 Red. masses --      1.7231                 2.0058                 3.2348
 Frc consts  --      0.7079                 0.8647                 1.4376
 IR Inten    --     12.7278                 8.6972                29.4782

                     16                     17                     18
                      A                      A                      A
 Frequencies --    906.8205               925.1235               959.3499
 Red. masses --      3.3722                 1.6113                 4.7235
 Frc consts  --      1.6338                 0.8125                 2.5614
 IR Inten    --     14.6398                 7.7189                46.6559

                     19                     20                     21
                      A                      A                      A
 Frequencies --    992.5540              1009.2228              1051.2746
 Red. masses --      2.1840                 2.9695                 2.1017
 Frc consts  --      1.2677                 1.7820                 1.3685
 IR Inten    --      7.1199                15.2124                23.1380

                     22                     23                     24
                      A                      A                      A
 Frequencies --   1059.0458              1081.8913              1092.9815
 Red. masses --      2.0059                 3.3135                 2.3387
 Frc consts  --      1.3255                 2.2851                 1.6461
 IR Inten    --     37.1922                41.5690                10.2469

                     25                     26                     27
                      A                      A                      A
 Frequencies --   1136.1862              1141.2355              1171.8219
 Red. masses --      1.6189                 1.4316                 1.2929
 Frc consts  --      1.2313                 1.0985                 1.0460
 IR Inten    --      7.9572                11.7480                 2.5670

                     28                     29                     30
                      A                      A                      A
 Frequencies --   1219.2385              1238.1654              1243.5086
 Red. masses --      1.3728                 1.1178                 1.4109
 Frc consts  --      1.2024                 1.0096                 1.2854
 IR Inten    --      8.3231                 5.6986                 1.5856

                     31                     32                     33
                      A                      A                      A
 Frequencies --   1269.9960              1297.3194              1304.7674
 Red. masses --      1.4646                 1.2981                 1.3941
 Frc consts  --      1.3918                 1.2872                 1.3983
 IR Inten    --     27.6635                 0.4976                15.3698

                     34                     35                     36
                      A                      A                      A
 Frequencies --   1337.6986              1355.5041              1363.5360
 Red. masses --      1.4701                 1.3766                 1.5836
 Frc consts  --      1.5500                 1.4903                 1.7347
 IR Inten    --      5.4417                22.1174                 0.6441

                     37                     38                     39
                      A                      A                      A
 Frequencies --   1453.9489              1477.5113              1510.0166
 Red. masses --      1.4706                 1.0961                 1.1049
 Frc consts  --      1.8317                 1.4098                 1.4844
 IR Inten    --      9.2304                 2.8289                 1.3006

                     40                     41                     42
                      A                      A                      A
 Frequencies --   1519.3051              1745.7058              2960.1576
 Red. masses --      1.0828                 9.0483                 1.0544
 Frc consts  --      1.4726                16.2465                 5.4433
 IR Inten    --      4.2995                 2.7821                50.9826

                     43                     44                     45
                      A                      A                      A
 Frequencies --   2988.1253              3006.5492              3013.2157
 Red. masses --      1.1009                 1.0730                 1.0852
 Frc consts  --      5.7918                 5.7148                 5.8052
 IR Inten    --     28.0042                49.5922                77.6311

                     46                     47                     48
                      A                      A                      A
 Frequencies --   3014.1122              3044.0399              3073.5458
 Red. masses --      1.0748                 1.0600                 1.1032
 Frc consts  --      5.7528                 5.7869                 6.1404
 IR Inten    --     70.2012                21.9146                32.1548

                     49                     50                     51
                      A                      A                      A
 Frequencies --   3100.9223              3216.8367              3830.5332
 Red. masses --      1.1042                 1.0953                 1.0664
 Frc consts  --      6.2558                 6.6782                 9.2191
 IR Inten    --     38.7667                 4.2658                24.0313

 - Thermochemistry -
 -------------------
 Temperature   298.150 Kelvin.  Pressure   1.00000 Atm.
 Atom     1 has atomic number  8 and mass  15.99491

 Molecular mass:   126.06808 amu.
 Principal axes and moments of inertia in atomic units:
                           1         2         3
     Eigenvalues --   411.915001827.743892063.96831
           X            0.99979   0.01745   0.01076
           Y           -0.01707   0.99925  -0.03463
           Z           -0.01136   0.03443   0.99934
 This molecule is an asymmetric top.
 Rotational symmetry number  1.
 Rotational temperatures (Kelvin)      0.21027     0.04739     0.04196
 Rotational constants (GHZ):           4.38134     0.98741     0.87440
 Zero-point vibrational energy     419525.1 (Joules/Mol)
                                  100.26891 (Kcal/Mol)
 Warning -- explicit consideration of  10 degrees of freedom as
           vibrations may cause significant error
 Vibrational temperatures:    114.63   175.30   282.26   325.36   384.38
          (Kelvin)            451.45   496.20   647.09   667.93   859.55
                              926.87  1098.09  1201.40  1230.68  1249.59
                             1304.71  1331.04  1380.29  1428.06  1452.04
                             1512.55  1523.73  1556.60  1572.55  1634.72
                             1641.98  1685.99  1754.21  1781.44  1789.13
                             1827.24  1866.55  1877.27  1924.65  1950.27
                             1961.82  2091.91  2125.81  2172.57  2185.94
                             2511.68  4259.00  4299.24  4325.75  4335.34
                             4336.63  4379.69  4422.14  4461.53  4628.30
                             5511.28

 Zero-point correction=                           0.159789 (Hartree/Particle)
 Thermal correction to Energy=                    0.168028
 Thermal correction to Enthalpy=                  0.168972
 Thermal correction to Gibbs Free Energy=         0.126747
 Sum of electronic and zero-point Energies=           -422.982385
 Sum of electronic and thermal Energies=              -422.974145
 Sum of electronic and thermal Enthalpies=            -422.973201
 Sum of electronic and thermal Free Energies=         -423.015426

                     E (Thermal)             CV                S
                      KCal/Mol        Cal/Mol-Kelvin    Cal/Mol-Kelvin
 Total                  105.439             31.358             88.869
 Electronic               0.000              0.000              0.000
 Translational            0.889              2.981             40.409
 Rotational               0.889              2.981             28.832
 Vibrational            103.662             25.397             19.629
 Vibration     1          0.600              1.963              3.899
 Vibration     2          0.609              1.931              3.071
 Vibration     3          0.636              1.845              2.169
 Vibration     4          0.650              1.801              1.909
 Vibration     5          0.672              1.733              1.615
 Vibration     6          0.702              1.647              1.342
 Vibration     7          0.723              1.586              1.189
 Vibration     8          0.809              1.361              0.797
 Vibration     9          0.822              1.329              0.754
 Vibration    10          0.955              1.037              0.454

 Normal termination of Gaussian 09 at Tue Jan 28 12:20:05 2020.
