 Gaussian 09, Revision D.01,
 Gaussian 09:  ES64L-G09RevD.01 24-Apr-2013

 -----------------------------
 # b3lyp 6-31G(2df,p) opt Freq
 -----------------------------

 -----
 titel
 -----
 Symbolic Z-matrix:
 Charge =  0 Multiplicity = 1

 SCF Done:  E(RB3LYP) =  -423.084426327     A.U. after   14 cycles
 Optimization completed.
    -- Stationary point found.
 Normal termination of Gaussian 09 at Tue Jan 28 12:49:03 2020.

 ----------------------------------------------------------------------
 #N Geom=AllCheck Guess=TCheck SCRF=Check GenChk RB3LYP/6-31G(2df,p) Fr
 eq
 ----------------------------------------------------------------------

 Structure from the checkpoint file:  "/scratch/puck/g09_842ac86c-20d8-4b81-aa88-d6950b210256/Gau-10926.chk"
 -----
 titel
 -----
 Charge =  0 Multiplicity = 1

                         Standard orientation:
 ---------------------------------------------------------------------
 Center     Atomic      Atomic             Coordinates (Angstroms)
 Number     Number       Type             X           Y           Z
 ---------------------------------------------------------------------
      1          6           0       -2.918600    0.165032   -0.344931
      2          8           0       -1.784588    0.255319    0.490223
      3          6           0       -0.829532   -0.743155    0.238404
      4          6           0        0.191093   -0.514019   -0.901467
      5          6           0        1.297381   -1.272147   -0.111356
      6          8           0        2.289499   -0.214954   -0.233482
      7          6           0        1.021497    0.491681   -0.021912
      8          6           0        1.016086    1.983886    0.021879
      9          6           0        0.480695   -0.565125    1.009758
     10          1           0       -3.423039   -0.807716   -0.236991
     11          1           0       -3.609546    0.955407   -0.042568
     12          1           0       -2.662211    0.303773   -1.405775
     13          1           0       -1.291278   -1.741278    0.275289
     14          1           0        0.065227   -0.487397   -1.983709
     15          1           0        1.621160   -2.308687   -0.187403
     16          1           0       -0.002414    2.336800    0.200410
     17          1           0        1.664198    2.344799    0.826550
     18          1           0        1.378732    2.397173   -0.924544
     19          1           0        0.668160   -0.592714    2.082571
 ---------------------------------------------------------------------

 SCF Done:  E(RB3LYP) =  -423.084426327     A.U. after    1 cycles

 The electronic state is 1-A.
 Alpha  occ. eigenvalues --  -19.14526 -19.12252 -10.25081 -10.24714 -10.23898
 Alpha  occ. eigenvalues --  -10.22809 -10.19622 -10.19580 -10.17920  -1.05975
 Alpha  occ. eigenvalues --   -1.03618  -0.86126  -0.74292  -0.70276  -0.64663
 Alpha  occ. eigenvalues --   -0.61635  -0.61485  -0.51133  -0.49829  -0.49303
 Alpha  occ. eigenvalues --   -0.47120  -0.46084  -0.43394  -0.42526  -0.41390
 Alpha  occ. eigenvalues --   -0.39336  -0.37715  -0.35087  -0.32139  -0.31517
 Alpha  occ. eigenvalues --   -0.30207  -0.29484  -0.25717  -0.22700
 Alpha virt. eigenvalues --    0.08531   0.09473   0.10996   0.11448   0.12452
 Alpha virt. eigenvalues --    0.13342   0.14328   0.14944   0.15329   0.16794
 Alpha virt. eigenvalues --    0.17006   0.17344   0.18193   0.18965   0.19682

 Mulliken charges:
               1
     1  C   -0.239672
     2  O   -0.252135
     3  C    0.125312
     4  C   -0.188696
     5  C    0.072638
     6  O   -0.360850
     7  C    0.484445
     8  C   -0.527728
     9  C   -0.189248
    10  H    0.107156
    11  H    0.128723
    12  H    0.108044
    13  H    0.065679
    14  H    0.080391
    15  H    0.094904
    16  H    0.144819
    17  H    0.132300
    18  H    0.129844
    19  H    0.084074
 Sum of Mulliken charges =   0.00000

 Dipole moment (field-independent basis, Debye):
    X=             -2.0144    Y=             -0.5320    Z=             -0.5205  Tot=              2.1475
 Quadrupole moment (field-independent basis, Debye-Ang):
   XX=            -56.9157   YY=            -49.5108   ZZ=            -52.5469
   XY=              0.4560   XZ=              2.9894   YZ=             -0.4420

  Exact polarizability:  83.515  -0.171  77.035   1.649  -0.502  66.568
 Approx polarizability: 113.757  -0.715 110.612   0.664   0.301 104.604

                      1                      2                      3
                      A                      A                      A
 Frequencies --     87.4957               145.9541               178.3302
 Red. masses --      2.8593                 2.7331                 1.3434
 Frc consts  --      0.0129                 0.0343                 0.0252
 IR Inten    --      0.9858                 2.6189                 0.4604

                      4                      5                      6
                      A                      A                      A
 Frequencies --    207.9935               240.8981               299.9516
 Red. masses --      1.0492                 2.3147                 2.6203
 Frc consts  --      0.0267                 0.0791                 0.1389
 IR Inten    --      0.2558                 4.4315                 1.6491

                      7                      8                      9
                      A                      A                      A
 Frequencies --    343.1132               415.9213               522.5328
 Red. masses --      3.3484                 4.1643                 5.0115
 Frc consts  --      0.2323                 0.4244                 0.8062
 IR Inten    --      3.0360                 0.6029                 7.4322

                     10                     11                     12
                      A                      A                      A
 Frequencies --    568.9671               647.5200               740.9386
 Red. masses --      3.4006                 3.5781                 3.6340
 Frc consts  --      0.6486                 0.8839                 1.1754
 IR Inten    --      1.2914                 0.7035                 0.0066

                     13                     14                     15
                      A                      A                      A
 Frequencies --    774.6805               792.5356               840.8876
 Red. masses --      3.4089                 2.8914                 2.0624
 Frc consts  --      1.2054                 1.0700                 0.8592
 IR Inten    --     14.7092                 2.0237                 2.8478

                     16                     17                     18
                      A                      A                      A
 Frequencies --    874.7837               914.6946               944.1648
 Red. masses --      2.5523                 1.7330                 1.9724
 Frc consts  --      1.1508                 0.8543                 1.0359
 IR Inten    --     26.3843                 6.5337                 9.0482

                     19                     20                     21
                      A                      A                      A
 Frequencies --    952.5797              1010.9773              1021.8850
 Red. masses --      2.6421                 1.7175                 2.9695
 Frc consts  --      1.4125                 1.0343                 1.8270
 IR Inten    --     16.4223                 5.8473                23.6688

                     22                     23                     24
                      A                      A                      A
 Frequencies --   1077.3321              1106.1727              1116.4568
 Red. masses --      3.3695                 1.5141                 1.7740
 Frc consts  --      2.3042                 1.0916                 1.3028
 IR Inten    --      0.5679                 3.4302                26.4297

                     25                     26                     27
                      A                      A                      A
 Frequencies --   1125.0237              1139.1423              1171.2080
 Red. masses --      1.7605                 3.5778                 1.6662
 Frc consts  --      1.3128                 2.7354                 1.3467
 IR Inten    --      3.5656               136.0118                 0.8752

                     28                     29                     30
                      A                      A                      A
 Frequencies --   1179.7131              1186.1791              1221.9142
 Red. masses --      2.1938                 1.3342                 1.5732
 Frc consts  --      1.7989                 1.1061                 1.3839
 IR Inten    --     40.2636                 8.6156                26.9060

                     31                     32                     33
                      A                      A                      A
 Frequencies --   1256.3389              1264.8472              1280.3410
 Red. masses --      1.9893                 2.0618                 1.8917
 Frc consts  --      1.8499                 1.9434                 1.8271
 IR Inten    --     39.1403                16.6699                19.9261

                     34                     35                     36
                      A                      A                      A
 Frequencies --   1369.1265              1397.8862              1416.8658
 Red. masses --      1.7753                 1.3618                 2.1504
 Frc consts  --      1.9607                 1.5678                 2.5435
 IR Inten    --      5.5647                42.0733                23.3401

                     37                     38                     39
                      A                      A                      A
 Frequencies --   1480.6728              1483.6924              1488.5130
 Red. masses --      1.0467                 1.1346                 1.0498
 Frc consts  --      1.3521                 1.4716                 1.3704
 IR Inten    --      3.2804                 3.0105                 3.6577

                     40                     41                     42
                      A                      A                      A
 Frequencies --   1489.9188              1510.3205              2976.9268
 Red. masses --      1.0696                 1.0669                 1.0403
 Frc consts  --      1.3990                 1.4338                 5.4318
 IR Inten    --      1.6726                 5.9709                42.8144

                     43                     44                     45
                      A                      A                      A
 Frequencies --   2991.6144              3026.1803              3041.6369
 Red. masses --      1.0796                 1.1029                 1.0352
 Frc consts  --      5.6925                 5.9509                 5.6425
 IR Inten    --     86.4271                48.0882                17.8518

                     46                     47                     48
                      A                      A                      A
 Frequencies --   3109.5524              3116.8053              3119.6993
 Red. masses --      1.1015                 1.0963                 1.0899
 Frc consts  --      6.2752                 6.2747                 6.2495
 IR Inten    --     12.9885                29.0319                26.9930

                     49                     50                     51
                      A                      A                      A
 Frequencies --   3126.1194              3134.8415              3140.1603
 Red. masses --      1.0901                 1.1004                 1.0981
 Frc consts  --      6.2769                 6.3714                 6.3796
 IR Inten    --     45.7890                 6.9793                34.3306

 - Thermochemistry -
 -------------------
 Temperature   298.150 Kelvin.  Pressure   1.00000 Atm.
 Atom     1 has atomic number  6 and mass  12.00000

 Molecular mass:   126.06808 amu.
 Principal axes and moments of inertia in atomic units:
                           1         2         3
     Eigenvalues --   548.726491342.765921599.05600
           X            0.99969   0.01653   0.01838
           Y           -0.01644   0.99985  -0.00495
           Z           -0.01846   0.00464   0.99982
 This molecule is an asymmetric top.
 Rotational symmetry number  1.
 Warning -- assumption of classical behavior for rotation
           may cause significant error
 Rotational temperatures (Kelvin)      0.15785     0.06450     0.05417
 Rotational constants (GHZ):           3.28896     1.34405     1.12863
 Zero-point vibrational energy     413142.3 (Joules/Mol)
                                   98.74339 (Kcal/Mol)
 Warning -- explicit consideration of  10 degrees of freedom as
           vibrations may cause significant error
 Vibrational temperatures:    125.89   210.00   256.58   299.26   346.60
          (Kelvin)            431.56   493.66   598.42   751.81   818.62
                              931.64  1066.04  1114.59  1140.28  1209.85
                             1258.62  1316.04  1358.44  1370.55  1454.57
                             1470.26  1550.04  1591.53  1606.33  1618.66
                             1638.97  1685.10  1697.34  1706.64  1758.06
                             1807.59  1819.83  1842.12  1969.87  2011.24
                             2038.55  2130.36  2134.70  2141.64  2143.66
                             2173.01  4283.13  4304.26  4353.99  4376.23
                             4473.95  4484.38  4488.55  4497.78  4510.33
                             4517.98

 Zero-point correction=                           0.157358 (Hartree/Particle)
 Thermal correction to Energy=                    0.165724
 Thermal correction to Enthalpy=                  0.166668
 Thermal correction to Gibbs Free Energy=         0.124445
 Sum of electronic and zero-point Energies=           -422.927069
 Sum of electronic and thermal Energies=              -422.918702
 Sum of electronic and thermal Enthalpies=            -422.917758
 Sum of electronic and thermal Free Energies=         -422.959981

                     E (Thermal)             CV                S
                      KCal/Mol        Cal/Mol-Kelvin    Cal/Mol-Kelvin
 Total                  103.993             31.941             88.866
 Electronic               0.000              0.000              0.000
 Translational            0.889              2.981             40.409
 Rotational               0.889              2.981             28.557
 Vibrational            102.216             25.979             19.901
 Vibration     1          0.601              1.958              3.715
 Vibration     2          0.617              1.907              2.724
 Vibration     3          0.629              1.869              2.346
 Vibration     4          0.641              1.828              2.061
 Vibration     5          0.658              1.778              1.796
 Vibration     6          0.692              1.674              1.417
 Vibration     7          0.722              1.589              1.198
 Vibration     8          0.779              1.436              0.906
 Vibration     9          0.877              1.200              0.604
 Vibration    10          0.925              1.098              0.506

 Optimization completed.
    -- Stationary point found.
 Normal termination of Gaussian 09 at Tue Jan 28 14:49:49 2020.
