 Gaussian 09, Revision D.01,
 Gaussian 09:  ES64L-G09RevD.01 24-Apr-2013

 -----------------------------
 # b3lyp 6-31G(2df,p) opt Freq
 -----------------------------

 -----
 titel
 -----
 Symbolic Z-matrix:
 Charge =  0 Multiplicity = 1

 SCF Done:  E(RB3LYP) =  -423.181639928     A.U. after   14 cycles
 Optimization completed.
    -- Stationary point found.
 Normal termination of Gaussian 09 at Mon Jan 27 13:24:18 2020.

 ----------------------------------------------------------------------
 #N Geom=AllCheck Guess=TCheck SCRF=Check GenChk RB3LYP/6-31G(2df,p) Fr
 eq
 ----------------------------------------------------------------------

 Structure from the checkpoint file:  "/scratch/puck/g09_e13dd368-df04-4c6c-8123-5fc5eb3e6419/Gau-155443.chk"
 -----
 titel
 -----
 Charge =  0 Multiplicity = 1

                         Standard orientation:
 ---------------------------------------------------------------------
 Center     Atomic      Atomic             Coordinates (Angstroms)
 Number     Number       Type             X           Y           Z
 ---------------------------------------------------------------------
      1          8           0        2.906291   -0.508434    0.065958
      2          6           0        2.104469    0.387627    0.105325
      3          6           0        0.709291    0.303591   -0.503283
      4          8           0       -0.000117    1.431777   -0.014371
      5          6           0       -1.421885    1.308985    0.006806
      6          6           0       -1.865688   -0.134380    0.266033
      7          6           0       -0.794643   -0.828879    1.155903
      8          6           0       -0.001564   -1.017063   -0.170500
      9          6           0       -1.369996   -1.031322   -0.900203
     10          1           0        2.322946    1.365967    0.586645
     11          1           0        0.839955    0.370915   -1.599923
     12          1           0       -1.759321    1.976477    0.807212
     13          1           0       -1.851311    1.672015   -0.940797
     14          1           0       -2.918865   -0.172671    0.553852
     15          1           0       -0.335419   -0.246731    1.958370
     16          1           0       -1.149396   -1.784602    1.547216
     17          1           0        0.689016   -1.853204   -0.284915
     18          1           0       -1.415114   -0.624515   -1.916240
     19          1           0       -1.831785   -2.021753   -0.884605
 ---------------------------------------------------------------------

 SCF Done:  E(RB3LYP) =  -423.181639928     A.U. after    1 cycles

 The electronic state is 1-A.
 Alpha  occ. eigenvalues --  -19.14932 -19.14412 -10.27041 -10.24301 -10.23557
 Alpha  occ. eigenvalues --  -10.19840 -10.19836 -10.18886 -10.18856  -1.05445
 Alpha  occ. eigenvalues --   -1.04056  -0.86136  -0.77606  -0.67043  -0.66676
 Alpha  occ. eigenvalues --   -0.63818  -0.58097  -0.53206  -0.50760  -0.48682
 Alpha  occ. eigenvalues --   -0.48166  -0.45982  -0.44965  -0.42376  -0.40403
 Alpha  occ. eigenvalues --   -0.39620  -0.38129  -0.37095  -0.33664  -0.32328
 Alpha  occ. eigenvalues --   -0.31090  -0.29904  -0.26685  -0.24851
 Alpha virt. eigenvalues --   -0.02778   0.07853   0.10679   0.11829   0.12420
 Alpha virt. eigenvalues --    0.13246   0.14123   0.14983   0.15483   0.15586
 Alpha virt. eigenvalues --    0.17383   0.18235   0.18988   0.20896   0.21633

 Mulliken charges:
               1
     1  O   -0.248700
     2  C    0.140452
     3  C    0.032664
     4  O   -0.280240
     5  C   -0.070715
     6  C   -0.029769
     7  C   -0.229608
     8  C   -0.026701
     9  C   -0.241562
    10  H    0.094436
    11  H    0.095371
    12  H    0.110273
    13  H    0.093826
    14  H    0.068576
    15  H    0.104807
    16  H    0.103037
    17  H    0.091468
    18  H    0.091156
    19  H    0.101228
 Sum of Mulliken charges =   0.00000

 Dipole moment (field-independent basis, Debye):
    X=             -2.7570    Y=              0.2305    Z=             -0.2466  Tot=              2.7776
 Quadrupole moment (field-independent basis, Debye-Ang):
   XX=            -58.7616   YY=            -54.1257   ZZ=            -51.7938
   XY=              2.9638   XZ=             -0.7198   YZ=             -0.0506

  Exact polarizability:  84.101  -1.945  73.946   1.157   1.907  66.675
 Approx polarizability: 114.784  -7.555 111.428   1.373   3.475 101.107

                      1                      2                      3
                      A                      A                      A
 Frequencies --     67.0918               121.6994               194.0253
 Red. masses --      3.8860                 2.9529                 4.0486
 Frc consts  --      0.0103                 0.0258                 0.0898
 IR Inten    --      6.7730                 7.4386                 4.3433

                      4                      5                      6
                      A                      A                      A
 Frequencies --    250.1882               372.0639               395.3591
 Red. masses --      2.7852                 2.2101                 3.1232
 Frc consts  --      0.1027                 0.1803                 0.2876
 IR Inten    --      2.7656                 0.8823                 0.2312

                      7                      8                      9
                      A                      A                      A
 Frequencies --    421.8105               544.2911               582.3120
 Red. masses --      2.6760                 3.5536                 3.4980
 Frc consts  --      0.2805                 0.6203                 0.6988
 IR Inten    --      0.5965                 0.4935                 7.9719

                     10                     11                     12
                      A                      A                      A
 Frequencies --    616.1357               779.4685               830.8921
 Red. masses --      3.8875                 2.8577                 2.1031
 Frc consts  --      0.8695                 1.0230                 0.8555
 IR Inten    --     11.7359                 8.1383                 0.3157

                     13                     14                     15
                      A                      A                      A
 Frequencies --    837.6650               871.0509               889.7288
 Red. masses --      2.1868                 2.9412                 3.2470
 Frc consts  --      0.9040                 1.3148                 1.5144
 IR Inten    --      0.4585                13.4135                14.2121

                     16                     17                     18
                      A                      A                      A
 Frequencies --    929.0228               963.4590               965.9210
 Red. masses --      1.8770                 1.9192                 2.4884
 Frc consts  --      0.9545                 1.0496                 1.3679
 IR Inten    --      5.6828                 3.3212                 6.0457

                     19                     20                     21
                      A                      A                      A
 Frequencies --    991.7689              1046.5073              1066.8399
 Red. masses --      1.3198                 2.2509                 1.8384
 Frc consts  --      0.7649                 1.4524                 1.2328
 IR Inten    --      1.9305                 5.8726                72.4263

                     22                     23                     24
                      A                      A                      A
 Frequencies --   1070.1876              1104.5900              1113.0976
 Red. masses --      2.0937                 1.8291                 1.2801
 Frc consts  --      1.4128                 1.3149                 0.9345
 IR Inten    --      2.8571                10.6325                 0.4874

                     25                     26                     27
                      A                      A                      A
 Frequencies --   1125.6062              1155.2872              1192.2588
 Red. masses --      1.8191                 1.8202                 1.9210
 Frc consts  --      1.3579                 1.4314                 1.6088
 IR Inten    --      4.6837                 3.0073                58.8848

                     28                     29                     30
                      A                      A                      A
 Frequencies --   1238.5593              1250.6895              1270.4074
 Red. masses --      1.3104                 1.3577                 1.5635
 Frc consts  --      1.1844                 1.2513                 1.4868
 IR Inten    --      7.2103                 1.2918                 3.1527

                     31                     32                     33
                      A                      A                      A
 Frequencies --   1292.8674              1304.4060              1321.4157
 Red. masses --      1.3750                 1.4303                 1.4929
 Frc consts  --      1.3541                 1.4338                 1.5359
 IR Inten    --      9.6943                 3.7349                 1.1694

                     34                     35                     36
                      A                      A                      A
 Frequencies --   1338.0942              1358.6433              1393.1952
 Red. masses --      1.6293                 1.6505                 1.2536
 Frc consts  --      1.7188                 1.7950                 1.4336
 IR Inten    --      0.7698                 4.5402                 2.4433

                     37                     38                     39
                      A                      A                      A
 Frequencies --   1410.0104              1479.5097              1506.2136
 Red. masses --      1.3119                 1.0923                 1.1155
 Frc consts  --      1.5367                 1.4088                 1.4911
 IR Inten    --      5.7820                 2.8209                 1.6402

                     40                     41                     42
                      A                      A                      A
 Frequencies --   1515.7619              1836.6957              2901.4345
 Red. masses --      1.0991                10.8707                 1.0849
 Frc consts  --      1.4878                21.6064                 5.3811
 IR Inten    --      0.2182               136.9694                91.6006

                     43                     44                     45
                      A                      A                      A
 Frequencies --   2926.6365              2977.4727              3042.2274
 Red. masses --      1.0796                 1.0695                 1.0595
 Frc consts  --      5.4481                 5.5866                 5.7772
 IR Inten    --     47.0315                70.0640                42.7960

                     46                     47                     48
                      A                      A                      A
 Frequencies --   3062.2309              3066.0403              3084.0254
 Red. masses --      1.0926                 1.0595                 1.0879
 Frc consts  --      6.0366                 5.8682                 6.0963
 IR Inten    --     33.0548                20.9628                52.5436

                     49                     50                     51
                      A                      A                      A
 Frequencies --   3103.1530              3112.5267              3124.5192
 Red. masses --      1.1046                 1.0894                 1.1081
 Frc consts  --      6.2669                 6.2185                 6.3739
 IR Inten    --     28.5464                15.6905                26.4180

 - Thermochemistry -
 -------------------
 Temperature   298.150 Kelvin.  Pressure   1.00000 Atm.
 Atom     1 has atomic number  8 and mass  15.99491

 Molecular mass:   126.06808 amu.
 Principal axes and moments of inertia in atomic units:
                           1         2         3
     Eigenvalues --   570.872261301.633771545.16719
           X            0.99990   0.01419   0.00165
           Y           -0.01420   0.99988   0.00596
           Z           -0.00156  -0.00598   0.99998
 This molecule is an asymmetric top.
 Rotational symmetry number  1.
 Warning -- assumption of classical behavior for rotation
           may cause significant error
 Rotational temperatures (Kelvin)      0.15172     0.06654     0.05605
 Rotational constants (GHZ):           3.16137     1.38652     1.16799
 Zero-point vibrational energy     421175.6 (Joules/Mol)
                                  100.66339 (Kcal/Mol)
 Warning -- explicit consideration of  10 degrees of freedom as
           vibrations may cause significant error
 Vibrational temperatures:     96.53   175.10   279.16   359.96   535.32
          (Kelvin)            568.83   606.89   783.11   837.82   886.48
                             1121.48  1195.47  1205.21  1253.25  1280.12
                             1336.65  1386.20  1389.74  1426.93  1505.69
                             1534.94  1539.76  1589.26  1601.50  1619.49
                             1662.20  1715.39  1782.01  1799.46  1827.83
                             1860.15  1876.75  1901.22  1925.22  1954.78
                             2004.49  2028.69  2128.68  2167.10  2180.84
                             2642.59  4174.51  4210.77  4283.91  4377.08
                             4405.86  4411.34  4437.22  4464.74  4478.23
                             4495.48

 Zero-point correction=                           0.160417 (Hartree/Particle)
 Thermal correction to Energy=                    0.168082
 Thermal correction to Enthalpy=                  0.169026
 Thermal correction to Gibbs Free Energy=         0.127843
 Sum of electronic and zero-point Energies=           -423.021223
 Sum of electronic and thermal Energies=              -423.013558
 Sum of electronic and thermal Enthalpies=            -423.012614
 Sum of electronic and thermal Free Energies=         -423.053797

                     E (Thermal)             CV                S
                      KCal/Mol        Cal/Mol-Kelvin    Cal/Mol-Kelvin
 Total                  105.473             29.600             86.677
 Electronic               0.000              0.000              0.000
 Translational            0.889              2.981             40.409
 Rotational               0.889              2.981             28.531
 Vibrational            103.696             23.638             17.737
 Vibration     1          0.598              1.970              4.237
 Vibration     2          0.609              1.931              3.073
 Vibration     3          0.635              1.848              2.189
 Vibration     4          0.663              1.762              1.729
 Vibration     5          0.744              1.530              1.071
 Vibration     6          0.762              1.480              0.980
 Vibration     7          0.784              1.423              0.886
 Vibration     8          0.899              1.152              0.556
 Vibration     9          0.939              1.070              0.481
 Vibration    10          0.976              0.998              0.423

 Optimization completed.
    -- Stationary point found.
 Normal termination of Gaussian 09 at Mon Jan 27 14:12:44 2020.
