 Gaussian 09, Revision D.01,
 Gaussian 09:  ES64L-G09RevD.01 24-Apr-2013

 -----------------------------
 # b3lyp 6-31G(2df,p) opt Freq
 -----------------------------

 -----
 titel
 -----
 Symbolic Z-matrix:
 Charge =  0 Multiplicity = 1

 SCF Done:  E(RB3LYP) =  -423.202636687     A.U. after   14 cycles
 Optimization completed.
    -- Stationary point found.
 Normal termination of Gaussian 09 at Mon Jan 27 14:10:25 2020.

 ----------------------------------------------------------------------
 #N Geom=AllCheck Guess=TCheck SCRF=Check GenChk RB3LYP/6-31G(2df,p) Fr
 eq
 ----------------------------------------------------------------------

 Structure from the checkpoint file:  "/scratch/puck/g09_add68f0b-94eb-417e-b0e6-111a4628b395/Gau-31497.chk"
 -----
 titel
 -----
 Charge =  0 Multiplicity = 1

                         Standard orientation:
 ---------------------------------------------------------------------
 Center     Atomic      Atomic             Coordinates (Angstroms)
 Number     Number       Type             X           Y           Z
 ---------------------------------------------------------------------
      1          6           0        1.906325   -0.507172    1.215671
      2          6           0        1.676204    0.113652   -0.150689
      3          8           0        2.585155    0.300049   -0.927647
      4          6           0        0.240642    0.474357   -0.537359
      5          6           0       -0.581528    1.270112    0.514186
      6          6           0       -2.063071    0.905969    0.250581
      7          6           0       -1.995960   -0.487854   -0.337344
      8          8           0       -1.132804   -1.382036    0.384861
      9          6           0       -0.629470   -0.753174   -0.802482
     10          1           0        2.867583   -1.022962    1.219742
     11          1           0        1.938685    0.284282    1.974223
     12          1           0        1.093246   -1.184835    1.489046
     13          1           0        0.315262    1.031125   -1.478070
     14          1           0       -0.306281    0.952164    1.520967
     15          1           0       -0.394006    2.343785    0.446032
     16          1           0       -2.673216    0.957813    1.157331
     17          1           0       -2.516045    1.576228   -0.490005
     18          1           0       -2.868802   -0.953371   -0.787630
     19          1           0       -0.394097   -1.423672   -1.624726
 ---------------------------------------------------------------------

 SCF Done:  E(RB3LYP) =  -423.202636687     A.U. after    1 cycles

 The electronic state is 1-A.
 Alpha  occ. eigenvalues --  -19.15908 -19.12373 -10.26671 -10.24536 -10.24389
 Alpha  occ. eigenvalues --  -10.19991 -10.19749 -10.19665 -10.18133  -1.08025
 Alpha  occ. eigenvalues --   -1.03479  -0.82419  -0.75596  -0.71953  -0.67930
 Alpha  occ. eigenvalues --   -0.60348  -0.58513  -0.54102  -0.51826  -0.47899
 Alpha  occ. eigenvalues --   -0.45869  -0.44889  -0.43310  -0.41878  -0.40080
 Alpha  occ. eigenvalues --   -0.38263  -0.37955  -0.37548  -0.35725  -0.35185
 Alpha  occ. eigenvalues --   -0.34291  -0.30364  -0.27318  -0.23831
 Alpha virt. eigenvalues --   -0.01152   0.08607   0.09907   0.10392   0.11124
 Alpha virt. eigenvalues --    0.12745   0.13605   0.14750   0.16051   0.16306
 Alpha virt. eigenvalues --    0.17300   0.17560   0.18559   0.20907   0.21460

 Mulliken charges:
               1
     1  C   -0.491188
     2  C    0.373808
     3  O   -0.310502
     4  C   -0.093085
     5  C   -0.257468
     6  C   -0.244429
     7  C    0.051894
     8  O   -0.255397
     9  C    0.021581
    10  H    0.138298
    11  H    0.142574
    12  H    0.160026
    13  H    0.096075
    14  H    0.123700
    15  H    0.111737
    16  H    0.114575
    17  H    0.110201
    18  H    0.099912
    19  H    0.107689
 Sum of Mulliken charges =   0.00000

 Dipole moment (field-independent basis, Debye):
    X=             -2.6122    Y=              0.8647    Z=              0.5375  Tot=              2.8036
 Quadrupole moment (field-independent basis, Debye-Ang):
   XX=            -57.6084   YY=            -53.5612   ZZ=            -52.6919
   XY=             -2.9265   XZ=              6.3616   YZ=              2.6308

  Exact polarizability:  89.679  -2.262  66.631  -1.732   0.382  68.739
 Approx polarizability: 123.271  -0.682  99.938 -10.317  -4.495 109.053

                      1                      2                      3
                      A                      A                      A
 Frequencies --     52.5007               117.1998               168.7999
 Red. masses --      5.0987                 2.9842                 1.9501
 Frc consts  --      0.0083                 0.0242                 0.0327
 IR Inten    --      5.5792                 3.4443                 0.5689

                      4                      5                      6
                      A                      A                      A
 Frequencies --    184.8764               259.5597               328.8951
 Red. masses --      1.3733                 2.2225                 2.8704
 Frc consts  --      0.0277                 0.0882                 0.1829
 IR Inten    --      0.0288                 3.8035                 0.0777

                      7                      8                      9
                      A                      A                      A
 Frequencies --    377.4779               421.5066               535.7203
 Red. masses --      4.3799                 5.2314                 2.8358
 Frc consts  --      0.3677                 0.5476                 0.4795
 IR Inten    --      4.3262                 5.9418                 7.7207

                     10                     11                     12
                      A                      A                      A
 Frequencies --    588.9249               662.2975               678.5768
 Red. masses --      2.6692                 4.3724                 2.1284
 Frc consts  --      0.5454                 1.1300                 0.5774
 IR Inten    --      7.0891                 5.8537                 6.5114

                     13                     14                     15
                      A                      A                      A
 Frequencies --    796.3110               825.0136               838.6859
 Red. masses --      3.8584                 4.8765                 1.7177
 Frc consts  --      1.4415                 1.9556                 0.7119
 IR Inten    --      2.9414                 3.6159                 4.0326

                     16                     17                     18
                      A                      A                      A
 Frequencies --    871.4958               928.1187               931.9619
 Red. masses --      2.5148                 2.8669                 2.2366
 Frc consts  --      1.1254                 1.4550                 1.1445
 IR Inten    --     30.9793                 5.6344                 4.0295

                     19                     20                     21
                      A                      A                      A
 Frequencies --    953.4848               993.0915              1016.4088
 Red. masses --      2.2784                 1.9390                 1.9221
 Frc consts  --      1.2204                 1.1267                 1.1699
 IR Inten    --      6.3855                 8.8673                 0.4839

                     22                     23                     24
                      A                      A                      A
 Frequencies --   1035.6006              1074.7818              1085.5474
 Red. masses --      1.4153                 1.7893                 1.7605
 Frc consts  --      0.8943                 1.2178                 1.2223
 IR Inten    --      2.2004                 4.0670                 1.2797

                     25                     26                     27
                      A                      A                      A
 Frequencies --   1117.4186              1185.9986              1213.9512
 Red. masses --      1.5900                 1.5111                 1.5343
 Frc consts  --      1.1697                 1.2523                 1.3322
 IR Inten    --      2.1968                 3.1195                31.0833

                     28                     29                     30
                      A                      A                      A
 Frequencies --   1241.2298              1258.2571              1291.9987
 Red. masses --      2.5269                 1.3460                 1.3125
 Frc consts  --      2.2938                 1.2555                 1.2909
 IR Inten    --     71.9352                 4.7209                 1.0507

                     31                     32                     33
                      A                      A                      A
 Frequencies --   1305.5612              1314.5591              1331.6514
 Red. masses --      1.3535                 1.4789                 1.3878
 Frc consts  --      1.3593                 1.5058                 1.4500
 IR Inten    --      1.1989                 5.0725                 0.8495

                     34                     35                     36
                      A                      A                      A
 Frequencies --   1363.1361              1385.5029              1429.5888
 Red. masses --      1.4392                 1.3045                 2.9308
 Frc consts  --      1.5756                 1.4754                 3.5291
 IR Inten    --      0.8012                42.1575                13.1074

                     37                     38                     39
                      A                      A                      A
 Frequencies --   1472.0129              1474.0215              1482.4068
 Red. masses --      1.0596                 1.0600                 1.0913
 Frc consts  --      1.3527                 1.3570                 1.4129
 IR Inten    --      9.1890                 6.3158                 3.8914

                     40                     41                     42
                      A                      A                      A
 Frequencies --   1495.4899              1804.1799              3038.9872
 Red. masses --      1.0965                10.7352                 1.0396
 Frc consts  --      1.4448                20.5884                 5.6567
 IR Inten    --      0.9726               187.3603                 2.1620

                     43                     44                     45
                      A                      A                      A
 Frequencies --   3040.3583              3054.5459              3080.9369
 Red. masses --      1.0625                 1.0841                 1.0679
 Frc consts  --      5.7869                 5.9596                 5.9726
 IR Inten    --     27.1706                10.7872                12.5438

                     46                     47                     48
                      A                      A                      A
 Frequencies --   3089.0693              3108.0071              3129.7583
 Red. masses --      1.0925                 1.0926                 1.1043
 Frc consts  --      6.1423                 6.2185                 6.3734
 IR Inten    --     22.3291                 7.0758                17.8841

                     49                     50                     51
                      A                      A                      A
 Frequencies --   3147.2873              3155.0520              3160.0885
 Red. masses --      1.0869                 1.1047                 1.0957
 Frc consts  --      6.3434                 6.4789                 6.4470
 IR Inten    --     13.4157                 6.9018                31.1010

 - Thermochemistry -
 -------------------
 Temperature   298.150 Kelvin.  Pressure   1.00000 Atm.
 Atom     1 has atomic number  6 and mass  12.00000

 Molecular mass:   126.06808 amu.
 Principal axes and moments of inertia in atomic units:
                           1         2         3
     Eigenvalues --   573.183261487.922261579.58872
           X            0.99905  -0.03263   0.02906
           Y            0.03061   0.99726   0.06733
           Z           -0.03118  -0.06637   0.99731
 This molecule is an asymmetric top.
 Rotational symmetry number  1.
 Warning -- assumption of classical behavior for rotation
           may cause significant error
 Rotational temperatures (Kelvin)      0.15111     0.05821     0.05483
 Rotational constants (GHZ):           3.14863     1.21293     1.14254
 Zero-point vibrational energy     418082.2 (Joules/Mol)
                                   99.92405 (Kcal/Mol)
 Warning -- explicit consideration of  10 degrees of freedom as
           vibrations may cause significant error
 Vibrational temperatures:     75.54   168.62   242.87   266.00   373.45
          (Kelvin)            473.21   543.11   606.45   770.78   847.33
                              952.90   976.32  1145.71  1187.01  1206.68
                             1253.89  1335.35  1340.88  1371.85  1428.84
                             1462.38  1490.00  1546.37  1561.86  1607.71
                             1706.39  1746.60  1785.85  1810.35  1858.90
                             1878.41  1891.35  1915.95  1961.25  1993.43
                             2056.86  2117.90  2120.79  2132.85  2151.67
                             2595.81  4372.42  4374.39  4394.80  4432.78
                             4444.48  4471.72  4503.02  4528.24  4539.41
                             4546.66

 Zero-point correction=                           0.159239 (Hartree/Particle)
 Thermal correction to Energy=                    0.167645
 Thermal correction to Enthalpy=                  0.168590
 Thermal correction to Gibbs Free Energy=         0.125730
 Sum of electronic and zero-point Energies=           -423.043398
 Sum of electronic and thermal Energies=              -423.034991
 Sum of electronic and thermal Enthalpies=            -423.034047
 Sum of electronic and thermal Free Energies=         -423.076907

                     E (Thermal)             CV                S
                      KCal/Mol        Cal/Mol-Kelvin    Cal/Mol-Kelvin
 Total                  105.199             31.618             90.205
 Electronic               0.000              0.000              0.000
 Translational            0.889              2.981             40.409
 Rotational               0.889              2.981             28.690
 Vibrational            103.422             25.656             21.107
 Vibration     1          0.596              1.977              4.721
 Vibration     2          0.608              1.935              3.146
 Vibration     3          0.625              1.881              2.449
 Vibration     4          0.631              1.860              2.279
 Vibration     5          0.668              1.747              1.665
 Vibration     6          0.712              1.618              1.266
 Vibration     7          0.748              1.518              1.049
 Vibration     8          0.784              1.423              0.887
 Vibration     9          0.891              1.171              0.575
 Vibration    10          0.946              1.055              0.469

 Optimization completed.
    -- Stationary point found.
 Normal termination of Gaussian 09 at Mon Jan 27 15:07:24 2020.
