 Gaussian 09, Revision D.01,
 Gaussian 09:  ES64L-G09RevD.01 24-Apr-2013

 -----------------------------
 # b3lyp 6-31G(2df,p) opt Freq
 -----------------------------

 -----
 titel
 -----
 Symbolic Z-matrix:
 Charge =  0 Multiplicity = 1

 SCF Done:  E(RB3LYP) =  -423.182241769     A.U. after   12 cycles
 Optimization completed.
    -- Stationary point found.
 Normal termination of Gaussian 09 at Mon Jan 27 18:48:52 2020.

 ----------------------------------------------------------------------
 #N Geom=AllCheck Guess=TCheck SCRF=Check GenChk RB3LYP/6-31G(2df,p) Fr
 eq
 ----------------------------------------------------------------------

 Structure from the checkpoint file:  "/scratch/puck/g09_6d42bbf8-631a-4caa-a396-0d3738797dd9/Gau-183268.chk"
 -----
 titel
 -----
 Charge =  0 Multiplicity = 1

                         Standard orientation:
 ---------------------------------------------------------------------
 Center     Atomic      Atomic             Coordinates (Angstroms)
 Number     Number       Type             X           Y           Z
 ---------------------------------------------------------------------
      1          6           0       -2.307353    0.106192    0.500084
      2          6           0       -0.857521    0.008678    0.060542
      3          6           0       -0.506985   -1.268995   -0.728580
      4          8           0        0.916655   -1.392610   -0.648220
      5          6           0        1.328203   -0.780727    0.551423
      6          6           0        1.368301    0.732669    0.580730
      7          6           0        0.845941    1.447945   -0.656424
      8          8           0       -0.548992    1.157427   -0.739692
      9          6           0        0.203258   -0.021391    1.180373
     10          1           0       -2.468671    1.028867    1.063242
     11          1           0       -2.969702    0.121914   -0.370457
     12          1           0       -2.583654   -0.745087    1.128829
     13          1           0       -0.989427   -2.152167   -0.282444
     14          1           0       -0.789947   -1.191333   -1.781115
     15          1           0        2.051574   -1.358913    1.116304
     16          1           0        2.103230    1.223353    1.208740
     17          1           0        0.965754    2.533772   -0.573068
     18          1           0        1.360325    1.107189   -1.564686
     19          1           0       -0.063849   -0.032357    2.229064
 ---------------------------------------------------------------------

 SCF Done:  E(RB3LYP) =  -423.182241769     A.U. after    1 cycles

 The electronic state is 1-A.
 Alpha  occ. eigenvalues --  -19.14121 -19.13078 -10.24084 -10.23526 -10.22465
 Alpha  occ. eigenvalues --  -10.22194 -10.19311 -10.19132 -10.17969  -1.05454
 Alpha  occ. eigenvalues --   -1.01645  -0.85191  -0.78454  -0.69167  -0.68426
 Alpha  occ. eigenvalues --   -0.59923  -0.57709  -0.56992  -0.52489  -0.47669
 Alpha  occ. eigenvalues --   -0.45324  -0.44782  -0.43171  -0.41983  -0.41876
 Alpha  occ. eigenvalues --   -0.40273  -0.38166  -0.35421  -0.33162  -0.32717
 Alpha  occ. eigenvalues --   -0.31269  -0.28346  -0.24843  -0.23505
 Alpha virt. eigenvalues --    0.08431   0.09902   0.10099   0.12461   0.13347
 Alpha virt. eigenvalues --    0.14045   0.15677   0.15779   0.16740   0.17851
 Alpha virt. eigenvalues --    0.18035   0.18536   0.19109   0.20406   0.22444

 Mulliken charges:
               1
     1  C   -0.465199
     2  C    0.359623
     3  C   -0.102834
     4  O   -0.265480
     5  C    0.086554
     6  C   -0.112872
     7  C   -0.102163
     8  O   -0.299153
     9  C   -0.166538
    10  H    0.128516
    11  H    0.129220
    12  H    0.117910
    13  H    0.086537
    14  H    0.115603
    15  H    0.097227
    16  H    0.092634
    17  H    0.102226
    18  H    0.107758
    19  H    0.090430
 Sum of Mulliken charges =   0.00000

 Dipole moment (field-independent basis, Debye):
    X=             -0.1326    Y=              0.0420    Z=              1.7565  Tot=              1.7620
 Quadrupole moment (field-independent basis, Debye-Ang):
   XX=            -51.2776   YY=            -54.5595   ZZ=            -52.1891
   XY=              4.0304   XZ=              1.3965   YZ=             -0.3124

  Exact polarizability:  79.060   4.898  72.830   1.136  -0.693  67.613
 Approx polarizability: 109.741   4.184 107.053   0.244  -0.812 102.094

                      1                      2                      3
                      A                      A                      A
 Frequencies --    151.1999               200.9098               232.0922
 Red. masses --      2.9300                 1.0385                 3.2312
 Frc consts  --      0.0395                 0.0247                 0.1026
 IR Inten    --      3.3811                 0.1082                 4.4438

                      4                      5                      6
                      A                      A                      A
 Frequencies --    273.1519               329.1604               413.9738
 Red. masses --      2.5353                 2.6553                 2.4493
 Frc consts  --      0.1115                 0.1695                 0.2473
 IR Inten    --      0.7326                 1.6527                 1.6574

                      7                      8                      9
                      A                      A                      A
 Frequencies --    506.1331               596.8137               615.9029
 Red. masses --      3.0907                 4.1427                 5.5352
 Frc consts  --      0.4665                 0.8694                 1.2371
 IR Inten    --      1.3715                 2.1936                 3.4647

                     10                     11                     12
                      A                      A                      A
 Frequencies --    721.6076               737.9622               786.1728
 Red. masses --      5.8313                 4.5825                 1.9937
 Frc consts  --      1.7890                 1.4703                 0.7260
 IR Inten    --      5.3664                 1.8127                15.7315

                     13                     14                     15
                      A                      A                      A
 Frequencies --    806.0905               820.6509               865.7931
 Red. masses --      1.9825                 3.0810                 2.6661
 Frc consts  --      0.7590                 1.2225                 1.1775
 IR Inten    --      7.4790                 7.9035                18.7203

                     16                     17                     18
                      A                      A                      A
 Frequencies --    907.1730               955.1110               966.7087
 Red. masses --      1.8329                 1.4968                 2.9831
 Frc consts  --      0.8887                 0.8045                 1.6425
 IR Inten    --      1.7469                19.1870                 4.8185

                     19                     20                     21
                      A                      A                      A
 Frequencies --    992.4653              1013.5870              1030.8284
 Red. masses --      1.5360                 1.8444                 2.4311
 Frc consts  --      0.8914                 1.1164                 1.5220
 IR Inten    --      0.4903                 8.3499                16.7168

                     22                     23                     24
                      A                      A                      A
 Frequencies --   1057.6050              1069.4023              1097.7708
 Red. masses --      2.5621                 3.2173                 1.5706
 Frc consts  --      1.6885                 2.1678                 1.1151
 IR Inten    --     39.9996                21.1201                24.9994

                     25                     26                     27
                      A                      A                      A
 Frequencies --   1128.1924              1147.9156              1168.5740
 Red. masses --      2.5715                 1.8600                 2.0850
 Frc consts  --      1.9285                 1.4441                 1.6775
 IR Inten    --     58.0585                24.2022                27.3313

                     28                     29                     30
                      A                      A                      A
 Frequencies --   1199.3031              1212.8852              1238.3494
 Red. masses --      2.2505                 2.6420                 1.1288
 Frc consts  --      1.9072                 2.2899                 1.0199
 IR Inten    --     12.1453                15.5345                 0.7275

                     31                     32                     33
                      A                      A                      A
 Frequencies --   1242.1203              1292.3473              1329.3740
 Red. masses --      1.2602                 1.6993                 1.4588
 Frc consts  --      1.1455                 1.6722                 1.5189
 IR Inten    --     10.5276                10.6794                 6.1759

                     34                     35                     36
                      A                      A                      A
 Frequencies --   1363.5859              1388.0272              1406.6788
 Red. masses --      2.0308                 1.5250                 1.6497
 Frc consts  --      2.2247                 1.7311                 1.9233
 IR Inten    --     16.3850                 1.2116                 6.4883

                     37                     38                     39
                      A                      A                      A
 Frequencies --   1411.2473              1483.2998              1494.6232
 Red. masses --      1.4635                 1.0519                 1.0704
 Frc consts  --      1.7173                 1.3636                 1.4089
 IR Inten    --      8.7150                 2.3553                 0.6974

                     40                     41                     42
                      A                      A                      A
 Frequencies --   1499.6158              1518.8715              2987.1424
 Red. masses --      1.0793                 1.0897                 1.0691
 Frc consts  --      1.4300                 1.4812                 5.6205
 IR Inten    --      2.8349                 0.4027                65.7677

                     43                     44                     45
                      A                      A                      A
 Frequencies --   3015.2589              3045.3378              3061.2569
 Red. masses --      1.0610                 1.0352                 1.1034
 Frc consts  --      5.6833                 5.6562                 6.0921
 IR Inten    --     62.9100                18.4014                35.8575

                     46                     47                     48
                      A                      A                      A
 Frequencies --   3103.6407              3116.8568              3124.7736
 Red. masses --      1.0951                 1.1015                 1.1022
 Frc consts  --      6.2151                 6.3045                 6.3406
 IR Inten    --     16.1714                20.1495                16.5806

                     49                     50                     51
                      A                      A                      A
 Frequencies --   3165.8133              3177.8046              3195.0623
 Red. masses --      1.0900                 1.0903                 1.0960
 Frc consts  --      6.4366                 6.4873                 6.5918
 IR Inten    --     17.0798                18.1733                11.2770

 - Thermochemistry -
 -------------------
 Temperature   298.150 Kelvin.  Pressure   1.00000 Atm.
 Atom     1 has atomic number  6 and mass  12.00000

 Molecular mass:   126.06808 amu.
 Principal axes and moments of inertia in atomic units:
                           1         2         3
     Eigenvalues --   713.55070 903.506671111.38002
           X            0.99402   0.10891  -0.00756
           Y           -0.10896   0.99402  -0.00661
           Z            0.00679   0.00739   0.99995
 This molecule is an asymmetric top.
 Rotational symmetry number  1.
 Warning -- assumption of classical behavior for rotation
           may cause significant error
 Rotational temperatures (Kelvin)      0.12138     0.09586     0.07793
 Rotational constants (GHZ):           2.52924     1.99749     1.62387
 Zero-point vibrational energy     422677.9 (Joules/Mol)
                                  101.02244 (Kcal/Mol)
 Warning -- explicit consideration of   9 degrees of freedom as
           vibrations may cause significant error
 Vibrational temperatures:    217.54   289.06   333.93   393.00   473.59
          (Kelvin)            595.62   728.21   858.68   886.15  1038.23
                             1061.76  1131.13  1159.78  1180.73  1245.68
                             1305.22  1374.19  1390.88  1427.93  1458.32
                             1483.13  1521.66  1538.63  1579.45  1623.22
                             1651.59  1681.32  1725.53  1745.07  1781.71
                             1787.13  1859.40  1912.67  1961.89  1997.06
                             2023.89  2030.47  2134.13  2150.43  2157.61
                             2185.31  4297.83  4338.28  4381.56  4404.46
                             4465.44  4484.46  4495.85  4554.89  4572.15
                             4596.98

 Zero-point correction=                           0.160990 (Hartree/Particle)
 Thermal correction to Energy=                    0.168221
 Thermal correction to Enthalpy=                  0.169165
 Thermal correction to Gibbs Free Energy=         0.129721
 Sum of electronic and zero-point Energies=           -423.021252
 Sum of electronic and thermal Energies=              -423.014021
 Sum of electronic and thermal Enthalpies=            -423.013077
 Sum of electronic and thermal Free Energies=         -423.052521

                     E (Thermal)             CV                S
                      KCal/Mol        Cal/Mol-Kelvin    Cal/Mol-Kelvin
 Total                  105.560             29.418             83.016
 Electronic               0.000              0.000              0.000
 Translational            0.889              2.981             40.409
 Rotational               0.889              2.981             28.062
 Vibrational            103.783             23.457             14.546
 Vibration     1          0.619              1.901              2.657
 Vibration     2          0.638              1.839              2.125
 Vibration     3          0.653              1.792              1.863
 Vibration     4          0.676              1.723              1.576
 Vibration     5          0.712              1.617              1.264
 Vibration     6          0.778              1.440              0.913
 Vibration     7          0.861              1.236              0.643
 Vibration     8          0.955              1.039              0.455
 Vibration     9          0.975              0.998              0.423

 Optimization completed.
    -- Stationary point found.
 Normal termination of Gaussian 09 at Mon Jan 27 19:32:54 2020.
