 Gaussian 09, Revision D.01,
 Gaussian 09:  ES64L-G09RevD.01 24-Apr-2013

 -----------------------------
 # b3lyp 6-31G(2df,p) opt Freq
 -----------------------------

 -----
 titel
 -----
 Symbolic Z-matrix:
 Charge =  0 Multiplicity = 1

 SCF Done:  E(RB3LYP) =  -423.122412986     A.U. after   12 cycles
 Optimization completed.
    -- Stationary point found.
 Normal termination of Gaussian 09 at Tue Jan 28 08:23:46 2020.

 ----------------------------------------------------------------------
 #N Geom=AllCheck Guess=TCheck SCRF=Check GenChk RB3LYP/6-31G(2df,p) Fr
 eq
 ----------------------------------------------------------------------

 Structure from the checkpoint file:  "/scratch/puck/g09_7ac30c51-3d9c-4ad4-b81e-c21f033fc4b6/Gau-81407.chk"
 -----
 titel
 -----
 Charge =  0 Multiplicity = 1

                         Standard orientation:
 ---------------------------------------------------------------------
 Center     Atomic      Atomic             Coordinates (Angstroms)
 Number     Number       Type             X           Y           Z
 ---------------------------------------------------------------------
      1          8           0       -2.508006   -0.813789   -0.181801
      2          6           0       -1.481133   -0.522905    0.744920
      3          6           0       -0.402963    0.346808    0.111923
      4          8           0       -1.048516    1.495881   -0.456554
      5          6           0        0.863928    0.717712    0.875316
      6          6           0        1.918986   -0.368128    0.587927
      7          6           0        1.283553   -1.405679   -0.337549
      8          6           0        0.546233   -0.207734   -0.989405
      9          6           0        1.671043    0.741295   -0.399862
     10          1           0       -2.660116    0.015577   -0.653538
     11          1           0       -1.873908    0.005706    1.634672
     12          1           0       -1.074977   -1.475133    1.096586
     13          1           0       -1.275981    2.094928    0.263554
     14          1           0        0.953446    1.370027    1.736540
     15          1           0        2.767387   -0.489259    1.250028
     16          1           0        2.029596   -1.825878   -1.017891
     17          1           0        0.682906   -2.218308    0.083860
     18          1           0        0.192891   -0.237300   -2.016733
     19          1           0        2.313038    1.494683   -0.829862
 ---------------------------------------------------------------------

 SCF Done:  E(RB3LYP) =  -423.122412986     A.U. after    1 cycles

 The electronic state is 1-A.
 Alpha  occ. eigenvalues --  -19.14663 -19.12230 -10.23790 -10.21794 -10.19728
 Alpha  occ. eigenvalues --  -10.19436 -10.19416 -10.19324 -10.18539  -1.03512
 Alpha  occ. eigenvalues --   -0.99943  -0.92715  -0.72964  -0.71831  -0.66845
 Alpha  occ. eigenvalues --   -0.60645  -0.56102  -0.53612  -0.52075  -0.50151
 Alpha  occ. eigenvalues --   -0.46743  -0.45940  -0.44090  -0.41570  -0.40159
 Alpha  occ. eigenvalues --   -0.38134  -0.34586  -0.34214  -0.31507  -0.30692
 Alpha  occ. eigenvalues --   -0.29298  -0.27164  -0.26821  -0.24421
 Alpha virt. eigenvalues --    0.06376   0.10244   0.10625   0.11274   0.11899
 Alpha virt. eigenvalues --    0.13226   0.14382   0.15545   0.15784   0.16531
 Alpha virt. eigenvalues --    0.18371   0.18671   0.20185   0.21147   0.22771

 Mulliken charges:
               1
     1  O   -0.422408
     2  C   -0.117650
     3  C    0.394899
     4  O   -0.494224
     5  C   -0.153540
     6  C   -0.073127
     7  C   -0.250422
     8  C   -0.089497
     9  C   -0.074376
    10  H    0.284119
    11  H    0.065143
    12  H    0.109328
    13  H    0.280170
    14  H    0.080100
    15  H    0.087539
    16  H    0.102415
    17  H    0.097250
    18  H    0.081167
    19  H    0.093113
 Sum of Mulliken charges =   0.00000

 Dipole moment (field-independent basis, Debye):
    X=              1.5038    Y=              1.4971    Z=              1.2118  Tot=              2.4436
 Quadrupole moment (field-independent basis, Debye-Ang):
   XX=            -55.1509   YY=            -52.2000   ZZ=            -51.7776
   XY=             -4.5114   XZ=             -0.9217   YZ=              2.2208

  Exact polarizability:  80.120  -2.534  72.751   0.184   1.972  68.774
 Approx polarizability: 108.785  -3.605 110.319   1.425   0.807 109.009

                      1                      2                      3
                      A                      A                      A
 Frequencies --     98.9329               162.7546               248.7602
 Red. masses --      4.3348                 3.7819                 3.2388
 Frc consts  --      0.0250                 0.0590                 0.1181
 IR Inten    --      6.4855                 1.1593                 3.2103

                      4                      5                      6
                      A                      A                      A
 Frequencies --    284.8876               329.8285               392.5782
 Red. masses --      1.3502                 2.2448                 3.1733
 Frc consts  --      0.0646                 0.1439                 0.2881
 IR Inten    --     12.6569                35.6853                 6.9882

                      7                      8                      9
                      A                      A                      A
 Frequencies --    426.0265               473.3892               516.0620
 Red. masses --      2.8441                 2.1268                 1.5265
 Frc consts  --      0.3041                 0.2808                 0.2395
 IR Inten    --      2.5365                 7.6978                78.1257

                     10                     11                     12
                      A                      A                      A
 Frequencies --    539.7351               691.3990               753.2076
 Red. masses --      2.3002                 3.3687                 3.9424
 Frc consts  --      0.3948                 0.9488                 1.3178
 IR Inten    --     66.3580                17.6024                 1.3684

                     13                     14                     15
                      A                      A                      A
 Frequencies --    789.0716               802.2729               818.7057
 Red. masses --      1.8425                 1.7120                 1.9738
 Frc consts  --      0.6759                 0.6492                 0.7795
 IR Inten    --     11.1005                 5.0557                 7.8474

                     16                     17                     18
                      A                      A                      A
 Frequencies --    858.9322               904.0794               936.1422
 Red. masses --      1.8719                 2.0130                 1.9170
 Frc consts  --      0.8137                 0.9694                 0.9898
 IR Inten    --      5.4798                27.7786                 1.6729

                     19                     20                     21
                      A                      A                      A
 Frequencies --    946.2727               997.1285              1000.6546
 Red. masses --      2.1860                 1.6019                 1.9994
 Frc consts  --      1.1533                 0.9384                 1.1796
 IR Inten    --     11.8487                 2.4483                 5.9240

                     22                     23                     24
                      A                      A                      A
 Frequencies --   1028.1707              1035.2389              1052.3996
 Red. masses --      1.4852                 1.6082                 2.1740
 Frc consts  --      0.9251                 1.0155                 1.4186
 IR Inten    --      0.6976                 3.9722                 3.3917

                     25                     26                     27
                      A                      A                      A
 Frequencies --   1063.2070              1096.0401              1117.6600
 Red. masses --      2.9311                 2.3338                 2.3872
 Frc consts  --      1.9522                 1.6519                 1.7569
 IR Inten    --     63.2417                53.3099                38.8760

                     28                     29                     30
                      A                      A                      A
 Frequencies --   1128.9077              1157.1712              1179.7782
 Red. masses --      1.4644                 1.6279                 1.6546
 Frc consts  --      1.0996                 1.2843                 1.3569
 IR Inten    --      5.3421                 0.3245                 6.9968

                     31                     32                     33
                      A                      A                      A
 Frequencies --   1203.2962              1209.9265              1225.8450
 Red. masses --      2.7391                 1.3595                 1.4241
 Frc consts  --      2.3367                 1.1726                 1.2609
 IR Inten    --     15.3187                24.0703                30.3381

                     34                     35                     36
                      A                      A                      A
 Frequencies --   1274.0457              1315.2970              1339.0723
 Red. masses --      1.6339                 1.6145                 2.3181
 Frc consts  --      1.5626                 1.6457                 2.4490
 IR Inten    --      6.6981                31.7857                 6.4729

                     37                     38                     39
                      A                      A                      A
 Frequencies --   1356.8114              1389.6118              1444.9727
 Red. masses --      1.7757                 1.7746                 1.3336
 Frc consts  --      1.9260                 2.0191                 1.6406
 IR Inten    --     29.6707                 5.3753                57.7937

                     40                     41                     42
                      A                      A                      A
 Frequencies --   1494.6786              1517.9749              2920.8302
 Red. masses --      1.0984                 1.1010                 1.0741
 Frc consts  --      1.4458                 1.4947                 5.3988
 IR Inten    --      4.1714                 0.4623                78.3499

                     43                     44                     45
                      A                      A                      A
 Frequencies --   3044.1242              3089.5376              3098.6002
 Red. masses --      1.0586                 1.0898                 1.1019
 Frc consts  --      5.7798                 6.1291                 6.2334
 IR Inten    --     45.0668                32.1401                27.4686

                     46                     47                     48
                      A                      A                      A
 Frequencies --   3155.6911              3177.0587              3192.5689
 Red. masses --      1.0913                 1.0912                 1.0918
 Frc consts  --      6.4030                 6.4893                 6.5566
 IR Inten    --     19.1519                12.6771                23.2357

                     49                     50                     51
                      A                      A                      A
 Frequencies --   3235.0473              3764.6239              3794.8872
 Red. masses --      1.0995                 1.0648                 1.0661
 Frc consts  --      6.7798                 8.8915                 9.0461
 IR Inten    --      8.4830                35.1102                17.4443

 - Thermochemistry -
 -------------------
 Temperature   298.150 Kelvin.  Pressure   1.00000 Atm.
 Atom     1 has atomic number  8 and mass  15.99491

 Molecular mass:   126.06808 amu.
 Principal axes and moments of inertia in atomic units:
                           1         2         3
     Eigenvalues --   581.831381223.080311420.46250
           X            0.99983  -0.01633  -0.00887
           Y            0.01658   0.99944   0.02908
           Z            0.00839  -0.02922   0.99954
 This molecule is an asymmetric top.
 Rotational symmetry number  1.
 Warning -- assumption of classical behavior for rotation
           may cause significant error
 Rotational temperatures (Kelvin)      0.14886     0.07082     0.06098
 Rotational constants (GHZ):           3.10183     1.47557     1.27053
 Zero-point vibrational energy     419135.0 (Joules/Mol)
                                  100.17566 (Kcal/Mol)
 Warning -- explicit consideration of  10 degrees of freedom as
           vibrations may cause significant error
 Vibrational temperatures:    142.34   234.17   357.91   409.89   474.55
          (Kelvin)            564.83   612.96   681.10   742.50   776.56
                              994.77  1083.70  1135.30  1154.29  1177.93
                             1235.81  1300.77  1346.90  1361.47  1434.64
                             1439.72  1479.31  1489.48  1514.17  1529.72
                             1576.96  1608.06  1624.24  1664.91  1697.44
                             1731.27  1740.81  1763.72  1833.07  1892.42
                             1926.62  1952.15  1999.34  2078.99  2150.51
                             2184.02  4202.42  4379.81  4445.15  4458.19
                             4540.33  4571.07  4593.39  4654.51  5416.45
                             5459.99

 Zero-point correction=                           0.159640 (Hartree/Particle)
 Thermal correction to Energy=                    0.167467
 Thermal correction to Enthalpy=                  0.168411
 Thermal correction to Gibbs Free Energy=         0.127621
 Sum of electronic and zero-point Energies=           -422.962773
 Sum of electronic and thermal Energies=              -422.954946
 Sum of electronic and thermal Enthalpies=            -422.954001
 Sum of electronic and thermal Free Energies=         -422.994792

                     E (Thermal)             CV                S
                      KCal/Mol        Cal/Mol-Kelvin    Cal/Mol-Kelvin
 Total                  105.087             31.757             85.851
 Electronic               0.000              0.000              0.000
 Translational            0.889              2.981             40.409
 Rotational               0.889              2.981             28.404
 Vibrational            103.310             25.795             17.038
 Vibration     1          0.604              1.950              3.475
 Vibration     2          0.623              1.888              2.518
 Vibration     3          0.662              1.765              1.739
 Vibration     4          0.683              1.702              1.504
 Vibration     5          0.713              1.616              1.261
 Vibration     6          0.760              1.486              0.990
 Vibration     7          0.788              1.414              0.872
 Vibration     8          0.830              1.309              0.728
 Vibration     9          0.871              1.214              0.619
 Vibration    10          0.895              1.162              0.566

 Normal termination of Gaussian 09 at Tue Jan 28 09:14:56 2020.
