 Gaussian 09, Revision D.01,
 Gaussian 09:  ES64L-G09RevD.01 24-Apr-2013

 -----------------------------
 # b3lyp 6-31G(2df,p) opt Freq
 -----------------------------

 -----
 titel
 -----
 Symbolic Z-matrix:
 Charge =  0 Multiplicity = 1

 SCF Done:  E(RB3LYP) =  -423.160621125     A.U. after   13 cycles
 Optimization completed.
    -- Stationary point found.
 Normal termination of Gaussian 09 at Tue Jan 28 02:57:16 2020.

 ----------------------------------------------------------------------
 #N Geom=AllCheck Guess=TCheck SCRF=Check GenChk RB3LYP/6-31G(2df,p) Fr
 eq
 ----------------------------------------------------------------------

 Structure from the checkpoint file:  "/scratch/puck/g09_4ac94c2b-5817-4c6e-8dd2-d53c914390b8/Gau-44281.chk"
 -----
 titel
 -----
 Charge =  0 Multiplicity = 1

                         Standard orientation:
 ---------------------------------------------------------------------
 Center     Atomic      Atomic             Coordinates (Angstroms)
 Number     Number       Type             X           Y           Z
 ---------------------------------------------------------------------
      1          8           0       -1.901561   -1.516169   -0.449307
      2          6           0       -1.457540   -0.469462    0.407835
      3          6           0       -0.057430   -0.747838    1.000459
      4          6           0        0.917788   -0.089313    0.022475
      5          6           0        2.016243   -0.810019   -0.636992
      6          8           0        2.270112    0.093715    0.443654
      7          6           0        0.186345    1.044898   -0.639897
      8          6           0       -0.564319    1.972471    0.286082
      9          6           0       -1.294779    0.832959   -0.369838
     10          1           0       -1.298884   -1.554553   -1.200502
     11          1           0       -2.224835   -0.405617    1.185174
     12          1           0        0.055785   -0.283596    1.985751
     13          1           0        0.107118   -1.820174    1.122112
     14          1           0        2.183053   -1.864043   -0.415099
     15          1           0        2.375804   -0.481890   -1.612496
     16          1           0        0.556497    1.428195   -1.583433
     17          1           0       -0.356926    1.939479    1.350442
     18          1           0       -0.775509    2.967319   -0.089687
     19          1           0       -2.048360    1.052340   -1.117774
 ---------------------------------------------------------------------

 SCF Done:  E(RB3LYP) =  -423.160621125     A.U. after    1 cycles

 The electronic state is 1-A.
 Alpha  occ. eigenvalues --  -19.14795 -19.13601 -10.24491 -10.23703 -10.23295
 Alpha  occ. eigenvalues --  -10.19827 -10.19618 -10.19399 -10.18424  -1.06947
 Alpha  occ. eigenvalues --   -1.01941  -0.88372  -0.75852  -0.69035  -0.65774
 Alpha  occ. eigenvalues --   -0.62822  -0.58049  -0.55204  -0.52732  -0.49269
 Alpha  occ. eigenvalues --   -0.46851  -0.46542  -0.45359  -0.41390  -0.39627
 Alpha  occ. eigenvalues --   -0.39305  -0.37062  -0.35580  -0.33603  -0.32449
 Alpha  occ. eigenvalues --   -0.30056  -0.28253  -0.26478  -0.25624
 Alpha virt. eigenvalues --    0.07447   0.07596   0.09707   0.10562   0.11214
 Alpha virt. eigenvalues --    0.11955   0.13555   0.14928   0.16531   0.17346
 Alpha virt. eigenvalues --    0.18296   0.18957   0.20408   0.21588   0.22929

 Mulliken charges:
               1
     1  O   -0.436636
     2  C    0.128900
     3  C   -0.360613
     4  C    0.482532
     5  C   -0.272569
     6  O   -0.290622
     7  C   -0.119814
     8  C   -0.309889
     9  C   -0.068140
    10  H    0.277726
    11  H    0.089627
    12  H    0.119076
    13  H    0.114676
    14  H    0.112981
    15  H    0.111320
    16  H    0.088490
    17  H    0.121254
    18  H    0.118088
    19  H    0.093611
 Sum of Mulliken charges =   0.00000

 Dipole moment (field-independent basis, Debye):
    X=             -0.2377    Y=              0.3477    Z=             -1.2747  Tot=              1.3425
 Quadrupole moment (field-independent basis, Debye-Ang):
   XX=            -61.2813   YY=            -52.5608   ZZ=            -49.3803
   XY=             -5.7825   XZ=             -3.4342   YZ=              0.0841

  Exact polarizability:  78.350  -5.116  76.409  -4.836   1.253  68.143
 Approx polarizability: 111.963  -2.839 108.333  -4.422   6.247 105.452

                      1                      2                      3
                      A                      A                      A
 Frequencies --     88.4081               166.1000               285.8102
 Red. masses --      4.2200                 3.3968                 2.4911
 Frc consts  --      0.0194                 0.0552                 0.1199
 IR Inten    --      2.7385                 0.9428                10.7608

                      4                      5                      6
                      A                      A                      A
 Frequencies --    294.8313               332.2500               348.2663
 Red. masses --      1.4129                 3.0568                 2.3212
 Frc consts  --      0.0724                 0.1988                 0.1659
 IR Inten    --     36.1155                26.0496                22.1422

                      7                      8                      9
                      A                      A                      A
 Frequencies --    408.1886               422.6117               506.0459
 Red. masses --      2.5332                 2.9352                 3.8208
 Frc consts  --      0.2487                 0.3089                 0.5765
 IR Inten    --      3.1265                 0.2320                 0.8285

                     10                     11                     12
                      A                      A                      A
 Frequencies --    545.9747               702.4911               754.8560
 Red. masses --      3.7284                 3.0036                 2.8797
 Frc consts  --      0.6548                 0.8733                 0.9668
 IR Inten    --     11.4865                 4.7586                 3.1005

                     13                     14                     15
                      A                      A                      A
 Frequencies --    799.8473               836.2590               844.3656
 Red. masses --      2.0769                 1.7261                 3.6345
 Frc consts  --      0.7828                 0.7112                 1.5267
 IR Inten    --     17.5147                14.1701                19.9443

                     16                     17                     18
                      A                      A                      A
 Frequencies --    894.3148               907.9071               929.2378
 Red. masses --      2.2431                 1.7724                 2.4112
 Frc consts  --      1.0570                 0.8608                 1.2267
 IR Inten    --     12.3296                 3.7191                 3.3473

                     19                     20                     21
                      A                      A                      A
 Frequencies --    967.7625               986.7844              1000.4457
 Red. masses --      2.1393                 2.1130                 2.6750
 Frc consts  --      1.1805                 1.2123                 1.5775
 IR Inten    --      4.2307                 0.2134                 5.2095

                     22                     23                     24
                      A                      A                      A
 Frequencies --   1036.6309              1068.6453              1080.0576
 Red. masses --      1.7576                 1.2884                 1.9390
 Frc consts  --      1.1128                 0.8669                 1.3326
 IR Inten    --     35.2286                 2.5369                60.8424

                     25                     26                     27
                      A                      A                      A
 Frequencies --   1105.4363              1113.8056              1128.7926
 Red. masses --      1.5046                 1.3165                 1.2732
 Frc consts  --      1.0833                 0.9622                 0.9558
 IR Inten    --     31.8367                11.1672                 1.9104

                     28                     29                     30
                      A                      A                      A
 Frequencies --   1161.6462              1179.9156              1198.7610
 Red. masses --      1.3749                 1.3087                 1.7184
 Frc consts  --      1.0931                 1.0735                 1.4549
 IR Inten    --      1.0096                13.4232                 0.6131

                     31                     32                     33
                      A                      A                      A
 Frequencies --   1237.6219              1262.1371              1287.9054
 Red. masses --      2.0431                 1.5483                 1.5395
 Frc consts  --      1.8438                 1.4532                 1.5045
 IR Inten    --      2.3571                 6.7351                 5.2896

                     34                     35                     36
                      A                      A                      A
 Frequencies --   1315.4513              1335.4379              1362.5869
 Red. masses --      2.2607                 1.6467                 1.9728
 Frc consts  --      2.3048                 1.7303                 2.1580
 IR Inten    --      5.6862                 8.0986                 1.5642

                     37                     38                     39
                      A                      A                      A
 Frequencies --   1430.6160              1437.8567              1474.1155
 Red. masses --      1.2396                 2.0838                 1.2058
 Frc consts  --      1.4947                 2.5383                 1.5438
 IR Inten    --     65.8538                26.4208                 3.0084

                     40                     41                     42
                      A                      A                      A
 Frequencies --   1497.5892              1531.7490              3053.9343
 Red. masses --      1.1710                 1.4341                 1.0676
 Frc consts  --      1.5474                 1.9825                 5.8666
 IR Inten    --      6.2107                 6.1423                 6.4375

                     43                     44                     45
                      A                      A                      A
 Frequencies --   3070.8392              3071.3949              3115.9822
 Red. masses --      1.0505                 1.0834                 1.0996
 Frc consts  --      5.8367                 6.0216                 6.2903
 IR Inten    --     33.7359                37.5018                 9.8973

                     46                     47                     48
                      A                      A                      A
 Frequencies --   3135.2875              3156.0300              3174.0025
 Red. masses --      1.0546                 1.1190                 1.0890
 Frc consts  --      6.1081                 6.5670                 6.4640
 IR Inten    --     14.3158                23.3253                11.2241

                     49                     50                     51
                      A                      A                      A
 Frequencies --   3181.9846              3218.7367              3798.3271
 Red. masses --      1.0948                 1.1151                 1.0658
 Frc consts  --      6.5310                 6.8069                 9.0597
 IR Inten    --      9.4826                 9.5146                 9.3302

 - Thermochemistry -
 -------------------
 Temperature   298.150 Kelvin.  Pressure   1.00000 Atm.
 Atom     1 has atomic number  8 and mass  15.99491

 Molecular mass:   126.06808 amu.
 Principal axes and moments of inertia in atomic units:
                           1         2         3
     Eigenvalues --   702.792991147.032991498.17302
           X            0.99828  -0.05496  -0.02022
           Y            0.05485   0.99848  -0.00618
           Z            0.02053   0.00506   0.99978
 This molecule is an asymmetric top.
 Rotational symmetry number  1.
 Warning -- assumption of classical behavior for rotation
           may cause significant error
 Rotational temperatures (Kelvin)      0.12324     0.07551     0.05781
 Rotational constants (GHZ):           2.56796     1.57340     1.20463
 Zero-point vibrational energy     420164.6 (Joules/Mol)
                                  100.42175 (Kcal/Mol)
 Warning -- explicit consideration of  10 degrees of freedom as
           vibrations may cause significant error
 Vibrational temperatures:    127.20   238.98   411.22   424.20   478.03
          (Kelvin)            501.08   587.29   608.04   728.09   785.53
                             1010.73  1086.07  1150.80  1203.19  1214.85
                             1286.72  1306.27  1336.96  1392.39  1419.76
                             1439.42  1491.48  1537.54  1553.96  1590.47
                             1602.52  1624.08  1671.35  1697.63  1724.75
                             1780.66  1815.93  1853.01  1892.64  1921.39
                             1960.46  2058.33  2068.75  2120.92  2154.69
                             2203.84  4393.92  4418.25  4419.05  4483.20
                             4510.97  4540.82  4566.68  4578.16  4631.04
                             5464.94

 Zero-point correction=                           0.160032 (Hartree/Particle)
 Thermal correction to Energy=                    0.167847
 Thermal correction to Enthalpy=                  0.168791
 Thermal correction to Gibbs Free Energy=         0.127874
 Sum of electronic and zero-point Energies=           -423.000589
 Sum of electronic and thermal Energies=              -422.992774
 Sum of electronic and thermal Enthalpies=            -422.991830
 Sum of electronic and thermal Free Energies=         -423.032748

                     E (Thermal)             CV                S
                      KCal/Mol        Cal/Mol-Kelvin    Cal/Mol-Kelvin
 Total                  105.326             31.362             86.118
 Electronic               0.000              0.000              0.000
 Translational            0.889              2.981             40.409
 Rotational               0.889              2.981             28.581
 Vibrational            103.548             25.400             17.129
 Vibration     1          0.601              1.957              3.695
 Vibration     2          0.624              1.884              2.479
 Vibration     3          0.684              1.700              1.499
 Vibration     4          0.689              1.683              1.446
 Vibration     5          0.714              1.611              1.249
 Vibration     6          0.726              1.579              1.174
 Vibration     7          0.773              1.452              0.933
 Vibration     8          0.785              1.421              0.883
 Vibration     9          0.861              1.237              0.643
 Vibration    10          0.901              1.149              0.553

 Optimization completed.
    -- Stationary point found.
 Normal termination of Gaussian 09 at Tue Jan 28 04:53:35 2020.
