 Gaussian 09, Revision D.01,
 Gaussian 09:  ES64L-G09RevD.01 24-Apr-2013

 -----------------------------
 # b3lyp 6-31G(2df,p) opt Freq
 -----------------------------

 -----
 titel
 -----
 Symbolic Z-matrix:
 Charge =  0 Multiplicity = 1

 SCF Done:  E(RB3LYP) =  -423.111197810     A.U. after   13 cycles
 Optimization completed.
    -- Stationary point found.
 Normal termination of Gaussian 09 at Tue Jan 28 12:48:21 2020.

 ----------------------------------------------------------------------
 #N Geom=AllCheck Guess=TCheck SCRF=Check GenChk RB3LYP/6-31G(2df,p) Fr
 eq
 ----------------------------------------------------------------------

 Structure from the checkpoint file:  "/scratch/puck/g09_27f8857b-0fa9-41dc-b537-98b93607c1f1/Gau-10620.chk"
 -----
 titel
 -----
 Charge =  0 Multiplicity = 1

                         Standard orientation:
 ---------------------------------------------------------------------
 Center     Atomic      Atomic             Coordinates (Angstroms)
 Number     Number       Type             X           Y           Z
 ---------------------------------------------------------------------
      1          8           0       -3.051169   -0.828224   -0.055262
      2          6           0       -2.291922    0.335434   -0.344034
      3          6           0       -0.801391    0.078517   -0.312202
      4          6           0       -0.123961    0.209562    1.030648
      5          6           0        0.094783    1.257662   -0.076267
      6          6           0        1.580494    0.838406   -0.146241
      7          8           0        1.921379   -0.220031   -1.076527
      8          6           0        1.855661   -1.221697   -0.025107
      9          6           0        1.375626   -0.171401    0.996890
     10          1           0       -2.749198   -1.163857    0.795264
     11          1           0       -2.599133    0.644252   -1.348663
     12          1           0       -2.543949    1.161475    0.342116
     13          1           0       -0.474223   -0.684331   -1.011694
     14          1           0       -0.702593    0.310917    1.942594
     15          1           0       -0.267876    2.277388   -0.139123
     16          1           0        2.316450    1.645484   -0.132030
     17          1           0        1.171267   -2.041757   -0.270752
     18          1           0        2.850527   -1.631625    0.187769
     19          1           0        1.901301   -0.090811    1.946709
 ---------------------------------------------------------------------

 SCF Done:  E(RB3LYP) =  -423.111197810     A.U. after    1 cycles

 The electronic state is 1-A.
 Alpha  occ. eigenvalues --  -19.13297 -19.13283 -10.23720 -10.23049 -10.22983
 Alpha  occ. eigenvalues --  -10.20347 -10.19743 -10.19608 -10.19488  -1.03791
 Alpha  occ. eigenvalues --   -1.01466  -0.88971  -0.74947  -0.70671  -0.66528
 Alpha  occ. eigenvalues --   -0.61397  -0.57370  -0.53715  -0.51764  -0.49949
 Alpha  occ. eigenvalues --   -0.47675  -0.45631  -0.45138  -0.42894  -0.40645
 Alpha  occ. eigenvalues --   -0.39468  -0.36693  -0.33737  -0.32910  -0.30735
 Alpha  occ. eigenvalues --   -0.29315  -0.26666  -0.25232  -0.24934
 Alpha virt. eigenvalues --    0.06051   0.07598   0.08991   0.10128   0.11223
 Alpha virt. eigenvalues --    0.13016   0.14298   0.15318   0.16395   0.16570
 Alpha virt. eigenvalues --    0.16768   0.18184   0.18713   0.20743   0.22136

 Mulliken charges:
               1
     1  O   -0.417786
     2  C   -0.097663
     3  C   -0.046303
     4  C   -0.096010
     5  C   -0.083618
     6  C    0.099578
     7  O   -0.297500
     8  C   -0.109196
     9  C   -0.084424
    10  H    0.280465
    11  H    0.116546
    12  H    0.081676
    13  H    0.111895
    14  H    0.084961
    15  H    0.084958
    16  H    0.081089
    17  H    0.106141
    18  H    0.103240
    19  H    0.081949
 Sum of Mulliken charges =   0.00000

 Dipole moment (field-independent basis, Debye):
    X=              0.7519    Y=              0.6711    Z=              2.5205  Tot=              2.7145
 Quadrupole moment (field-independent basis, Debye-Ang):
   XX=            -59.6481   YY=            -50.4609   ZZ=            -53.3718
   XY=             -2.1895   XZ=              1.0690   YZ=             -2.0123

  Exact polarizability:  85.166  -2.096  72.951   2.076  -1.760  64.976
 Approx polarizability: 109.066   0.899 111.045   1.005  -3.996 105.233

                      1                      2                      3
                      A                      A                      A
 Frequencies --    100.1098               134.5348               212.4299
 Red. masses --      3.8701                 4.2384                 2.4452
 Frc consts  --      0.0229                 0.0452                 0.0650
 IR Inten    --      0.9249                 1.3210                 2.1768

                      4                      5                      6
                      A                      A                      A
 Frequencies --    223.3525               325.5004               358.4766
 Red. masses --      2.8369                 1.5239                 1.9263
 Frc consts  --      0.0834                 0.0951                 0.1459
 IR Inten    --     11.9143                70.9142                29.3129

                      7                      8                      9
                      A                      A                      A
 Frequencies --    408.3615               460.6109               570.7633
 Red. masses --      2.9595                 3.7164                 3.7664
 Frc consts  --      0.2908                 0.4646                 0.7229
 IR Inten    --      6.7690                14.0166                 1.8309

                     10                     11                     12
                      A                      A                      A
 Frequencies --    699.2602               760.4559               789.9362
 Red. masses --      4.2538                 2.8558                 2.0058
 Frc consts  --      1.2255                 0.9730                 0.7374
 IR Inten    --      4.2071                 4.4123                 0.8794

                     13                     14                     15
                      A                      A                      A
 Frequencies --    848.9184               870.9091               881.7781
 Red. masses --      2.4022                 1.3654                 1.9519
 Frc consts  --      1.0200                 0.6102                 0.8942
 IR Inten    --      1.0826                 7.7066                10.7567

                     16                     17                     18
                      A                      A                      A
 Frequencies --    916.8181               948.4953               972.0488
 Red. masses --      3.0012                 2.4724                 2.8357
 Frc consts  --      1.4863                 1.3105                 1.5787
 IR Inten    --     10.6378                43.4959                 8.4810

                     19                     20                     21
                      A                      A                      A
 Frequencies --    989.6641               997.3302              1024.1403
 Red. masses --      4.9535                 1.7698                 1.3390
 Frc consts  --      2.8585                 1.0372                 0.8275
 IR Inten    --     54.1397                 9.8081                 2.0310

                     22                     23                     24
                      A                      A                      A
 Frequencies --   1048.5333              1061.5325              1073.5259
 Red. masses --      2.9509                 2.3473                 2.6146
 Frc consts  --      1.9115                 1.5584                 1.7753
 IR Inten    --     33.8526                38.6066                41.1430

                     25                     26                     27
                      A                      A                      A
 Frequencies --   1104.7764              1114.8269              1159.2837
 Red. masses --      1.3970                 2.3038                 1.2401
 Frc consts  --      1.0046                 1.6870                 0.9820
 IR Inten    --     16.6708                15.0190                 6.4145

                     28                     29                     30
                      A                      A                      A
 Frequencies --   1168.5858              1194.0019              1215.2337
 Red. masses --      1.5291                 1.7028                 1.6203
 Frc consts  --      1.2303                 1.4303                 1.4099
 IR Inten    --      6.5733                 2.3001                 3.1375

                     31                     32                     33
                      A                      A                      A
 Frequencies --   1223.9476              1267.8228              1279.1849
 Red. masses --      1.3697                 1.5186                 1.3657
 Frc consts  --      1.2089                 1.4381                 1.3166
 IR Inten    --      6.5229                 3.8407                 5.8414

                     34                     35                     36
                      A                      A                      A
 Frequencies --   1295.3799              1327.1533              1350.4439
 Red. masses --      1.5833                 1.4990                 1.4267
 Frc consts  --      1.5653                 1.5556                 1.5330
 IR Inten    --      1.7196                 6.9319                 4.3725

                     37                     38                     39
                      A                      A                      A
 Frequencies --   1369.4980              1419.4008              1437.1557
 Red. masses --      1.3601                 1.3552                 1.8525
 Frc consts  --      1.5030                 1.6087                 2.2543
 IR Inten    --      2.1153                43.9780                35.3859

                     40                     41                     42
                      A                      A                      A
 Frequencies --   1507.0894              1519.4269              2963.4141
 Red. masses --      1.0862                 1.0983                 1.0716
 Frc consts  --      1.4536                 1.4939                 5.5443
 IR Inten    --      1.1171                 0.6999                54.8650

                     43                     44                     45
                      A                      A                      A
 Frequencies --   3018.4530              3065.6579              3072.0982
 Red. masses --      1.0558                 1.1099                 1.0904
 Frc consts  --      5.6677                 6.1458                 6.0634
 IR Inten    --     73.1065                34.4495                29.4767

                     46                     47                     48
                      A                      A                      A
 Frequencies --   3083.6121              3127.5966              3160.7852
 Red. masses --      1.0891                 1.0897                 1.0893
 Frc consts  --      6.1017                 6.2803                 6.4119
 IR Inten    --     45.7415                29.6160                 7.4129

                     49                     50                     51
                      A                      A                      A
 Frequencies --   3162.3996              3176.3883              3811.0298
 Red. masses --      1.0879                 1.0952                 1.0659
 Frc consts  --      6.4103                 6.5102                 9.1211
 IR Inten    --     21.1271                18.4995                10.3434

 - Thermochemistry -
 -------------------
 Temperature   298.150 Kelvin.  Pressure   1.00000 Atm.
 Atom     1 has atomic number  8 and mass  15.99491

 Molecular mass:   126.06808 amu.
 Principal axes and moments of inertia in atomic units:
                           1         2         3
     Eigenvalues --   483.357061681.782551754.58421
           X            0.99984  -0.01548   0.00931
           Y            0.01574   0.99944  -0.02937
           Z           -0.00885   0.02951   0.99953
 This molecule is an asymmetric top.
 Rotational symmetry number  1.
 Warning -- assumption of classical behavior for rotation
           may cause significant error
 Rotational temperatures (Kelvin)      0.17919     0.05150     0.04936
 Rotational constants (GHZ):           3.73376     1.07311     1.02859
 Zero-point vibrational energy     420320.7 (Joules/Mol)
                                  100.45906 (Kcal/Mol)
 Warning -- explicit consideration of   9 degrees of freedom as
           vibrations may cause significant error
 Vibrational temperatures:    144.04   193.57   305.64   321.35   468.32
          (Kelvin)            515.77   587.54   662.72   821.20  1006.08
                             1094.13  1136.54  1221.40  1253.04  1268.68
                             1319.10  1364.67  1398.56  1423.90  1434.93
                             1473.51  1508.60  1527.31  1544.56  1589.52
                             1603.99  1667.95  1681.33  1717.90  1748.45
                             1760.99  1824.11  1840.46  1863.76  1909.48
                             1942.99  1970.40  2042.20  2067.74  2168.36
                             2186.11  4263.69  4342.88  4410.79  4420.06
                             4436.62  4499.91  4547.66  4549.98  4570.11
                             5483.21

 Zero-point correction=                           0.160092 (Hartree/Particle)
 Thermal correction to Energy=                    0.167893
 Thermal correction to Enthalpy=                  0.168837
 Thermal correction to Gibbs Free Energy=         0.127650
 Sum of electronic and zero-point Energies=           -422.951106
 Sum of electronic and thermal Energies=              -422.943305
 Sum of electronic and thermal Enthalpies=            -422.942361
 Sum of electronic and thermal Free Energies=         -422.983548

                     E (Thermal)             CV                S
                      KCal/Mol        Cal/Mol-Kelvin    Cal/Mol-Kelvin
 Total                  105.354             30.552             86.686
 Electronic               0.000              0.000              0.000
 Translational            0.889              2.981             40.409
 Rotational               0.889              2.981             28.746
 Vibrational            103.577             24.591             17.531
 Vibration     1          0.604              1.949              3.452
 Vibration     2          0.613              1.919              2.880
 Vibration     3          0.643              1.822              2.023
 Vibration     4          0.649              1.806              1.932
 Vibration     5          0.710              1.624              1.282
 Vibration     6          0.733              1.558              1.129
 Vibration     7          0.773              1.452              0.932
 Vibration     8          0.818              1.337              0.764
 Vibration     9          0.927              1.094              0.503

 Normal termination of Gaussian 09 at Tue Jan 28 14:50:28 2020.
