 Gaussian 09, Revision D.01,
 Gaussian 09:  ES64L-G09RevD.01 24-Apr-2013

 -----------------------------
 # b3lyp 6-31G(2df,p) opt Freq
 -----------------------------

 -----
 titel
 -----
 Symbolic Z-matrix:
 Charge =  0 Multiplicity = 1

 SCF Done:  E(RB3LYP) =  -423.181088409     A.U. after   14 cycles
 Optimization completed.
    -- Stationary point found.
 Normal termination of Gaussian 09 at Mon Jan 27 17:22:46 2020.

 ----------------------------------------------------------------------
 #N Geom=AllCheck Guess=TCheck SCRF=Check GenChk RB3LYP/6-31G(2df,p) Fr
 eq
 ----------------------------------------------------------------------

 Structure from the checkpoint file:  "/scratch/puck/g09_588a39a6-6d61-4cb9-916b-535266cbadda/Gau-86600.chk"
 -----
 titel
 -----
 Charge =  0 Multiplicity = 1

                         Standard orientation:
 ---------------------------------------------------------------------
 Center     Atomic      Atomic             Coordinates (Angstroms)
 Number     Number       Type             X           Y           Z
 ---------------------------------------------------------------------
      1          6           0        2.574766    0.309322    0.337766
      2          6           0        1.200444   -0.138383   -0.068755
      3          6           0        0.879131   -1.554667   -0.526425
      4          6           0        0.124055   -1.032963    0.641914
      5          6           0       -1.026835   -0.125720    0.181852
      6          6           0       -2.165076   -0.695497   -0.648300
      7          8           0       -1.525349    0.593776    1.302462
      8          6           0        0.083578    0.764853   -0.470972
      9          8           0        0.036594    1.909798   -0.838214
     10          1           0        3.175955    0.570327   -0.539816
     11          1           0        2.524609    1.192514    0.981695
     12          1           0        3.102403   -0.482208    0.879010
     13          1           0        0.390528   -1.739408   -1.478337
     14          1           0        1.669941   -2.263571   -0.300477
     15          1           0        0.194903   -1.443682    1.640576
     16          1           0       -1.809629   -1.322266   -1.470736
     17          1           0       -2.826139   -1.291985   -0.012102
     18          1           0       -2.753005    0.121364   -1.080491
     19          1           0       -1.779900    1.468658    0.984222
 ---------------------------------------------------------------------

 SCF Done:  E(RB3LYP) =  -423.181088409     A.U. after    1 cycles

 The electronic state is 1-A.
 Alpha  occ. eigenvalues --  -19.14287 -19.13219 -10.26296 -10.24557 -10.21341
 Alpha  occ. eigenvalues --  -10.21056 -10.20893 -10.18906 -10.18023  -1.04796
 Alpha  occ. eigenvalues --   -1.02061  -0.90687  -0.75638  -0.72361  -0.68736
 Alpha  occ. eigenvalues --   -0.62044  -0.57551  -0.52537  -0.49788  -0.48940
 Alpha  occ. eigenvalues --   -0.45060  -0.44230  -0.42563  -0.41786  -0.40750
 Alpha  occ. eigenvalues --   -0.39864  -0.39603  -0.37419  -0.36502  -0.33705
 Alpha  occ. eigenvalues --   -0.31468  -0.29216  -0.27182  -0.23232
 Alpha virt. eigenvalues --   -0.01205   0.07718   0.09291   0.09738   0.11573
 Alpha virt. eigenvalues --    0.12317   0.13953   0.14910   0.15802   0.16572
 Alpha virt. eigenvalues --    0.17512   0.18958   0.19617   0.20384   0.22778

 Mulliken charges:
               1
     1  C   -0.497790
     2  C    0.215823
     3  C   -0.346221
     4  C   -0.120264
     5  C    0.306348
     6  C   -0.452483
     7  O   -0.480571
     8  C    0.294983
     9  O   -0.340774
    10  H    0.136077
    11  H    0.137117
    12  H    0.122349
    13  H    0.121988
    14  H    0.127177
    15  H    0.113821
    16  H    0.116042
    17  H    0.128861
    18  H    0.125734
    19  H    0.291782
 Sum of Mulliken charges =   0.00000

 Dipole moment (field-independent basis, Debye):
    X=              0.6523    Y=             -2.2578    Z=              0.0033  Tot=              2.3502
 Quadrupole moment (field-independent basis, Debye-Ang):
   XX=            -49.6437   YY=            -55.1829   ZZ=            -55.3453
   XY=             -2.6433   XZ=              2.2546   YZ=              2.7299

  Exact polarizability:  86.016  -1.453  79.175   0.320  -1.102  64.366
 Approx polarizability: 110.879  -3.185 127.997  -4.061  -8.032 103.249

                      1                      2                      3
                      A                      A                      A
 Frequencies --     80.6476               156.2915               170.5613
 Red. masses --      4.1636                 1.0561                 2.6445
 Frc consts  --      0.0160                 0.0152                 0.0453
 IR Inten    --      7.3044                 0.3580                 6.4477

                      4                      5                      6
                      A                      A                      A
 Frequencies --    197.6367               207.4542               248.0840
 Red. masses --      1.3940                 1.9362                 2.4041
 Frc consts  --      0.0321                 0.0491                 0.0872
 IR Inten    --      1.6516                 0.5981                33.5595

                      7                      8                      9
                      A                      A                      A
 Frequencies --    289.0877               319.5443               339.5656
 Red. masses --      2.2378                 2.0965                 2.5119
 Frc consts  --      0.1102                 0.1261                 0.1706
 IR Inten    --     27.7889                29.6329                20.0174

                     10                     11                     12
                      A                      A                      A
 Frequencies --    380.2020               482.4657               529.3519
 Red. masses --      2.9491                 2.8712                 2.8892
 Frc consts  --      0.2512                 0.3938                 0.4770
 IR Inten    --      0.8162                 2.6726                 2.2053

                     13                     14                     15
                      A                      A                      A
 Frequencies --    569.7903               674.5805               725.7262
 Red. masses --      4.1354                 4.8081                 3.6360
 Frc consts  --      0.7910                 1.2891                 1.1283
 IR Inten    --      0.3890                 2.2379                20.7241

                     16                     17                     18
                      A                      A                      A
 Frequencies --    759.4483               847.1874               855.4793
 Red. masses --      3.5943                 3.9327                 2.0856
 Frc consts  --      1.2214                 1.6630                 0.8993
 IR Inten    --      5.1487                15.3044                 0.4762

                     19                     20                     21
                      A                      A                      A
 Frequencies --    936.0541               952.9025               973.9716
 Red. masses --      1.7396                 2.4668                 1.5877
 Frc consts  --      0.8980                 1.3197                 0.8874
 IR Inten    --     14.5762                67.6261                 8.8437

                     22                     23                     24
                      A                      A                      A
 Frequencies --    979.7659              1015.1663              1075.0871
 Red. masses --      1.3749                 1.3549                 1.4423
 Frc consts  --      0.7776                 0.8227                 0.9822
 IR Inten    --      8.3422                 5.2563                10.5529

                     25                     26                     27
                      A                      A                      A
 Frequencies --   1095.6387              1108.4634              1115.1151
 Red. masses --      1.8266                 1.4758                 1.6177
 Frc consts  --      1.2919                 1.0684                 1.1852
 IR Inten    --     13.1457                26.4638                23.6267

                     28                     29                     30
                      A                      A                      A
 Frequencies --   1179.6412              1190.4677              1266.5968
 Red. masses --      3.4782                 2.4064                 2.5282
 Frc consts  --      2.8517                 2.0093                 2.3897
 IR Inten    --     29.3404                 7.6397                16.3235

                     31                     32                     33
                      A                      A                      A
 Frequencies --   1301.6647              1367.5645              1378.0342
 Red. masses --      2.9656                 1.8089                 2.2624
 Frc consts  --      2.9605                 1.9933                 2.5312
 IR Inten    --     26.9191                22.8765                 2.0635

                     34                     35                     36
                      A                      A                      A
 Frequencies --   1407.9771              1418.3291              1481.7832
 Red. masses --      1.2805                 1.4724                 1.0458
 Frc consts  --      1.4957                 1.7452                 1.3529
 IR Inten    --      9.1218                 0.1926                 4.4968

                     37                     38                     39
                      A                      A                      A
 Frequencies --   1485.8277              1486.8860              1496.1538
 Red. masses --      1.0668                 1.0965                 1.0581
 Frc consts  --      1.3876                 1.4283                 1.3955
 IR Inten    --      1.5793                 3.1062                 7.4954

                     40                     41                     42
                      A                      A                      A
 Frequencies --   1505.0136              1854.9716              3034.5575
 Red. masses --      1.1841                12.6308                 1.0352
 Frc consts  --      1.5803                25.6067                 5.6164
 IR Inten    --      3.7526               285.9579                30.6470

                     43                     44                     45
                      A                      A                      A
 Frequencies --   3036.9159              3098.5491              3105.0845
 Red. masses --      1.0352                 1.1005                 1.1008
 Frc consts  --      5.6255                 6.2254                 6.2531
 IR Inten    --     12.9389                14.0902                14.7579

                     46                     47                     48
                      A                      A                      A
 Frequencies --   3110.2016              3116.9133              3122.6130
 Red. masses --      1.1017                 1.0935                 1.0626
 Frc consts  --      6.2788                 6.2590                 6.1045
 IR Inten    --     12.5581                 9.2333                28.3140

                     49                     50                     51
                      A                      A                      A
 Frequencies --   3199.8071              3210.5203              3785.5137
 Red. masses --      1.1125                 1.0963                 1.0660
 Frc consts  --      6.7113                 6.6576                 9.0006
 IR Inten    --      4.5509                 4.9368                29.8639

 - Thermochemistry -
 -------------------
 Temperature   298.150 Kelvin.  Pressure   1.00000 Atm.
 Atom     1 has atomic number  6 and mass  12.00000

 Molecular mass:   126.06808 amu.
 Principal axes and moments of inertia in atomic units:
                           1         2         3
     Eigenvalues --   732.874991182.880731437.02120
           X            0.99938   0.00917   0.03386
           Y           -0.01136   0.99781   0.06509
           Z           -0.03318  -0.06544   0.99730
 This molecule is an asymmetric top.
 Rotational symmetry number  1.
 Warning -- assumption of classical behavior for rotation
           may cause significant error
 Rotational temperatures (Kelvin)      0.11818     0.07322     0.06027
 Rotational constants (GHZ):           2.46255     1.52572     1.25589
 Zero-point vibrational energy     411077.9 (Joules/Mol)
                                   98.24997 (Kcal/Mol)
 Warning -- explicit consideration of  13 degrees of freedom as
           vibrations may cause significant error
 Vibrational temperatures:    116.03   224.87   245.40   284.35   298.48
          (Kelvin)            356.94   415.93   459.75   488.56   547.03
                              694.16   761.62   819.80   970.57  1044.16
                             1092.68  1218.91  1230.84  1346.77  1371.01
                             1401.33  1409.66  1460.60  1546.81  1576.38
                             1594.83  1604.40  1697.24  1712.82  1822.35
                             1872.80  1967.62  1982.68  2025.76  2040.66
                             2131.95  2137.77  2139.29  2152.63  2165.38
                             2668.89  4366.05  4369.44  4458.12  4467.52
                             4474.88  4484.54  4492.74  4603.80  4619.22
                             5446.50

 Zero-point correction=                           0.156571 (Hartree/Particle)
 Thermal correction to Energy=                    0.166041
 Thermal correction to Enthalpy=                  0.166985
 Thermal correction to Gibbs Free Energy=         0.122805
 Sum of electronic and zero-point Energies=           -423.024517
 Sum of electronic and thermal Energies=              -423.015048
 Sum of electronic and thermal Enthalpies=            -423.014104
 Sum of electronic and thermal Free Energies=         -423.058284

                     E (Thermal)             CV                S
                      KCal/Mol        Cal/Mol-Kelvin    Cal/Mol-Kelvin
 Total                  104.192             35.428             92.985
 Electronic               0.000              0.000              0.000
 Translational            0.889              2.981             40.409
 Rotational               0.889              2.981             28.612
 Vibrational            102.415             29.466             23.964
 Vibration     1          0.600              1.962              3.875
 Vibration     2          0.620              1.896              2.594
 Vibration     3          0.626              1.879              2.429
 Vibration     4          0.637              1.843              2.155
 Vibration     5          0.641              1.829              2.066
 Vibration     6          0.662              1.766              1.744
 Vibration     7          0.686              1.694              1.479
 Vibration     8          0.705              1.636              1.312
 Vibration     9          0.719              1.596              1.214
 Vibration    10          0.750              1.512              1.038
 Vibration    11          0.839              1.289              0.703
 Vibration    12          0.884              1.185              0.589
 Vibration    13          0.926              1.097              0.505

 Optimization completed.
    -- Stationary point found.
 Normal termination of Gaussian 09 at Mon Jan 27 18:05:50 2020.
