 Gaussian 09, Revision D.01,
 Gaussian 09:  ES64L-G09RevD.01 24-Apr-2013

 -----------------------------
 # b3lyp 6-31G(2df,p) opt Freq
 -----------------------------

 -----
 titel
 -----
 Symbolic Z-matrix:
 Charge =  0 Multiplicity = 1

 SCF Done:  E(RB3LYP) =  -423.141866889     A.U. after   14 cycles
 SCF Done:  E(RB3LYP) =  -423.141867239     A.U. after    8 cycles
 SCF Done:  E(RB3LYP) =  -423.141867242     A.U. after    7 cycles
 SCF Done:  E(RB3LYP) =  -423.141867618     A.U. after    7 cycles
 SCF Done:  E(RB3LYP) =  -423.141867621     A.U. after    7 cycles
 Optimization completed.
    -- Stationary point found.
 Normal termination of Gaussian 09 at Mon Jan 27 14:47:20 2020.

 ----------------------------------------------------------------------
 #N Geom=AllCheck Guess=TCheck SCRF=Check GenChk RB3LYP/6-31G(2df,p) Fr
 eq
 ----------------------------------------------------------------------

 Structure from the checkpoint file:  "/scratch/puck/g09_d3b9c172-9940-4e86-be8a-9726e127e24a/Gau-4357.chk"
 -----
 titel
 -----
 Charge =  0 Multiplicity = 1

                         Standard orientation:
 ---------------------------------------------------------------------
 Center     Atomic      Atomic             Coordinates (Angstroms)
 Number     Number       Type             X           Y           Z
 ---------------------------------------------------------------------
      1          6           0       -3.898398   -0.000286    0.168219
      2          6           0       -2.455607   -0.000654   -0.025998
      3          6           0       -1.263173   -0.000924   -0.198462
      4          6           0        0.173409   -0.000249   -0.370246
      5          6           0        1.042881    1.080093    0.332224
      6          8           0        1.338926    2.175125   -0.497816
      7          6           0        2.134175    0.000668    0.575035
      8          6           0        1.043856   -1.079758    0.332298
      9          8           0        1.340886   -2.174568   -0.497681
     10          1           0       -4.225257   -0.879638    0.734678
     11          1           0       -4.226760    0.887902    0.719832
     12          1           0       -4.429887   -0.008780   -0.789987
     13          1           0        0.452662   -0.000175   -1.430305
     14          1           0        0.574033    1.399956    1.271757
     15          1           0        1.831402    2.822864    0.016104
     16          1           0        2.847319    0.000964   -0.253904
     17          1           0        2.665902    0.000937    1.529254
     18          1           0        0.575300   -1.399988    1.271851
     19          1           0        1.833934   -2.821841    0.016279
 ---------------------------------------------------------------------

 SCF Done:  E(RB3LYP) =  -423.141867621     A.U. after    1 cycles

 The electronic state is 1-A.
 Alpha  occ. eigenvalues --  -19.13759 -19.13759 -10.23527 -10.23526 -10.19727
 Alpha  occ. eigenvalues --  -10.19702 -10.17601 -10.16469 -10.15880  -1.02406
 Alpha  occ. eigenvalues --   -1.01876  -0.83947  -0.76600  -0.71115  -0.65247
 Alpha  occ. eigenvalues --   -0.64158  -0.56473  -0.54002  -0.50432  -0.49772
 Alpha  occ. eigenvalues --   -0.44964  -0.42268  -0.42022  -0.41610  -0.40465
 Alpha  occ. eigenvalues --   -0.40179  -0.37145  -0.36161  -0.32345  -0.32056
 Alpha  occ. eigenvalues --   -0.28374  -0.25262  -0.23695  -0.23640
 Alpha virt. eigenvalues --    0.05663   0.06671   0.07263   0.08389   0.11432
 Alpha virt. eigenvalues --    0.11624   0.12462   0.15545   0.17324   0.17918
 Alpha virt. eigenvalues --    0.18165   0.18727   0.20507   0.21710   0.22728

 Mulliken charges:
               1
     1  C   -0.498577
     2  C    0.089599
     3  C    0.035421
     4  C   -0.173068
     5  C    0.122216
     6  O   -0.427905
     7  C   -0.323415
     8  C    0.122209
     9  O   -0.427902
    10  H    0.144826
    11  H    0.144880
    12  H    0.147659
    13  H    0.119649
    14  H    0.074990
    15  H    0.284097
    16  H    0.114914
    17  H    0.091326
    18  H    0.074986
    19  H    0.284095
 Sum of Mulliken charges =   0.00000

 Dipole moment (field-independent basis, Debye):
    X=              0.8111    Y=              0.0015    Z=              2.6284  Tot=              2.7507
 Quadrupole moment (field-independent basis, Debye-Ang):
   XX=            -43.3224   YY=            -49.1040   ZZ=            -53.8428
   XY=             -0.0022   XZ=              2.8004   YZ=              0.0007

  Exact polarizability: 113.140  -0.003  72.235  -0.658   0.001  61.167
 Approx polarizability: 153.034  -0.012  98.601  -5.214   0.002  94.490

 ******    1 imaginary frequencies (negative Signs) ******

                      1                      2                      3
                      A                      A                      A
 Frequencies --    -23.3378                76.6948                85.8844
 Red. masses --      1.0192                 4.0354                 3.4065
 Frc consts  --      0.0003                 0.0140                 0.0148
 IR Inten    --      0.0132                 1.8265                 2.0850

                      4                      5                      6
                      A                      A                      A
 Frequencies --    119.6194               225.1768               237.1229
 Red. masses --      3.9557                 1.1245                 1.0910
 Frc consts  --      0.0333                 0.0336                 0.0361
 IR Inten    --      4.9384                45.4286               118.9812

                      7                      8                      9
                      A                      A                      A
 Frequencies --    256.6650               267.5777               294.1650
 Red. masses --      3.9876                 4.8461                 3.7209
 Frc consts  --      0.1548                 0.2044                 0.1897
 IR Inten    --     13.9431                10.4761                18.6793

                     10                     11                     12
                      A                      A                      A
 Frequencies --    399.8125               433.4741               433.7233
 Red. masses --      4.3130                 3.7557                 3.3004
 Frc consts  --      0.4062                 0.4158                 0.3658
 IR Inten    --      7.3490                 0.6084                25.7632

                     13                     14                     15
                      A                      A                      A
 Frequencies --    486.9032               529.0074               557.4735
 Red. masses --      3.4322                 3.6748                 4.6557
 Frc consts  --      0.4794                 0.6059                 0.8525
 IR Inten    --      2.4061                 4.5951                 1.0153

                     16                     17                     18
                      A                      A                      A
 Frequencies --    769.5658               843.9598               926.9078
 Red. masses --      2.1368                 2.2583                 2.8869
 Frc consts  --      0.7456                 0.9477                 1.4614
 IR Inten    --      3.5296                 3.6965                 3.5882

                     19                     20                     21
                      A                      A                      A
 Frequencies --    947.5517              1000.3432              1047.9605
 Red. masses --      3.7640                 2.7912                 1.9427
 Frc consts  --      1.9912                 1.6456                 1.2571
 IR Inten    --      0.1393                34.6089                97.9898

                     22                     23                     24
                      A                      A                      A
 Frequencies --   1052.6485              1054.1611              1080.0003
 Red. masses --      1.4121                 1.5622                 3.3635
 Frc consts  --      0.9219                 1.0228                 2.3115
 IR Inten    --      0.8778                21.3205                 3.6648

                     25                     26                     27
                      A                      A                      A
 Frequencies --   1099.9654              1166.7201              1183.6433
 Red. masses --      1.6397                 3.4170                 1.2755
 Frc consts  --      1.1689                 2.7405                 1.0529
 IR Inten    --     23.8840                59.5800                 0.4587

                     28                     29                     30
                      A                      A                      A
 Frequencies --   1196.9685              1208.6197              1226.6906
 Red. masses --      2.6281                 1.2424                 1.1786
 Frc consts  --      2.2185                 1.0693                 1.0450
 IR Inten    --      0.6714                 5.1955                16.7301

                     31                     32                     33
                      A                      A                      A
 Frequencies --   1240.3935              1303.8046              1328.1988
 Red. masses --      1.4106                 1.2895                 1.4823
 Frc consts  --      1.2788                 1.2915                 1.5407
 IR Inten    --     67.1163                81.6749                39.1735

                     34                     35                     36
                      A                      A                      A
 Frequencies --   1356.7818              1414.8073              1415.1280
 Red. masses --      1.6163                 1.2504                 1.3388
 Frc consts  --      1.7531                 1.4747                 1.5796
 IR Inten    --      1.8483                 9.5401                14.3703

                     37                     38                     39
                      A                      A                      A
 Frequencies --   1444.0724              1478.3248              1479.1861
 Red. masses --      1.3758                 1.0397                 1.0400
 Frc consts  --      1.6904                 1.3387                 1.3406
 IR Inten    --      1.5059                 4.7871                 5.2377

                     40                     41                     42
                      A                      A                      A
 Frequencies --   1487.1281              2369.3532              3014.5718
 Red. masses --      1.2208                11.8516                 1.0845
 Frc consts  --      1.5907                39.1999                 5.8070
 IR Inten    --      1.0678                 0.1491                 5.7078

                     43                     44                     45
                      A                      A                      A
 Frequencies --   3019.0916              3024.1937              3053.6661
 Red. masses --      1.0848                 1.0348                 1.0814
 Frc consts  --      5.8258                 5.5763                 5.9411
 IR Inten    --     51.9182                41.9829                16.4740

                     46                     47                     48
                      A                      A                      A
 Frequencies --   3062.4852              3083.2150              3084.5672
 Red. masses --      1.0589                 1.1000                 1.1002
 Frc consts  --      5.8511                 6.1610                 6.1672
 IR Inten    --     30.0294                11.9963                11.5644

                     49                     50                     51
                      A                      A                      A
 Frequencies --   3126.3672              3818.1802              3818.4315
 Red. masses --      1.1089                 1.0662                 1.0661
 Frc consts  --      6.3860                 9.1577                 9.1584
 IR Inten    --     26.8051                35.3990                14.8671

 - Thermochemistry -
 -------------------
 Temperature   298.150 Kelvin.  Pressure   1.00000 Atm.
 Atom     1 has atomic number  6 and mass  12.00000

 Molecular mass:   126.06808 amu.
 Principal axes and moments of inertia in atomic units:
                           1         2         3
     Eigenvalues --   811.525641848.186932471.38130
           X            0.99999   0.00000   0.00325
           Y            0.00000   1.00000   0.00000
           Z           -0.00325   0.00000   0.99999
 This molecule is an asymmetric top.
 Rotational symmetry number  1.
 Warning -- assumption of classical behavior for rotation
           may cause significant error
 Rotational temperatures (Kelvin)      0.10673     0.04686     0.03505
 Rotational constants (GHZ):           2.22389     0.97649     0.73026
    1 imaginary frequencies ignored.
 Zero-point vibrational energy     410504.3 (Joules/Mol)
                                   98.11287 (Kcal/Mol)
 Warning -- explicit consideration of  14 degrees of freedom as
           vibrations may cause significant error
 Vibrational temperatures:    110.35   123.57   172.11   323.98   341.17
          (Kelvin)            369.28   384.98   423.24   575.24   623.67
                              624.03   700.54   761.12   802.08  1107.23
                             1214.27  1333.61  1363.31  1439.27  1507.78
                             1514.52  1516.70  1553.88  1582.60  1678.65
                             1703.00  1722.17  1738.93  1764.93  1784.65
                             1875.88  1910.98  1952.10  2035.59  2036.05
                             2077.70  2126.98  2128.22  2139.64  3408.97
                             4337.29  4343.79  4351.13  4393.54  4406.23
                             4436.05  4438.00  4498.14  5493.50  5493.86

 Zero-point correction=                           0.156353 (Hartree/Particle)
 Thermal correction to Energy=                    0.165900
 Thermal correction to Enthalpy=                  0.166845
 Thermal correction to Gibbs Free Energy=         0.121519
 Sum of electronic and zero-point Energies=           -422.985515
 Sum of electronic and thermal Energies=              -422.975967
 Sum of electronic and thermal Enthalpies=            -422.975023
 Sum of electronic and thermal Free Energies=         -423.020349

                     E (Thermal)             CV                S
                      KCal/Mol        Cal/Mol-Kelvin    Cal/Mol-Kelvin
 Total                  104.104             34.696             95.396
 Electronic               0.000              0.000              0.000
 Translational            0.889              2.981             40.409
 Rotational               0.889              2.981             29.695
 Vibrational            102.327             28.734             25.292
 Vibration     1          0.599              1.965              3.974
 Vibration     2          0.601              1.959              3.752
 Vibration     3          0.609              1.933              3.107
 Vibration     4          0.650              1.803              1.917
 Vibration     5          0.656              1.784              1.824
 Vibration     6          0.666              1.752              1.684
 Vibration     7          0.673              1.733              1.612
 Vibration     8          0.689              1.685              1.450
 Vibration     9          0.766              1.471              0.963
 Vibration    10          0.794              1.397              0.847
 Vibration    11          0.794              1.397              0.847
 Vibration    12          0.843              1.279              0.692
 Vibration    13          0.884              1.186              0.589
 Vibration    14          0.913              1.123              0.529

 Normal termination of Gaussian 09 at Mon Jan 27 16:19:24 2020.
