 Gaussian 09, Revision D.01,
 Gaussian 09:  ES64L-G09RevD.01 24-Apr-2013

 -----------------------------
 # b3lyp 6-31G(2df,p) opt Freq
 -----------------------------

 -----
 titel
 -----
 Symbolic Z-matrix:
 Charge =  0 Multiplicity = 1

 SCF Done:  E(RB3LYP) =  -423.220274242     A.U. after   14 cycles
 Optimization completed.
    -- Stationary point found.
 Normal termination of Gaussian 09 at Tue Jan 28 12:09:12 2020.

 ----------------------------------------------------------------------
 #N Geom=AllCheck Guess=TCheck SCRF=Check GenChk RB3LYP/6-31G(2df,p) Fr
 eq
 ----------------------------------------------------------------------

 Structure from the checkpoint file:  "/scratch/puck/g09_5d8568de-0b13-4251-bed1-524d1304ba9f/Gau-128723.chk"
 -----
 titel
 -----
 Charge =  0 Multiplicity = 1

                         Standard orientation:
 ---------------------------------------------------------------------
 Center     Atomic      Atomic             Coordinates (Angstroms)
 Number     Number       Type             X           Y           Z
 ---------------------------------------------------------------------
      1          6           0       -0.651786    2.439708    0.053719
      2          6           0       -0.004608    1.091117   -0.022186
      3          6           0       -0.579982   -0.104147   -0.240042
      4          6           0       -2.034224   -0.410037   -0.439926
      5          8           0       -2.515169   -1.366599    0.504910
      6          6           0        0.424976   -1.231681   -0.244409
      7          6           0        1.763779   -0.535173    0.013543
      8          8           0        2.839085   -1.067543    0.097849
      9          6           0        1.491731    0.969085    0.144456
     10          1           0       -0.411200    2.932840    1.004197
     11          1           0       -0.273063    3.098295   -0.738484
     12          1           0       -1.738820    2.397302   -0.040265
     13          1           0       -2.642376    0.504377   -0.423669
     14          1           0       -2.188759   -0.882057   -1.418173
     15          1           0       -2.399406   -0.984833    1.381492
     16          1           0        0.227049   -1.990706    0.521710
     17          1           0        0.462507   -1.775890   -1.198414
     18          1           0        1.853450    1.337535    1.114184
     19          1           0        2.059978    1.523042   -0.615576
 ---------------------------------------------------------------------

 SCF Done:  E(RB3LYP) =  -423.220274242     A.U. after    1 cycles

 The electronic state is 1-A.
 Alpha  occ. eigenvalues --  -19.14133 -19.12847 -10.26878 -10.23590 -10.20135
 Alpha  occ. eigenvalues --  -10.19443 -10.19404 -10.19147 -10.19007  -1.03979
 Alpha  occ. eigenvalues --   -1.02039  -0.85565  -0.75405  -0.73661  -0.68789
 Alpha  occ. eigenvalues --   -0.63973  -0.54300  -0.52955  -0.50233  -0.47483
 Alpha  occ. eigenvalues --   -0.45797  -0.44417  -0.43389  -0.42411  -0.40890
 Alpha  occ. eigenvalues --   -0.40311  -0.40117  -0.37302  -0.36087  -0.35102
 Alpha  occ. eigenvalues --   -0.33318  -0.27861  -0.24508  -0.23863
 Alpha virt. eigenvalues --   -0.01577   0.00641   0.07405   0.09637   0.11395
 Alpha virt. eigenvalues --    0.12294   0.13628   0.15437   0.16568   0.17834
 Alpha virt. eigenvalues --    0.18229   0.18699   0.19193   0.20704   0.22238

 Mulliken charges:
               1
     1  C   -0.496841
     2  C    0.200271
     3  C    0.177731
     4  C   -0.170668
     5  O   -0.412330
     6  C   -0.404821
     7  C    0.393793
     8  O   -0.303451
     9  C   -0.410125
    10  H    0.128993
    11  H    0.133003
    12  H    0.127966
    13  H    0.093843
    14  H    0.116517
    15  H    0.281990
    16  H    0.142106
    17  H    0.133717
    18  H    0.133540
    19  H    0.134766
 Sum of Mulliken charges =   0.00000

 Dipole moment (field-independent basis, Debye):
    X=             -1.8412    Y=              2.7604    Z=              0.2492  Tot=              3.3274
 Quadrupole moment (field-independent basis, Debye-Ang):
   XX=            -65.2829   YY=            -54.4088   ZZ=            -49.0864
   XY=              1.2701   XZ=             -1.4015   YZ=              0.6893

  Exact polarizability:  87.491   3.964  91.771   2.556   3.278  58.545
 Approx polarizability: 122.022  10.162 137.154   4.259   5.796  92.108

                      1                      2                      3
                      A                      A                      A
 Frequencies --     58.5239                74.3189               141.2102
 Red. masses --      3.5890                 3.0619                 2.4720
 Frc consts  --      0.0072                 0.0100                 0.0290
 IR Inten    --      5.6439                 1.8336                 0.4948

                      4                      5                      6
                      A                      A                      A
 Frequencies --    168.8191               216.5736               280.1704
 Red. masses --      1.1419                 2.7311                 1.9509
 Frc consts  --      0.0192                 0.0755                 0.0902
 IR Inten    --      0.3527                 2.1805                15.0024

                      7                      8                      9
                      A                      A                      A
 Frequencies --    296.9122               349.0550               402.2050
 Red. masses --      2.7651                 1.2932                 2.7685
 Frc consts  --      0.1436                 0.0928                 0.2639
 IR Inten    --      3.5216                79.1848                31.1901

                     10                     11                     12
                      A                      A                      A
 Frequencies --    475.3991               504.3064               525.3276
 Red. masses --      2.1760                 2.9547                 4.1573
 Frc consts  --      0.2898                 0.4427                 0.6760
 IR Inten    --      1.1689                 5.0955                 3.4748

                     13                     14                     15
                      A                      A                      A
 Frequencies --    566.0924               623.0729               772.1540
 Red. masses --      4.3869                 4.1746                 2.7485
 Frc consts  --      0.8283                 0.9549                 0.9655
 IR Inten    --      1.3813                 6.4961                 2.2271

                     16                     17                     18
                      A                      A                      A
 Frequencies --    804.7792               825.1412               915.9003
 Red. masses --      3.6895                 1.6212                 1.7838
 Frc consts  --      1.4079                 0.6503                 0.8816
 IR Inten    --      5.1515                 0.0752                 5.7892

                     19                     20                     21
                      A                      A                      A
 Frequencies --    940.9194               978.3415              1028.3497
 Red. masses --      1.8232                 1.5619                 3.9020
 Frc consts  --      0.9510                 0.8808                 2.4312
 IR Inten    --      3.1652                13.2271                62.8858

                     22                     23                     24
                      A                      A                      A
 Frequencies --   1057.8490              1073.2703              1124.4251
 Red. masses --      1.5901                 3.5838                 1.2705
 Frc consts  --      1.0484                 2.4322                 0.9464
 IR Inten    --      1.1807                38.1814                 1.2797

                     25                     26                     27
                      A                      A                      A
 Frequencies --   1162.1235              1176.2313              1180.7839
 Red. masses --      2.2739                 1.5755                 1.7008
 Frc consts  --      1.8093                 1.2843                 1.3972
 IR Inten    --     48.4227                 5.5151                 4.2596

                     28                     29                     30
                      A                      A                      A
 Frequencies --   1201.4663              1244.9284              1284.1087
 Red. masses --      1.7121                 1.6851                 2.1879
 Frc consts  --      1.4561                 1.5387                 2.1256
 IR Inten    --     13.9821                19.1410                 0.9733

                     31                     32                     33
                      A                      A                      A
 Frequencies --   1348.3438              1370.8415              1412.0034
 Red. masses --      3.0927                 1.2664                 1.3226
 Frc consts  --      3.3127                 1.4022                 1.5537
 IR Inten    --      7.9613                 7.7788                43.0986

                     34                     35                     36
                      A                      A                      A
 Frequencies --   1416.5310              1439.6743              1446.4829
 Red. masses --      1.2392                 1.0842                 1.0935
 Frc consts  --      1.4650                 1.3240                 1.3480
 IR Inten    --     19.1594                 9.8795                 0.3700

                     37                     38                     39
                      A                      A                      A
 Frequencies --   1479.0726              1483.9826              1501.7036
 Red. masses --      1.0445                 1.0683                 1.0839
 Frc consts  --      1.3463                 1.3861                 1.4402
 IR Inten    --      5.5014                 2.1374                 3.4910

                     40                     41                     42
                      A                      A                      A
 Frequencies --   1722.5617              1853.0825              3009.3527
 Red. masses --      7.5712                12.8346                 1.0591
 Frc consts  --     13.2362                25.9671                 5.6511
 IR Inten    --      4.7929               229.4687                39.6961

                     43                     44                     45
                      A                      A                      A
 Frequencies --   3015.2260              3020.7947              3022.7972
 Red. masses --      1.0577                 1.0467                 1.0624
 Frc consts  --      5.6658                 5.6275                 5.7196
 IR Inten    --     15.6383                48.5850                 5.3228

                     46                     47                     48
                      A                      A                      A
 Frequencies --   3042.6958              3052.2223              3060.6327
 Red. masses --      1.0998                 1.1014                 1.0933
 Frc consts  --      5.9988                 6.0453                 6.0339
 IR Inten    --      8.8497                32.2944                 7.2299

                     49                     50                     51
                      A                      A                      A
 Frequencies --   3062.7831              3123.7075              3808.0917
 Red. masses --      1.0982                 1.0964                 1.0663
 Frc consts  --      6.0699                 6.3031                 9.1102
 IR Inten    --     15.3759                21.6108                14.9366

 - Thermochemistry -
 -------------------
 Temperature   298.150 Kelvin.  Pressure   1.00000 Atm.
 Atom     1 has atomic number  6 and mass  12.00000

 Molecular mass:   126.06808 amu.
 Principal axes and moments of inertia in atomic units:
                           1         2         3
     Eigenvalues --   797.571851432.580292106.69728
           X            0.99998   0.00463   0.00311
           Y           -0.00466   0.99994   0.00977
           Z           -0.00306  -0.00978   0.99995
 This molecule is an asymmetric top.
 Rotational symmetry number  1.
 Warning -- assumption of classical behavior for rotation
           may cause significant error
 Rotational temperatures (Kelvin)      0.10860     0.06046     0.04111
 Rotational constants (GHZ):           2.26279     1.25978     0.85667
 Zero-point vibrational energy     413581.0 (Joules/Mol)
                                   98.84823 (Kcal/Mol)
 Warning -- explicit consideration of  13 degrees of freedom as
           vibrations may cause significant error
 Vibrational temperatures:     84.20   106.93   203.17   242.89   311.60
          (Kelvin)            403.10   427.19   502.21   578.68   683.99
                              725.58   755.83   814.48   896.46  1110.96
                             1157.90  1187.19  1317.77  1353.77  1407.61
                             1479.56  1522.01  1544.19  1617.79  1672.03
                             1692.33  1698.88  1728.64  1791.17  1847.54
                             1939.96  1972.33  2031.56  2038.07  2071.37
                             2081.16  2128.05  2135.12  2160.61  2478.38
                             2666.17  4329.78  4338.23  4346.24  4349.13
                             4377.76  4391.46  4403.56  4406.66  4494.31
                             5478.99

 Zero-point correction=                           0.157525 (Hartree/Particle)
 Thermal correction to Energy=                    0.166947
 Thermal correction to Enthalpy=                  0.167891
 Thermal correction to Gibbs Free Energy=         0.122718
 Sum of electronic and zero-point Energies=           -423.062750
 Sum of electronic and thermal Energies=              -423.053327
 Sum of electronic and thermal Enthalpies=            -423.052383
 Sum of electronic and thermal Free Energies=         -423.097556

                     E (Thermal)             CV                S
                      KCal/Mol        Cal/Mol-Kelvin    Cal/Mol-Kelvin
 Total                  104.761             34.400             95.075
 Electronic               0.000              0.000              0.000
 Translational            0.889              2.981             40.409
 Rotational               0.889              2.981             29.266
 Vibrational            102.984             28.438             25.400
 Vibration     1          0.596              1.974              4.506
 Vibration     2          0.599              1.966              4.036
 Vibration     3          0.615              1.912              2.787
 Vibration     4          0.625              1.881              2.449
 Vibration     5          0.645              1.816              1.988
 Vibration     6          0.680              1.710              1.533
 Vibration     7          0.691              1.679              1.434
 Vibration     8          0.726              1.577              1.170
 Vibration     9          0.768              1.465              0.955
 Vibration    10          0.832              1.305              0.723
 Vibration    11          0.860              1.240              0.647
 Vibration    12          0.880              1.194              0.598
 Vibration    13          0.922              1.105              0.512

 Optimization completed.
    -- Stationary point found.
 Normal termination of Gaussian 09 at Tue Jan 28 12:58:26 2020.
