 Gaussian 09, Revision D.01,
 Gaussian 09:  ES64L-G09RevD.01 24-Apr-2013

 -----------------------------
 # b3lyp 6-31G(2df,p) opt Freq
 -----------------------------

 -----
 titel
 -----
 Symbolic Z-matrix:
 Charge =  0 Multiplicity = 1

 SCF Done:  E(RB3LYP) =  -423.122378920     A.U. after   14 cycles
 Optimization completed.
    -- Stationary point found.
 Normal termination of Gaussian 09 at Tue Jan 28 08:57:14 2020.

 ----------------------------------------------------------------------
 #N Geom=AllCheck Guess=TCheck SCRF=Check GenChk RB3LYP/6-31G(2df,p) Fr
 eq
 ----------------------------------------------------------------------

 Structure from the checkpoint file:  "/scratch/puck/g09_670ea6ed-0cd6-4e3b-ad6b-ba0d8e426144/Gau-129745.chk"
 -----
 titel
 -----
 Charge =  0 Multiplicity = 1

                         Standard orientation:
 ---------------------------------------------------------------------
 Center     Atomic      Atomic             Coordinates (Angstroms)
 Number     Number       Type             X           Y           Z
 ---------------------------------------------------------------------
      1          6           0        2.785607   -0.616272    0.162786
      2          6           0        1.551319   -0.567267   -0.748138
      3          6           0        0.277967   -0.207381   -0.004257
      4          6           0        0.210779    1.180816    0.620357
      5          8           0        0.529615    2.210603   -0.303175
      6          8           0       -0.240789   -1.236425    0.845918
      7          6           0       -0.977542   -0.919124   -0.352772
      8          6           0       -2.286843   -0.345791   -0.197543
      9          6           0       -3.394188    0.111863   -0.099001
     10          1           0        3.020134    0.362653    0.595156
     11          1           0        2.625402   -1.315249    0.988886
     12          1           0        3.665887   -0.945397   -0.396481
     13          1           0        1.696949    0.158449   -1.556686
     14          1           0        1.413015   -1.544426   -1.221825
     15          1           0       -0.807644    1.368909    0.966870
     16          1           0        0.867752    1.205238    1.501370
     17          1           0        1.486578    2.263211   -0.379489
     18          1           0       -0.911568   -1.689806   -1.121059
     19          1           0       -4.369707    0.521929   -0.007282
 ---------------------------------------------------------------------

 SCF Done:  E(RB3LYP) =  -423.122378920     A.U. after    1 cycles

 The electronic state is 1-A.
 Alpha  occ. eigenvalues --  -19.15798 -19.14309 -10.25870 -10.24723 -10.23129
 Alpha  occ. eigenvalues --  -10.19431 -10.18928 -10.18591 -10.18463  -1.07824
 Alpha  occ. eigenvalues --   -1.02274  -0.78834  -0.76829  -0.71633  -0.68235
 Alpha  occ. eigenvalues --   -0.65115  -0.56964  -0.54415  -0.51521  -0.50456
 Alpha  occ. eigenvalues --   -0.48420  -0.46198  -0.42969  -0.41768  -0.40569
 Alpha  occ. eigenvalues --   -0.38988  -0.36203  -0.35295  -0.34824  -0.32076
 Alpha  occ. eigenvalues --   -0.30052  -0.28061  -0.26263  -0.25893
 Alpha virt. eigenvalues --    0.02014   0.03788   0.05106   0.10386   0.11640
 Alpha virt. eigenvalues --    0.12286   0.12732   0.14650   0.15417   0.16427
 Alpha virt. eigenvalues --    0.17668   0.18495   0.19603   0.19825   0.20813

 Mulliken charges:
               1
     1  C   -0.387225
     2  C   -0.268789
     3  C    0.391382
     4  C   -0.165590
     5  O   -0.411177
     6  O   -0.285646
     7  C   -0.230798
     8  C    0.338731
     9  C   -0.411594
    10  H    0.108254
    11  H    0.139743
    12  H    0.120210
    13  H    0.110086
    14  H    0.108936
    15  H    0.134089
    16  H    0.103807
    17  H    0.289833
    18  H    0.112812
    19  H    0.202936
 Sum of Mulliken charges =   0.00000

 Dipole moment (field-independent basis, Debye):
    X=              1.3851    Y=              0.1701    Z=             -0.7843  Tot=              1.6008
 Quadrupole moment (field-independent basis, Debye-Ang):
   XX=            -44.0178   YY=            -56.6473   ZZ=            -54.6024
   XY=              0.4139   XZ=             -0.5679   YZ=              3.9915

  Exact polarizability: 109.766  -4.931  67.284  -0.027   2.943  59.073
 Approx polarizability: 151.559 -12.162 100.984   0.310  -0.098  92.680

                      1                      2                      3
                      A                      A                      A
 Frequencies --     55.5550                78.7020               117.9710
 Red. masses --      3.4793                 3.0886                 3.8119
 Frc consts  --      0.0063                 0.0113                 0.0313
 IR Inten    --      1.5818                 1.5526                 1.2049

                      4                      5                      6
                      A                      A                      A
 Frequencies --    154.7679               209.2388               242.2131
 Red. masses --      2.4552                 1.6831                 2.0939
 Frc consts  --      0.0346                 0.0434                 0.0724
 IR Inten    --      3.4835                 6.9127                20.6150

                      7                      8                      9
                      A                      A                      A
 Frequencies --    252.4910               277.6310               334.0000
 Red. masses --      1.6382                 1.5491                 3.1670
 Frc consts  --      0.0615                 0.0703                 0.2082
 IR Inten    --     63.9247                19.2126                 9.3912

                     10                     11                     12
                      A                      A                      A
 Frequencies --    373.4708               390.5494               485.3302
 Red. masses --      2.7569                 4.7036                 5.6856
 Frc consts  --      0.2266                 0.4227                 0.7890
 IR Inten    --      5.8807                 5.4759                 1.7237

                     13                     14                     15
                      A                      A                      A
 Frequencies --    559.6352               604.6993               626.4773
 Red. masses --      8.6768                 2.8474                 1.2505
 Frc consts  --      1.6011                 0.6135                 0.2892
 IR Inten    --      7.6584                 1.1103                45.1538

                     16                     17                     18
                      A                      A                      A
 Frequencies --    670.6724               722.7368               790.7093
 Red. masses --      1.2544                 3.1397                 1.4934
 Frc consts  --      0.3324                 0.9663                 0.5501
 IR Inten    --     34.5308                 9.0763                 3.7939

                     19                     20                     21
                      A                      A                      A
 Frequencies --    842.5057               879.8402               973.0687
 Red. masses --      3.0394                 2.8408                 2.5953
 Frc consts  --      1.2711                 1.2957                 1.4479
 IR Inten    --     12.7150                11.3702                 8.2866

                     22                     23                     24
                      A                      A                      A
 Frequencies --   1005.3742              1017.3535              1071.2258
 Red. masses --      2.0607                 2.5684                 3.6618
 Frc consts  --      1.2272                 1.5662                 2.4758
 IR Inten    --     25.8859                43.7174                59.3456

                     25                     26                     27
                      A                      A                      A
 Frequencies --   1075.3167              1085.4472              1106.2460
 Red. masses --      1.5459                 2.0668                 1.9533
 Frc consts  --      1.0532                 1.4347                 1.4084
 IR Inten    --     11.1272                17.1615                 4.9322

                     28                     29                     30
                      A                      A                      A
 Frequencies --   1197.0509              1252.7974              1289.8995
 Red. masses --      1.3269                 1.8316                 1.3210
 Frc consts  --      1.1202                 1.6937                 1.2950
 IR Inten    --     12.7468                13.4957                19.2498

                     31                     32                     33
                      A                      A                      A
 Frequencies --   1339.4163              1370.2190              1389.3533
 Red. masses --      1.6170                 1.3894                 1.2572
 Frc consts  --      1.7092                 1.5370                 1.4298
 IR Inten    --      4.0345                 3.4088                17.4651

                     34                     35                     36
                      A                      A                      A
 Frequencies --   1404.3736              1411.8114              1453.9295
 Red. masses --      1.3283                 1.2356                 2.6389
 Frc consts  --      1.5436                 1.4510                 3.2867
 IR Inten    --     23.1928                 4.2188                 2.4859

                     37                     38                     39
                      A                      A                      A
 Frequencies --   1480.1718              1492.0777              1502.9467
 Red. masses --      1.1027                 1.0719                 1.0515
 Frc consts  --      1.4234                 1.4060                 1.3994
 IR Inten    --      2.0790                 6.6428                 8.1384

                     40                     41                     42
                      A                      A                      A
 Frequencies --   1507.9137              2238.9978              3007.8633
 Red. masses --      1.0688                 5.9576                 1.0694
 Frc consts  --      1.4319                17.5965                 5.7005
 IR Inten    --      3.9101                 0.6078                34.8608

                     43                     44                     45
                      A                      A                      A
 Frequencies --   3037.0006              3042.3027              3078.5955
 Red. masses --      1.0382                 1.0594                 1.1006
 Frc consts  --      5.6419                 5.7771                 6.1458
 IR Inten    --     24.5872                19.4077                 5.0958

                     46                     47                     48
                      A                      A                      A
 Frequencies --   3103.5588              3106.5264              3111.5083
 Red. masses --      1.0971                 1.0879                 1.0944
 Frc consts  --      6.2262                 6.1857                 6.2429
 IR Inten    --     20.8770                40.3412                 8.6299

                     49                     50                     51
                      A                      A                      A
 Frequencies --   3119.5305              3501.4592              3833.0276
 Red. masses --      1.1024                 1.1620                 1.0665
 Frc consts  --      6.3209                 8.3936                 9.2324
 IR Inten    --     21.5956                73.9775                21.3483

 - Thermochemistry -
 -------------------
 Temperature   298.150 Kelvin.  Pressure   1.00000 Atm.
 Atom     1 has atomic number  6 and mass  12.00000

 Molecular mass:   126.06808 amu.
 Principal axes and moments of inertia in atomic units:
                           1         2         3
     Eigenvalues --   690.956531555.853751986.08278
           X            0.99978  -0.02096  -0.00185
           Y            0.02102   0.99890   0.04195
           Z            0.00097  -0.04198   0.99912
 This molecule is an asymmetric top.
 Rotational symmetry number  1.
 Warning -- assumption of classical behavior for rotation
           may cause significant error
 Rotational temperatures (Kelvin)      0.12535     0.05567     0.04361
 Rotational constants (GHZ):           2.61195     1.15997     0.90869
 Zero-point vibrational energy     408378.5 (Joules/Mol)
                                   97.60481 (Kcal/Mol)
 Warning -- explicit consideration of  14 degrees of freedom as
           vibrations may cause significant error
 Vibrational temperatures:     79.93   113.23   169.73   222.68   301.05
          (Kelvin)            348.49   363.28   399.45   480.55   537.34
                              561.91   698.28   805.19   870.03   901.36
                              964.95  1039.86  1137.65  1212.18  1265.89
                             1400.03  1446.51  1463.74  1541.25  1547.14
                             1561.71  1591.64  1722.29  1802.49  1855.88
                             1927.12  1971.44  1998.97  2020.58  2031.28
                             2091.88  2129.63  2146.76  2162.40  2169.55
                             3221.41  4327.64  4369.56  4377.19  4429.41
                             4465.32  4469.59  4476.76  4488.30  5037.81
                             5514.86

 Zero-point correction=                           0.155543 (Hartree/Particle)
 Thermal correction to Energy=                    0.165804
 Thermal correction to Enthalpy=                  0.166748
 Thermal correction to Gibbs Free Energy=         0.120052
 Sum of electronic and zero-point Energies=           -422.966836
 Sum of electronic and thermal Energies=              -422.956575
 Sum of electronic and thermal Enthalpies=            -422.955630
 Sum of electronic and thermal Free Energies=         -423.002327

                     E (Thermal)             CV                S
                      KCal/Mol        Cal/Mol-Kelvin    Cal/Mol-Kelvin
 Total                  104.044             37.088             98.282
 Electronic               0.000              0.000              0.000
 Translational            0.889              2.981             40.409
 Rotational               0.889              2.981             29.147
 Vibrational            102.266             31.126             28.726
 Vibration     1          0.596              1.975              4.609
 Vibration     2          0.600              1.963              3.923
 Vibration     3          0.608              1.934              3.133
 Vibration     4          0.620              1.897              2.613
 Vibration     5          0.642              1.827              2.050
 Vibration     6          0.658              1.776              1.787
 Vibration     7          0.664              1.759              1.713
 Vibration     8          0.679              1.715              1.548
 Vibration     9          0.716              1.608              1.241
 Vibration    10          0.745              1.527              1.066
 Vibration    11          0.758              1.490              0.998
 Vibration    12          0.841              1.283              0.696
 Vibration    13          0.915              1.119              0.525
 Vibration    14          0.963              1.022              0.442

 Normal termination of Gaussian 09 at Tue Jan 28 09:37:01 2020.
