 Gaussian 09, Revision D.01,
 Gaussian 09:  ES64L-G09RevD.01 24-Apr-2013

 -----------------------------
 # b3lyp 6-31G(2df,p) opt Freq
 -----------------------------

 -----
 titel
 -----
 Symbolic Z-matrix:
 Charge =  0 Multiplicity = 1

 SCF Done:  E(RB3LYP) =  -423.201701443     A.U. after   14 cycles
 Optimization completed.
    -- Stationary point found.
 Normal termination of Gaussian 09 at Mon Jan 27 13:06:26 2020.

 ----------------------------------------------------------------------
 #N Geom=AllCheck Guess=TCheck SCRF=Check GenChk RB3LYP/6-31G(2df,p) Fr
 eq
 ----------------------------------------------------------------------

 Structure from the checkpoint file:  "/scratch/puck/g09_9987a8db-a1fd-48a2-9752-3fcade94ce18/Gau-47872.chk"
 -----
 titel
 -----
 Charge =  0 Multiplicity = 1

                         Standard orientation:
 ---------------------------------------------------------------------
 Center     Atomic      Atomic             Coordinates (Angstroms)
 Number     Number       Type             X           Y           Z
 ---------------------------------------------------------------------
      1          8           0        2.824997   -0.907444    0.141807
      2          6           0        1.780227   -0.340852   -0.032871
      3          6           0        1.500591    1.144368    0.216128
      4          8           0        0.173667    1.372017   -0.214646
      5          6           0       -0.558087    0.145927   -0.150344
      6          6           0       -1.362443   -0.130599    1.158825
      7          6           0       -2.564832   -0.552172    0.270828
      8          6           0       -1.890207    0.177386   -0.924124
      9          6           0        0.461761   -0.932044   -0.529822
     10          1           0        1.636711    1.358934    1.288440
     11          1           0        2.188820    1.782869   -0.346879
     12          1           0       -0.961307   -0.860265    1.867291
     13          1           0       -1.554280    0.810443    1.680690
     14          1           0       -2.609898   -1.634049    0.121639
     15          1           0       -3.553182   -0.202997    0.573501
     16          1           0       -1.912509   -0.298254   -1.907831
     17          1           0       -2.236231    1.210079   -1.017803
     18          1           0        0.280764   -1.921830   -0.107310
     19          1           0        0.529751   -1.033593   -1.620736
 ---------------------------------------------------------------------

 SCF Done:  E(RB3LYP) =  -423.201701443     A.U. after    1 cycles

 The electronic state is 1-A.
 Alpha  occ. eigenvalues --  -19.14868 -19.13874 -10.27625 -10.24612 -10.23721
 Alpha  occ. eigenvalues --  -10.19650 -10.18990 -10.18597 -10.18514  -1.05743
 Alpha  occ. eigenvalues --   -1.04058  -0.84953  -0.76669  -0.72006  -0.66887
 Alpha  occ. eigenvalues --   -0.62273  -0.56510  -0.54007  -0.49255  -0.49080
 Alpha  occ. eigenvalues --   -0.48458  -0.46198  -0.43057  -0.41975  -0.41193
 Alpha  occ. eigenvalues --   -0.39247  -0.38769  -0.34934  -0.34549  -0.34014
 Alpha  occ. eigenvalues --   -0.32424  -0.31936  -0.26227  -0.24175
 Alpha virt. eigenvalues --   -0.02395   0.07477   0.08828   0.10136   0.12811
 Alpha virt. eigenvalues --    0.13605   0.14197   0.15047   0.15556   0.17262
 Alpha virt. eigenvalues --    0.18136   0.18412   0.20344   0.20546   0.21445

 Mulliken charges:
               1
     1  O   -0.297089
     2  C    0.367608
     3  C   -0.194121
     4  O   -0.297539
     5  C    0.432400
     6  C   -0.282195
     7  C   -0.214180
     8  C   -0.287200
     9  C   -0.400073
    10  H    0.123018
    11  H    0.137083
    12  H    0.098005
    13  H    0.112909
    14  H    0.106887
    15  H    0.106802
    16  H    0.098132
    17  H    0.117880
    18  H    0.135108
    19  H    0.136565
 Sum of Mulliken charges =   0.00000

 Dipole moment (field-independent basis, Debye):
    X=             -2.0753    Y=              0.0614    Z=             -0.0882  Tot=              2.0781
 Quadrupole moment (field-independent basis, Debye-Ang):
   XX=            -59.8665   YY=            -54.6171   ZZ=            -51.4851
   XY=              5.1026   XZ=             -0.8402   YZ=              1.3224

  Exact polarizability:  89.415   1.638  70.198   2.175   1.444  66.327
 Approx polarizability: 118.142  -2.736 106.507   4.756   0.319  99.049

                      1                      2                      3
                      A                      A                      A
 Frequencies --     74.7253               113.9086               132.7770
 Red. masses --      4.1390                 2.3209                 2.3884
 Frc consts  --      0.0136                 0.0177                 0.0248
 IR Inten    --      3.1939                 1.0284                 5.0649

                      4                      5                      6
                      A                      A                      A
 Frequencies --    269.2420               347.6856               413.9225
 Red. masses --      2.3885                 2.2888                 3.2547
 Frc consts  --      0.1020                 0.1630                 0.3285
 IR Inten    --      1.2181                 1.4054                 6.9926

                      7                      8                      9
                      A                      A                      A
 Frequencies --    445.8340               478.0275               482.3712
 Red. masses --      3.5360                 2.5076                 3.4908
 Frc consts  --      0.4141                 0.3376                 0.4786
 IR Inten    --      1.4837                 1.3031                11.7851

                     10                     11                     12
                      A                      A                      A
 Frequencies --    612.7505               685.1718               748.9760
 Red. masses --      5.1543                 1.8993                 2.3613
 Frc consts  --      1.1402                 0.5254                 0.7804
 IR Inten    --      0.6522                 2.7867                 8.5720

                     13                     14                     15
                      A                      A                      A
 Frequencies --    775.8171               797.0045               841.8069
 Red. masses --      1.9422                 1.3873                 2.1953
 Frc consts  --      0.6887                 0.5192                 0.9166
 IR Inten    --      5.3315                 1.9429                 5.0532

                     16                     17                     18
                      A                      A                      A
 Frequencies --    877.1309               910.6557               930.1182
 Red. masses --      2.0818                 2.0931                 2.5344
 Frc consts  --      0.9436                 1.0227                 1.2918
 IR Inten    --      0.5298                 1.3485                 1.1170

                     19                     20                     21
                      A                      A                      A
 Frequencies --    953.0649               966.5631              1040.1162
 Red. masses --      2.3528                 2.2028                 1.1710
 Frc consts  --      1.2591                 1.2125                 0.7464
 IR Inten    --     17.8528                 1.1792                 1.4590

                     22                     23                     24
                      A                      A                      A
 Frequencies --   1073.2253              1089.2828              1107.0004
 Red. masses --      2.8817                 5.1286                 3.7081
 Frc consts  --      1.9556                 3.5854                 2.6773
 IR Inten    --      9.3483                53.1076                13.2206

                     25                     26                     27
                      A                      A                      A
 Frequencies --   1172.7755              1186.5838              1197.5715
 Red. masses --      2.1309                 1.4165                 2.4350
 Frc consts  --      1.7268                 1.1751                 2.0576
 IR Inten    --     54.0026                23.5451                51.2873

                     28                     29                     30
                      A                      A                      A
 Frequencies --   1213.1416              1221.6270              1249.4426
 Red. masses --      1.4568                 1.2037                 1.2243
 Frc consts  --      1.2632                 1.0584                 1.1261
 IR Inten    --      1.8147                 1.1376                 1.2388

                     31                     32                     33
                      A                      A                      A
 Frequencies --   1254.3551              1277.0828              1282.5703
 Red. masses --      1.4638                 1.5267                 1.5778
 Frc consts  --      1.3570                 1.4670                 1.5292
 IR Inten    --     17.3390                 1.2676                20.2743

                     34                     35                     36
                      A                      A                      A
 Frequencies --   1322.4164              1341.7096              1444.8745
 Red. masses --      2.5352                 1.5085                 1.0991
 Frc consts  --      2.6121                 1.6000                 1.3520
 IR Inten    --     29.9840                 4.6237                10.1513

                     37                     38                     39
                      A                      A                      A
 Frequencies --   1469.9455              1479.4857              1485.3592
 Red. masses --      1.0916                 1.0848                 1.0864
 Frc consts  --      1.3896                 1.3990                 1.4122
 IR Inten    --      2.1739                 6.4895                 0.8350

                     40                     41                     42
                      A                      A                      A
 Frequencies --   1505.8183              1862.0906              2982.1702
 Red. masses --      1.1340                12.7535                 1.0692
 Frc consts  --      1.5150                26.0545                 5.6025
 IR Inten    --      3.0106               224.0580                34.1845

                     43                     44                     45
                      A                      A                      A
 Frequencies --   3034.9883              3056.4023              3061.7948
 Red. masses --      1.0675                 1.0574                 1.0581
 Frc consts  --      5.7935                 5.8197                 5.8442
 IR Inten    --      7.1895                44.8349                14.5488

                     46                     47                     48
                      A                      A                      A
 Frequencies --   3070.0435              3078.6224              3108.8901
 Red. masses --      1.0624                 1.0916                 1.1066
 Frc consts  --      5.8999                 6.0960                 6.3014
 IR Inten    --     25.9559                16.9376                 8.6354

                     49                     50                     51
                      A                      A                      A
 Frequencies --   3115.6059              3122.9211              3130.7450
 Red. masses --      1.1076                 1.0958                 1.1069
 Frc consts  --      6.3347                 6.2965                 6.3921
 IR Inten    --      6.3709                 5.9172                46.6059

 - Thermochemistry -
 -------------------
 Temperature   298.150 Kelvin.  Pressure   1.00000 Atm.
 Atom     1 has atomic number  8 and mass  15.99491

 Molecular mass:   126.06808 amu.
 Principal axes and moments of inertia in atomic units:
                           1         2         3
     Eigenvalues --   496.628921539.559341691.14175
           X            0.99967   0.02551  -0.00029
           Y           -0.02548   0.99881   0.04155
           Z            0.00135  -0.04153   0.99914
 This molecule is an asymmetric top.
 Rotational symmetry number  1.
 Warning -- assumption of classical behavior for rotation
           may cause significant error
 Rotational temperatures (Kelvin)      0.17440     0.05626     0.05122
 Rotational constants (GHZ):           3.63398     1.17225     1.06717
 Zero-point vibrational energy     418072.2 (Joules/Mol)
                                   99.92165 (Kcal/Mol)
 Warning -- explicit consideration of  10 degrees of freedom as
           vibrations may cause significant error
 Vibrational temperatures:    107.51   163.89   191.04   387.38   500.24
          (Kelvin)            595.54   641.45   687.77   694.02   881.61
                              985.81  1077.61  1116.23  1146.71  1211.17
                             1261.99  1310.23  1338.23  1371.25  1390.67
                             1496.49  1544.13  1567.23  1592.72  1687.36
                             1707.23  1723.04  1745.44  1757.65  1797.67
                             1804.74  1837.44  1845.33  1902.66  1930.42
                             2078.85  2114.92  2128.65  2137.10  2166.53
                             2679.13  4290.67  4366.67  4397.48  4405.23
                             4417.10  4429.45  4472.99  4482.66  4493.18
                             4504.44

 Zero-point correction=                           0.159235 (Hartree/Particle)
 Thermal correction to Energy=                    0.167237
 Thermal correction to Enthalpy=                  0.168181
 Thermal correction to Gibbs Free Energy=         0.126330
 Sum of electronic and zero-point Energies=           -423.042466
 Sum of electronic and thermal Energies=              -423.034465
 Sum of electronic and thermal Enthalpies=            -423.033521
 Sum of electronic and thermal Free Energies=         -423.075371

                     E (Thermal)             CV                S
                      KCal/Mol        Cal/Mol-Kelvin    Cal/Mol-Kelvin
 Total                  104.943             30.942             88.082
 Electronic               0.000              0.000              0.000
 Translational            0.889              2.981             40.409
 Rotational               0.889              2.981             28.649
 Vibrational            103.165             24.981             19.024
 Vibration     1          0.599              1.966              4.025
 Vibration     2          0.607              1.938              3.201
 Vibration     3          0.613              1.921              2.905
 Vibration     4          0.674              1.730              1.601
 Vibration     5          0.725              1.580              1.177
 Vibration     6          0.778              1.440              0.913
 Vibration     7          0.805              1.370              0.808
 Vibration     8          0.835              1.299              0.715
 Vibration     9          0.839              1.289              0.704
 Vibration    10          0.972              1.005              0.428

 Normal termination of Gaussian 09 at Mon Jan 27 13:49:48 2020.
