 Gaussian 09, Revision D.01,
 Gaussian 09:  ES64L-G09RevD.01 24-Apr-2013

 -----------------------------
 # b3lyp 6-31G(2df,p) opt Freq
 -----------------------------

 -----
 titel
 -----
 Symbolic Z-matrix:
 Charge =  0 Multiplicity = 1

 SCF Done:  E(RB3LYP) =  -423.081480563     A.U. after   13 cycles
 Optimization completed.
    -- Stationary point found.
 Normal termination of Gaussian 09 at Mon Jan 27 22:03:40 2020.

 ----------------------------------------------------------------------
 #N Geom=AllCheck Guess=TCheck SCRF=Check GenChk RB3LYP/6-31G(2df,p) Fr
 eq
 ----------------------------------------------------------------------

 Structure from the checkpoint file:  "/scratch/puck/g09_480f26ab-1b69-44f6-b9fa-16e4384c19d5/Gau-72773.chk"
 -----
 titel
 -----
 Charge =  0 Multiplicity = 1

                         Standard orientation:
 ---------------------------------------------------------------------
 Center     Atomic      Atomic             Coordinates (Angstroms)
 Number     Number       Type             X           Y           Z
 ---------------------------------------------------------------------
      1          6           0        1.992269    1.433974   -0.384728
      2          6           0        1.194013    0.684555    0.661886
      3          6           0        1.080338   -0.836968    0.606819
      4          8           0        1.728881   -1.486345   -0.450709
      5          6           0       -0.101107    0.015546    0.318881
      6          6           0       -1.036357    0.029704   -0.897779
      7          6           0       -1.900806    1.109341   -0.198536
      8          6           0       -1.550625   -0.000169    0.824438
      9          8           0       -1.857210   -1.012496   -0.223126
     10          1           0        3.042213    1.516582   -0.085427
     11          1           0        1.962849    0.910665   -1.342589
     12          1           0        1.603925    2.447841   -0.529124
     13          1           0        1.267676    1.090530    1.668916
     14          1           0        1.116063   -1.368899    1.558560
     15          1           0        1.132840   -2.170171   -0.774924
     16          1           0       -0.813727   -0.109038   -1.955392
     17          1           0       -1.465100    2.100245   -0.050647
     18          1           0       -2.945512    1.133809   -0.511460
     19          1           0       -1.940948   -0.176730    1.826885
 ---------------------------------------------------------------------

 SCF Done:  E(RB3LYP) =  -423.081480563     A.U. after    1 cycles

 The electronic state is 1-A.
 Alpha  occ. eigenvalues --  -19.14232 -19.13192 -10.25092 -10.25054 -10.23051
 Alpha  occ. eigenvalues --  -10.19901 -10.19445 -10.19328 -10.17659  -1.05486
 Alpha  occ. eigenvalues --   -1.02551  -0.85346  -0.77296  -0.70922  -0.65440
 Alpha  occ. eigenvalues --   -0.63372  -0.57724  -0.52661  -0.52409  -0.50960
 Alpha  occ. eigenvalues --   -0.47216  -0.42455  -0.41847  -0.40845  -0.39437
 Alpha  occ. eigenvalues --   -0.39110  -0.36038  -0.35894  -0.33450  -0.31729
 Alpha  occ. eigenvalues --   -0.31331  -0.28062  -0.25209  -0.23448
 Alpha virt. eigenvalues --    0.06791   0.08416   0.10573   0.11545   0.12434
 Alpha virt. eigenvalues --    0.12675   0.13118   0.14437   0.15038   0.15869
 Alpha virt. eigenvalues --    0.17447   0.18253   0.18968   0.19352   0.21044

 Mulliken charges:
               1
     1  C   -0.404183
     2  C   -0.165684
     3  C   -0.026604
     4  O   -0.421608
     5  C    0.424042
     6  C   -0.047238
     7  C   -0.218165
     8  C   -0.059678
     9  O   -0.319161
    10  H    0.122107
    11  H    0.131486
    12  H    0.112463
    13  H    0.087368
    14  H    0.084953
    15  H    0.295480
    16  H    0.099229
    17  H    0.101864
    18  H    0.106492
    19  H    0.096836
 Sum of Mulliken charges =   0.00000

 Dipole moment (field-independent basis, Debye):
    X=             -0.2514    Y=              1.2144    Z=              0.5186  Tot=              1.3442
 Quadrupole moment (field-independent basis, Debye-Ang):
   XX=            -59.1518   YY=            -52.1146   ZZ=            -49.3263
   XY=             -1.4497   XZ=             -0.1027   YZ=              0.3316

  Exact polarizability:  84.133   0.473  74.209   0.417  -0.493  69.661
 Approx polarizability: 113.080   3.361 112.106   0.188   2.527 108.040

                      1                      2                      3
                      A                      A                      A
 Frequencies --    120.9988               140.1657               150.1247
 Red. masses --      4.0149                 3.8975                 3.0937
 Frc consts  --      0.0346                 0.0451                 0.0411
 IR Inten    --      1.7570                 5.0868                 0.6280

                      4                      5                      6
                      A                      A                      A
 Frequencies --    170.5357               235.3062               325.0306
 Red. masses --      1.0564                 3.7801                 1.1769
 Frc consts  --      0.0181                 0.1233                 0.0733
 IR Inten    --      1.1396                 5.6593                82.6320

                      7                      8                      9
                      A                      A                      A
 Frequencies --    343.8400               417.0651               538.2519
 Red. masses --      2.7770                 3.2406                 3.5960
 Frc consts  --      0.1934                 0.3321                 0.6138
 IR Inten    --     19.0801                 7.1308                 9.4228

                     10                     11                     12
                      A                      A                      A
 Frequencies --    553.2671               608.0590               688.2981
 Red. masses --      3.0348                 2.7922                 3.7270
 Frc consts  --      0.5473                 0.6083                 1.0403
 IR Inten    --      3.8983                 3.1116                 9.1197

                     13                     14                     15
                      A                      A                      A
 Frequencies --    744.6420               808.1397               816.5776
 Red. masses --      6.1701                 2.4361                 3.0455
 Frc consts  --      2.0158                 0.9374                 1.1965
 IR Inten    --      9.4852                 2.9968                 7.2933

                     16                     17                     18
                      A                      A                      A
 Frequencies --    866.9978               905.4059               917.2831
 Red. masses --      2.7462                 1.8799                 2.6842
 Frc consts  --      1.2162                 0.9080                 1.3307
 IR Inten    --     24.2118                18.6384                14.3164

                     19                     20                     21
                      A                      A                      A
 Frequencies --    936.8594              1001.8956              1025.9119
 Red. masses --      2.6399                 1.3698                 1.5124
 Frc consts  --      1.3652                 0.8101                 0.9379
 IR Inten    --     14.6989                 6.6240                 3.4137

                     22                     23                     24
                      A                      A                      A
 Frequencies --   1045.3286              1059.2456              1100.1265
 Red. masses --      1.4761                 1.6245                 2.4843
 Frc consts  --      0.9503                 1.0739                 1.7715
 IR Inten    --      6.3728                18.6675                11.2594

                     25                     26                     27
                      A                      A                      A
 Frequencies --   1117.4534              1130.6774              1156.9015
 Red. masses --      1.6231                 2.2229                 1.7049
 Frc consts  --      1.1941                 1.6743                 1.3445
 IR Inten    --      2.6246                 4.0673                 1.2076

                     28                     29                     30
                      A                      A                      A
 Frequencies --   1163.1163              1169.5120              1173.7003
 Red. masses --      1.8131                 1.4256                 2.7056
 Frc consts  --      1.4452                 1.1488                 2.1960
 IR Inten    --      2.8882                 4.5275                39.1079

                     31                     32                     33
                      A                      A                      A
 Frequencies --   1212.8631              1236.2482              1264.6583
 Red. masses --      1.5890                 1.6335                 1.5067
 Frc consts  --      1.3772                 1.4709                 1.4198
 IR Inten    --     18.2127                 6.6588                 3.8423

                     34                     35                     36
                      A                      A                      A
 Frequencies --   1303.5409              1344.8700              1369.9980
 Red. masses --      1.2029                 1.5903                 1.4459
 Frc consts  --      1.2043                 1.6947                 1.5989
 IR Inten    --     61.6826                 8.1225                 2.6874

                     37                     38                     39
                      A                      A                      A
 Frequencies --   1413.0060              1475.1558              1488.9821
 Red. masses --      1.2679                 1.2851                 1.1766
 Frc consts  --      1.4915                 1.6476                 1.5369
 IR Inten    --      2.3274                 4.0073                 2.6537

                     40                     41                     42
                      A                      A                      A
 Frequencies --   1497.1597              1514.2025              3036.6285
 Red. masses --      1.1326                 2.1726                 1.0374
 Frc consts  --      1.4958                 2.9350                 5.6361
 IR Inten    --      1.5585                13.3360                32.9747

                     43                     44                     45
                      A                      A                      A
 Frequencies --   3065.5733              3087.1981              3094.4304
 Red. masses --      1.0545                 1.0869                 1.1013
 Frc consts  --      5.8388                 6.1031                 6.2130
 IR Inten    --     32.9109                29.7168                25.0836

                     46                     47                     48
                      A                      A                      A
 Frequencies --   3119.2280              3120.2924              3126.1951
 Red. masses --      1.0912                 1.0906                 1.0954
 Frc consts  --      6.2555                 6.2559                 6.3077
 IR Inten    --     69.7971                 4.6872                 5.9814

                     49                     50                     51
                      A                      A                      A
 Frequencies --   3136.6507              3148.8496              3804.0526
 Red. masses --      1.0956                 1.1112                 1.0663
 Frc consts  --      6.3510                 6.4918                 9.0916
 IR Inten    --     32.7319                27.9183                25.4611

 - Thermochemistry -
 -------------------
 Temperature   298.150 Kelvin.  Pressure   1.00000 Atm.
 Atom     1 has atomic number  6 and mass  12.00000

 Molecular mass:   126.06808 amu.
 Principal axes and moments of inertia in atomic units:
                           1         2         3
     Eigenvalues --   636.543011259.338771535.85955
           X            0.99993   0.01040  -0.00471
           Y           -0.01053   0.99959  -0.02675
           Z            0.00443   0.02680   0.99963
 This molecule is an asymmetric top.
 Rotational symmetry number  1.
 Warning -- assumption of classical behavior for rotation
           may cause significant error
 Rotational temperatures (Kelvin)      0.13607     0.06878     0.05639
 Rotational constants (GHZ):           2.83522     1.43309     1.17507
 Zero-point vibrational energy     414449.2 (Joules/Mol)
                                   99.05574 (Kcal/Mol)
 Warning -- explicit consideration of  11 degrees of freedom as
           vibrations may cause significant error
 Vibrational temperatures:    174.09   201.67   216.00   245.36   338.55
          (Kelvin)            467.65   494.71   600.06   774.42   796.03
                              874.86   990.31  1071.37  1162.73  1174.87
                             1247.41  1302.68  1319.76  1347.93  1441.50
                             1476.06  1503.99  1524.02  1582.83  1607.76
                             1626.79  1664.52  1673.46  1682.66  1688.69
                             1745.04  1778.68  1819.56  1875.50  1934.97
                             1971.12  2033.00  2122.42  2142.31  2154.08
                             2178.60  4369.03  4410.67  4441.78  4452.19
                             4487.87  4489.40  4497.89  4512.94  4530.49
                             5473.18

 Zero-point correction=                           0.157855 (Hartree/Particle)
 Thermal correction to Energy=                    0.166346
 Thermal correction to Enthalpy=                  0.167290
 Thermal correction to Gibbs Free Energy=         0.124902
 Sum of electronic and zero-point Energies=           -422.923625
 Sum of electronic and thermal Energies=              -422.915135
 Sum of electronic and thermal Enthalpies=            -422.914191
 Sum of electronic and thermal Free Energies=         -422.956578

                     E (Thermal)             CV                S
                      KCal/Mol        Cal/Mol-Kelvin    Cal/Mol-Kelvin
 Total                  104.383             32.591             89.212
 Electronic               0.000              0.000              0.000
 Translational            0.889              2.981             40.409
 Rotational               0.889              2.981             28.600
 Vibrational            102.606             26.629             20.203
 Vibration     1          0.609              1.932              3.084
 Vibration     2          0.615              1.913              2.802
 Vibration     3          0.618              1.903              2.671
 Vibration     4          0.626              1.879              2.430
 Vibration     5          0.655              1.787              1.838
 Vibration     6          0.709              1.625              1.285
 Vibration     7          0.723              1.588              1.194
 Vibration     8          0.780              1.433              0.902
 Vibration     9          0.893              1.165              0.569
 Vibration    10          0.909              1.133              0.537
 Vibration    11          0.967              1.015              0.436

 Optimization completed.
    -- Stationary point found.
 Normal termination of Gaussian 09 at Mon Jan 27 22:48:53 2020.
