 Gaussian 09, Revision D.01,
 Gaussian 09:  ES64L-G09RevD.01 24-Apr-2013

 -----------------------------
 # b3lyp 6-31G(2df,p) opt Freq
 -----------------------------

 -----
 titel
 -----
 Symbolic Z-matrix:
 Charge =  0 Multiplicity = 1

 SCF Done:  E(RB3LYP) =  -423.142728460     A.U. after   13 cycles
 Optimization completed.
    -- Stationary point found.
 Normal termination of Gaussian 09 at Mon Jan 27 12:11:28 2020.

 ----------------------------------------------------------------------
 #N Geom=AllCheck Guess=TCheck SCRF=Check GenChk RB3LYP/6-31G(2df,p) Fr
 eq
 ----------------------------------------------------------------------

 Structure from the checkpoint file:  "/scratch/puck/g09_440b1b15-3a2f-452c-92e8-ef692495e948/Gau-42873.chk"
 -----
 titel
 -----
 Charge =  0 Multiplicity = 1

                         Standard orientation:
 ---------------------------------------------------------------------
 Center     Atomic      Atomic             Coordinates (Angstroms)
 Number     Number       Type             X           Y           Z
 ---------------------------------------------------------------------
      1          6           0       -2.071604   -0.742507   -0.051453
      2          8           0       -2.527038    0.622229    0.071700
      3          6           0       -1.175176    1.126371    0.151669
      4          6           0       -0.617800   -0.284470   -0.006070
      5          6           0        0.549092   -0.985195    0.650126
      6          6           0        1.700525   -0.129106    1.154664
      7          6           0        1.997669    0.802032   -0.043483
      8          8           0        1.518036    0.144232   -1.219668
      9          6           0        0.526113   -0.774031   -0.842027
     10          1           0       -2.402217   -1.363076    0.792891
     11          1           0       -2.405512   -1.206193   -0.989531
     12          1           0       -0.945988    1.821438   -0.665885
     13          1           0       -0.977710    1.619888    1.113222
     14          1           0        0.384058   -1.960842    1.095425
     15          1           0        1.468847    0.443558    2.057778
     16          1           0        2.556728   -0.773677    1.377757
     17          1           0        1.486703    1.766395    0.081174
     18          1           0        3.063185    1.003648   -0.183603
     19          1           0        0.391005   -1.561392   -1.576030
 ---------------------------------------------------------------------

 SCF Done:  E(RB3LYP) =  -423.142728460     A.U. after    1 cycles

 The electronic state is 1-A.
 Alpha  occ. eigenvalues --  -19.14572 -19.13148 -10.23581 -10.23369 -10.23198
 Alpha  occ. eigenvalues --  -10.23116 -10.19896 -10.19617 -10.19586  -1.04738
 Alpha  occ. eigenvalues --   -1.03501  -0.85444  -0.76362  -0.69409  -0.69042
 Alpha  occ. eigenvalues --   -0.62371  -0.58384  -0.53700  -0.52333  -0.48648
 Alpha  occ. eigenvalues --   -0.47948  -0.46894  -0.43578  -0.42270  -0.40697
 Alpha  occ. eigenvalues --   -0.39544  -0.37845  -0.35581  -0.34235  -0.32041
 Alpha  occ. eigenvalues --   -0.31819  -0.28072  -0.24702  -0.23040
 Alpha virt. eigenvalues --    0.06650   0.08448   0.09512   0.10764   0.11933
 Alpha virt. eigenvalues --    0.13163   0.13618   0.14808   0.15708   0.16938
 Alpha virt. eigenvalues --    0.17264   0.18825   0.19350   0.20791   0.21836

 Mulliken charges:
               1
     1  C   -0.150532
     2  O   -0.277942
     3  C   -0.145285
     4  C    0.247900
     5  C   -0.170318
     6  C   -0.247912
     7  C   -0.087632
     8  O   -0.257201
     9  C    0.038933
    10  H    0.099506
    11  H    0.103387
    12  H    0.113316
    13  H    0.099808
    14  H    0.091601
    15  H    0.109626
    16  H    0.113517
    17  H    0.104410
    18  H    0.112617
    19  H    0.102199
 Sum of Mulliken charges =   0.00000

 Dipole moment (field-independent basis, Debye):
    X=              1.4813    Y=             -1.0040    Z=              1.2863  Tot=              2.2038
 Quadrupole moment (field-independent basis, Debye-Ang):
   XX=            -58.4496   YY=            -50.0290   ZZ=            -54.3542
   XY=              3.7856   XZ=              3.3266   YZ=              1.0612

  Exact polarizability:  83.367   4.596  72.981   2.794   0.994  66.534
 Approx polarizability: 110.595   3.508 106.913   1.207   1.242 103.258

                      1                      2                      3
                      A                      A                      A
 Frequencies --     89.8306               152.3132               166.1676
 Red. masses --      4.1719                 3.7645                 2.6707
 Frc consts  --      0.0198                 0.0515                 0.0434
 IR Inten    --      4.2170                 1.9388                 0.6378

                      4                      5                      6
                      A                      A                      A
 Frequencies --    204.0390               260.2893               396.9165
 Red. masses --      2.0061                 2.4563                 3.1624
 Frc consts  --      0.0492                 0.0981                 0.2935
 IR Inten    --      3.3198                 2.9017                 1.7343

                      7                      8                      9
                      A                      A                      A
 Frequencies --    456.7687               590.7629               691.4849
 Red. masses --      2.6853                 3.7743                 3.0349
 Frc consts  --      0.3301                 0.7761                 0.8550
 IR Inten    --      0.8067                 2.6979                 3.9336

                     10                     11                     12
                      A                      A                      A
 Frequencies --    706.5163               827.0645               844.6818
 Red. masses --      4.9270                 2.7561                 1.6451
 Frc consts  --      1.4490                 1.1108                 0.6916
 IR Inten    --      6.8846                 9.5189                 1.5564

                     13                     14                     15
                      A                      A                      A
 Frequencies --    855.9244               881.7729               927.9187
 Red. masses --      2.2860                 2.0749                 2.6817
 Frc consts  --      0.9867                 0.9505                 1.3605
 IR Inten    --      7.4733                20.1256                 7.1591

                     16                     17                     18
                      A                      A                      A
 Frequencies --    963.6330               978.3884               985.5421
 Red. masses --      2.8301                 1.6218                 3.0723
 Frc consts  --      1.5484                 0.9147                 1.7582
 IR Inten    --     17.0172                12.5656                16.4309

                     19                     20                     21
                      A                      A                      A
 Frequencies --    999.1493              1030.8501              1041.6780
 Red. masses --      2.6373                 9.9133                 1.3688
 Frc consts  --      1.5512                 6.2067                 0.8751
 IR Inten    --      0.9458                76.5532                 5.0996

                     22                     23                     24
                      A                      A                      A
 Frequencies --   1068.4864              1120.5252              1122.8855
 Red. masses --      1.9098                 3.3760                 1.7908
 Frc consts  --      1.2847                 2.4974                 1.3304
 IR Inten    --      7.8284                46.7104                 4.2791

                     25                     26                     27
                      A                      A                      A
 Frequencies --   1141.9836              1153.3568              1167.0803
 Red. masses --      1.7417                 1.0825                 1.7008
 Frc consts  --      1.3382                 0.8484                 1.3649
 IR Inten    --     27.0815                 0.6039                13.4232

                     28                     29                     30
                      A                      A                      A
 Frequencies --   1180.6576              1217.6251              1235.3580
 Red. masses --      2.8449                 1.2422                 1.3409
 Frc consts  --      2.3365                 1.0851                 1.2057
 IR Inten    --     15.0305                 0.5650                 7.4763

                     31                     32                     33
                      A                      A                      A
 Frequencies --   1274.3947              1297.6014              1309.2013
 Red. masses --      1.5400                 1.3043                 1.3584
 Frc consts  --      1.4736                 1.2939                 1.3718
 IR Inten    --      0.6744                 3.0052                 0.9922

                     34                     35                     36
                      A                      A                      A
 Frequencies --   1313.8594              1374.0541              1393.2452
 Red. masses --      1.4771                 1.4164                 1.3781
 Frc consts  --      1.5023                 1.5756                 1.5762
 IR Inten    --      3.6463                 3.7841                 2.5157

                     37                     38                     39
                      A                      A                      A
 Frequencies --   1453.7196              1495.8340              1509.7073
 Red. masses --      4.4824                 1.1114                 1.0813
 Frc consts  --      5.5811                 1.4651                 1.4520
 IR Inten    --     22.0847                 2.4386                 3.0639

                     40                     41                     42
                      A                      A                      A
 Frequencies --   1529.3291              1534.6815              2991.0195
 Red. masses --      1.0916                 1.1062                 1.0528
 Frc consts  --      1.5042                 1.5351                 5.5493
 IR Inten    --      0.7025                 0.5023               117.1362

                     43                     44                     45
                      A                      A                      A
 Frequencies --   3002.2333              3010.2529              3035.1477
 Red. masses --      1.0590                 1.0693                 1.1104
 Frc consts  --      5.6240                 5.7089                 6.0267
 IR Inten    --      8.2277                56.8993                42.5475

                     46                     47                     48
                      A                      A                      A
 Frequencies --   3044.6136              3049.3841              3081.8414
 Red. masses --      1.1078                 1.0600                 1.0950
 Frc consts  --      6.0502                 5.8076                 6.1277
 IR Inten    --     39.2519                29.2120                27.5728

                     49                     50                     51
                      A                      A                      A
 Frequencies --   3096.2688              3160.1524              3172.0330
 Red. masses --      1.1050                 1.0888                 1.0934
 Frc consts  --      6.2415                 6.4062                 6.4818
 IR Inten    --     38.9744                10.5506                18.4005

 - Thermochemistry -
 -------------------
 Temperature   298.150 Kelvin.  Pressure   1.00000 Atm.
 Atom     1 has atomic number  6 and mass  12.00000

 Molecular mass:   126.06808 amu.
 Principal axes and moments of inertia in atomic units:
                           1         2         3
     Eigenvalues --   512.137181436.969991472.43469
           X            0.99951   0.02021   0.02403
           Y           -0.02241   0.99524   0.09486
           Z           -0.02200  -0.09535   0.99520
 This molecule is an asymmetric top.
 Rotational symmetry number  1.
 Warning -- assumption of classical behavior for rotation
           may cause significant error
 Rotational temperatures (Kelvin)      0.16912     0.06028     0.05882
 Rotational constants (GHZ):           3.52394     1.25594     1.22569
 Zero-point vibrational energy     422211.3 (Joules/Mol)
                                  100.91093 (Kcal/Mol)
 Warning -- explicit consideration of   8 degrees of freedom as
           vibrations may cause significant error
 Vibrational temperatures:    129.25   219.14   239.08   293.57   374.50
          (Kelvin)            571.07   657.19   849.98   994.89  1016.52
                             1189.96  1215.31  1231.48  1268.67  1335.07
                             1386.45  1407.68  1417.97  1437.55  1483.16
                             1498.74  1537.31  1612.18  1615.58  1643.06
                             1659.42  1679.17  1698.70  1751.89  1777.40
                             1833.57  1866.96  1883.65  1890.35  1976.95
                             2004.57  2091.58  2152.17  2172.13  2200.36
                             2208.06  4303.40  4319.54  4331.08  4366.90
                             4380.51  4387.38  4434.08  4454.83  4546.75
                             4563.84

 Zero-point correction=                           0.160812 (Hartree/Particle)
 Thermal correction to Energy=                    0.168440
 Thermal correction to Enthalpy=                  0.169384
 Thermal correction to Gibbs Free Energy=         0.128389
 Sum of electronic and zero-point Energies=           -422.981917
 Sum of electronic and thermal Energies=              -422.974289
 Sum of electronic and thermal Enthalpies=            -422.973344
 Sum of electronic and thermal Free Energies=         -423.014339

                     E (Thermal)             CV                S
                      KCal/Mol        Cal/Mol-Kelvin    Cal/Mol-Kelvin
 Total                  105.698             29.155             86.281
 Electronic               0.000              0.000              0.000
 Translational            0.889              2.981             40.409
 Rotational               0.889              2.981             28.473
 Vibrational            103.920             23.193             17.399
 Vibration     1          0.602              1.956              3.664
 Vibration     2          0.619              1.900              2.643
 Vibration     3          0.624              1.884              2.478
 Vibration     4          0.640              1.834              2.096
 Vibration     5          0.668              1.745              1.660
 Vibration     6          0.763              1.477              0.974
 Vibration     7          0.815              1.346              0.776
 Vibration     8          0.948              1.051              0.466

 Normal termination of Gaussian 09 at Mon Jan 27 12:53:23 2020.
