 Gaussian 09, Revision D.01,
 Gaussian 09:  ES64L-G09RevD.01 24-Apr-2013

 -----------------------------
 # b3lyp 6-31G(2df,p) opt Freq
 -----------------------------

 -----
 titel
 -----
 Symbolic Z-matrix:
 Charge =  0 Multiplicity = 1

 SCF Done:  E(RB3LYP) =  -423.187026193     A.U. after   13 cycles
 Optimization completed.
    -- Stationary point found.
 Normal termination of Gaussian 09 at Mon Jan 27 12:19:07 2020.

 ----------------------------------------------------------------------
 #N Geom=AllCheck Guess=TCheck SCRF=Check GenChk RB3LYP/6-31G(2df,p) Fr
 eq
 ----------------------------------------------------------------------

 Structure from the checkpoint file:  "/scratch/puck/g09_b6b4af11-9faa-45ab-a44c-243ac2bd5e6b/Gau-35499.chk"
 -----
 titel
 -----
 Charge =  0 Multiplicity = 1

                         Standard orientation:
 ---------------------------------------------------------------------
 Center     Atomic      Atomic             Coordinates (Angstroms)
 Number     Number       Type             X           Y           Z
 ---------------------------------------------------------------------
      1          6           0        1.999956    0.802261    0.063639
      2          6           0        2.024341   -0.754803    0.019338
      3          6           0        0.615152   -0.765137   -0.630259
      4          6           0        0.596424    0.810128   -0.601751
      5          6           0       -0.589824    1.060263    0.339350
      6          6           0       -1.883302    0.641647   -0.388658
      7          8           0       -1.769882   -0.793012   -0.392219
      8          6           0       -0.557560   -1.055350    0.313834
      9          8           0       -0.477481   -0.024279    1.284130
     10          1           0        2.023943    1.232415    1.067702
     11          1           0        2.776538    1.280482   -0.537619
     12          1           0        2.806343   -1.171544   -0.619508
     13          1           0        2.078454   -1.242866    0.995811
     14          1           0        0.506036   -1.275825   -1.586617
     15          1           0        0.509865    1.343521   -1.549559
     16          1           0       -0.618134    2.014129    0.865524
     17          1           0       -2.784612    0.937584    0.160231
     18          1           0       -1.942210    1.021122   -1.414622
     19          1           0       -0.608449   -2.034745    0.790409
 ---------------------------------------------------------------------

 SCF Done:  E(RB3LYP) =  -423.187026193     A.U. after    1 cycles

 The electronic state is 1-A.
 Alpha  occ. eigenvalues --  -19.14613 -19.13749 -10.27103 -10.23670 -10.22857
 Alpha  occ. eigenvalues --  -10.18955 -10.18408 -10.18090 -10.18028  -1.09098
 Alpha  occ. eigenvalues --   -0.98632  -0.84008  -0.76794  -0.69323  -0.66124
 Alpha  occ. eigenvalues --   -0.60333  -0.58984  -0.54070  -0.52576  -0.50622
 Alpha  occ. eigenvalues --   -0.48165  -0.44046  -0.42503  -0.41352  -0.39737
 Alpha  occ. eigenvalues --   -0.39153  -0.35840  -0.35023  -0.33476  -0.32180
 Alpha  occ. eigenvalues --   -0.30575  -0.29965  -0.27028  -0.24717
 Alpha virt. eigenvalues --    0.08067   0.10521   0.11336   0.11556   0.12183
 Alpha virt. eigenvalues --    0.13685   0.14416   0.15361   0.16047   0.17046
 Alpha virt. eigenvalues --    0.17610   0.18970   0.19505   0.22129   0.22247

 Mulliken charges:
               1
     1  C   -0.236796
     2  C   -0.234807
     3  C   -0.042568
     4  C   -0.013626
     5  C    0.021510
     6  C   -0.087092
     7  O   -0.276880
     8  C    0.182045
     9  O   -0.258719
    10  H    0.106223
    11  H    0.098736
    12  H    0.099586
    13  H    0.104624
    14  H    0.079575
    15  H    0.071697
    16  H    0.087422
    17  H    0.105817
    18  H    0.101873
    19  H    0.091380
 Sum of Mulliken charges =   0.00000

 Dipole moment (field-independent basis, Debye):
    X=              1.0196    Y=              1.1385    Z=             -0.9050  Tot=              1.7761
 Quadrupole moment (field-independent basis, Debye-Ang):
   XX=            -54.5688   YY=            -50.1368   ZZ=            -54.7627
   XY=             -3.2231   XZ=             -0.6655   YZ=             -1.0179

  Exact polarizability:  81.219  -3.280  73.146   0.468  -1.182  63.875
 Approx polarizability: 105.831  -2.277 110.012   1.648  -1.442 102.063

                      1                      2                      3
                      A                      A                      A
 Frequencies --    123.5885               241.7220               251.4438
 Red. masses --      2.0872                 2.2998                 3.9369
 Frc consts  --      0.0188                 0.0792                 0.1467
 IR Inten    --      0.3553                 1.9636                 1.0050

                      4                      5                      6
                      A                      A                      A
 Frequencies --    350.4402               435.0752               594.4237
 Red. masses --      2.7618                 4.7098                 4.1685
 Frc consts  --      0.1998                 0.5253                 0.8678
 IR Inten    --      0.7694                 4.0190                 2.3734

                      7                      8                      9
                      A                      A                      A
 Frequencies --    633.0498               732.0591               756.0779
 Red. masses --      5.1487                 1.3904                 2.0298
 Frc consts  --      1.2157                 0.4390                 0.6837
 IR Inten    --      8.7187                 3.1919                 1.3001

                     10                     11                     12
                      A                      A                      A
 Frequencies --    795.7265               812.1160               845.4997
 Red. masses --      5.0233                 3.9825                 2.4629
 Frc consts  --      1.8740                 1.5475                 1.0374
 IR Inten    --      1.0546                 2.2097                11.4734

                     13                     14                     15
                      A                      A                      A
 Frequencies --    868.9208               903.8603               937.7744
 Red. masses --      3.2241                 3.0487                 2.4420
 Frc consts  --      1.4342                 1.4675                 1.2653
 IR Inten    --      4.1037                60.1679                 8.3328

                     16                     17                     18
                      A                      A                      A
 Frequencies --    943.7853               959.7820               975.2124
 Red. masses --      2.1902                 2.6785                 4.2482
 Frc consts  --      1.1494                 1.4537                 2.3804
 IR Inten    --     24.5231                12.5841                27.2771

                     19                     20                     21
                      A                      A                      A
 Frequencies --    987.4447              1023.0517              1028.2022
 Red. masses --      2.8863                 1.7037                 2.4367
 Frc consts  --      1.6581                 1.0506                 1.5178
 IR Inten    --     17.7556                 0.9638                20.9018

                     22                     23                     24
                      A                      A                      A
 Frequencies --   1042.2893              1073.0018              1093.1080
 Red. masses --      2.1042                 1.7969                 3.4776
 Frc consts  --      1.3468                 1.2189                 2.4483
 IR Inten    --      1.5063                 4.0082                86.2719

                     25                     26                     27
                      A                      A                      A
 Frequencies --   1145.1074              1174.9590              1191.2242
 Red. masses --      1.7047                 1.8921                 1.1230
 Frc consts  --      1.3170                 1.5390                 0.9389
 IR Inten    --     12.8183                 8.8500                 4.6967

                     28                     29                     30
                      A                      A                      A
 Frequencies --   1221.7019              1247.6858              1261.8803
 Red. masses --      1.2965                 1.3587                 1.4137
 Frc consts  --      1.1402                 1.2462                 1.3264
 IR Inten    --      0.8911                 0.6649                 2.2926

                     31                     32                     33
                      A                      A                      A
 Frequencies --   1265.4196              1271.2591              1286.4025
 Red. masses --      1.4071                 1.2701                 1.3181
 Frc consts  --      1.3276                 1.2093                 1.2852
 IR Inten    --      2.0798                 0.4993                 2.7802

                     34                     35                     36
                      A                      A                      A
 Frequencies --   1288.4688              1326.0791              1332.3909
 Red. masses --      1.4691                 1.4740                 1.8407
 Frc consts  --      1.4369                 1.5272                 1.9253
 IR Inten    --      1.4892                 2.6399                 1.4951

                     37                     38                     39
                      A                      A                      A
 Frequencies --   1345.2768              1378.8877              1467.6790
 Red. masses --      1.5012                 1.4356                 1.0833
 Frc consts  --      1.6007                 1.6083                 1.3749
 IR Inten    --     10.0640                 4.3130                 0.8510

                     40                     41                     42
                      A                      A                      A
 Frequencies --   1488.1406              1518.5753              3028.4315
 Red. masses --      1.1198                 1.0934                 1.0564
 Frc consts  --      1.4611                 1.4857                 5.7082
 IR Inten    --      1.7884                 0.8906                61.3103

                     43                     44                     45
                      A                      A                      A
 Frequencies --   3059.6169              3065.5370              3072.8438
 Red. masses --      1.0573                 1.0604                 1.1092
 Frc consts  --      5.8316                 5.8710                 6.1710
 IR Inten    --     33.4690                44.9079                27.4700

                     46                     47                     48
                      A                      A                      A
 Frequencies --   3094.7438              3104.9185              3115.3022
 Red. masses --      1.0926                 1.1024                 1.0937
 Frc consts  --      6.1652                 6.2619                 6.2538
 IR Inten    --     17.3082                 6.3236                 5.5434

                     49                     50                     51
                      A                      A                      A
 Frequencies --   3124.2476              3126.2659              3131.3417
 Red. masses --      1.0946                 1.0963                 1.0939
 Frc consts  --      6.2950                 6.3130                 6.3195
 IR Inten    --     55.8723                61.6562                 0.8538

 - Thermochemistry -
 -------------------
 Temperature   298.150 Kelvin.  Pressure   1.00000 Atm.
 Atom     1 has atomic number  6 and mass  12.00000

 Molecular mass:   126.06808 amu.
 Principal axes and moments of inertia in atomic units:
                           1         2         3
     Eigenvalues --   516.072961074.008311207.79236
           X            0.99962  -0.02717   0.00387
           Y            0.02727   0.99917  -0.03029
           Z           -0.00304   0.03038   0.99953
 This molecule is an asymmetric top.
 Rotational symmetry number  1.
 Warning -- assumption of classical behavior for rotation
           may cause significant error
 Rotational temperatures (Kelvin)      0.16783     0.08065     0.07171
 Rotational constants (GHZ):           3.49707     1.68038     1.49425
 Zero-point vibrational energy     427916.4 (Joules/Mol)
                                  102.27448 (Kcal/Mol)
 Warning -- explicit consideration of   6 degrees of freedom as
           vibrations may cause significant error
 Vibrational temperatures:    177.82   347.78   361.77   504.20   625.98
          (Kelvin)            855.24   910.82  1053.27  1087.83  1144.87
                             1168.45  1216.48  1250.18  1300.45  1349.25
                             1357.89  1380.91  1403.11  1420.71  1471.94
                             1479.35  1499.62  1543.81  1572.74  1647.55
                             1690.50  1713.90  1757.75  1795.14  1815.56
                             1820.65  1829.06  1850.84  1853.82  1907.93
                             1917.01  1935.55  1983.91  2111.66  2141.10
                             2184.89  4357.23  4402.10  4410.62  4421.13
                             4452.64  4467.28  4482.22  4495.09  4497.99
                             4505.30

 Zero-point correction=                           0.162985 (Hartree/Particle)
 Thermal correction to Energy=                    0.169528
 Thermal correction to Enthalpy=                  0.170472
 Thermal correction to Gibbs Free Energy=         0.132160
 Sum of electronic and zero-point Energies=           -423.024041
 Sum of electronic and thermal Energies=              -423.017498
 Sum of electronic and thermal Enthalpies=            -423.016554
 Sum of electronic and thermal Free Energies=         -423.054867

                     E (Thermal)             CV                S
                      KCal/Mol        Cal/Mol-Kelvin    Cal/Mol-Kelvin
 Total                  106.380             27.130             80.635
 Electronic               0.000              0.000              0.000
 Translational            0.889              2.981             40.409
 Rotational               0.889              2.981             27.995
 Vibrational            104.603             21.169             12.232
 Vibration     1          0.610              1.929              3.043
 Vibration     2          0.658              1.776              1.790
 Vibration     3          0.663              1.760              1.720
 Vibration     4          0.727              1.574              1.164
 Vibration     5          0.796              1.394              0.842
 Vibration     6          0.952              1.044              0.459

 Optimization completed.
    -- Stationary point found.
 Normal termination of Gaussian 09 at Mon Jan 27 13:06:59 2020.
