 Gaussian 09, Revision D.01,
 Gaussian 09:  ES64L-G09RevD.01 24-Apr-2013

 -----------------------------
 # b3lyp 6-31G(2df,p) opt Freq
 -----------------------------

 -----
 titel
 -----
 Symbolic Z-matrix:
 Charge =  0 Multiplicity = 1

 SCF Done:  E(RB3LYP) =  -423.168922819     A.U. after   14 cycles
 Optimization completed.
    -- Stationary point found.
 Normal termination of Gaussian 09 at Tue Jan 28 14:08:47 2020.

 ----------------------------------------------------------------------
 #N Geom=AllCheck Guess=TCheck SCRF=Check GenChk RB3LYP/6-31G(2df,p) Fr
 eq
 ----------------------------------------------------------------------

 Structure from the checkpoint file:  "/scratch/puck/g09_aa9307c7-be0c-4f96-8878-630c60724a4e/Gau-147280.chk"
 -----
 titel
 -----
 Charge =  0 Multiplicity = 1

                         Standard orientation:
 ---------------------------------------------------------------------
 Center     Atomic      Atomic             Coordinates (Angstroms)
 Number     Number       Type             X           Y           Z
 ---------------------------------------------------------------------
      1          8           0       -3.531533    0.161937   -0.151588
      2          6           0       -2.213527    0.293923    0.354460
      3          6           0       -1.156411   -0.264269   -0.607440
      4          6           0        0.246458   -0.109903   -0.078406
      5          6           0        0.889537    1.274026    0.076241
      6          6           0        2.372940    0.988489   -0.036774
      7          6           0        2.622624   -0.303449   -0.264348
      8          6           0        1.345113   -1.074634   -0.284611
      9          8           0        0.623138   -1.016521    0.970842
     10          1           0       -3.734141   -0.777771   -0.200477
     11          1           0       -2.061599    1.368787    0.500707
     12          1           0       -2.104355   -0.188022    1.337344
     13          1           0       -1.352764   -1.330472   -0.775047
     14          1           0       -1.252068    0.243232   -1.574689
     15          1           0        0.546252    1.963786   -0.706155
     16          1           0        0.632331    1.731841    1.038903
     17          1           0        3.122383    1.761799    0.089140
     18          1           0        3.598603   -0.756385   -0.384771
     19          1           0        1.232118   -2.005218   -0.833727
 ---------------------------------------------------------------------

 SCF Done:  E(RB3LYP) =  -423.168922819     A.U. after    1 cycles

 The electronic state is 1-A.
 Alpha  occ. eigenvalues --  -19.14316 -19.13406 -10.23895 -10.23320 -10.22678
 Alpha  occ. eigenvalues --  -10.19326 -10.19130 -10.18723 -10.18519  -1.06393
 Alpha  occ. eigenvalues --   -1.01503  -0.81995  -0.77320  -0.70697  -0.66280
 Alpha  occ. eigenvalues --   -0.62427  -0.56137  -0.54967  -0.51151  -0.50269
 Alpha  occ. eigenvalues --   -0.45896  -0.44369  -0.43309  -0.41049  -0.40367
 Alpha  occ. eigenvalues --   -0.39435  -0.37632  -0.36223  -0.35373  -0.32689
 Alpha  occ. eigenvalues --   -0.30408  -0.26914  -0.25720  -0.24393
 Alpha virt. eigenvalues --    0.00084   0.07776   0.09224   0.11128   0.11966
 Alpha virt. eigenvalues --    0.12956   0.14242   0.15129   0.15862   0.16586
 Alpha virt. eigenvalues --    0.17225   0.18314   0.19092   0.19932   0.22348

 Mulliken charges:
               1
     1  O   -0.418329
     2  C   -0.059879
     3  C   -0.314483
     4  C    0.414313
     5  C   -0.327276
     6  C   -0.079372
     7  C   -0.076466
     8  C   -0.077547
     9  O   -0.305036
    10  H    0.281956
    11  H    0.113046
    12  H    0.107740
    13  H    0.094759
    14  H    0.108191
    15  H    0.113051
    16  H    0.126614
    17  H    0.103192
    18  H    0.103230
    19  H    0.092297
 Sum of Mulliken charges =   0.00000

 Dipole moment (field-independent basis, Debye):
    X=              0.9922    Y=             -0.2211    Z=             -1.1978  Tot=              1.5710
 Quadrupole moment (field-independent basis, Debye-Ang):
   XX=            -54.9065   YY=            -49.6353   ZZ=            -55.5848
   XY=              5.5074   XZ=             -1.8183   YZ=              3.0922

  Exact polarizability:  91.103  -0.668  79.539  -0.991   3.948  56.212
 Approx polarizability: 114.158  -5.703 131.059  -2.402   3.435  91.807

                      1                      2                      3
                      A                      A                      A
 Frequencies --     68.8275               102.0250               120.3822
 Red. masses --      4.0132                 1.9796                 3.9980
 Frc consts  --      0.0112                 0.0121                 0.0341
 IR Inten    --      2.2723                 4.6972                 0.6376

                      4                      5                      6
                      A                      A                      A
 Frequencies --    251.1998               296.4016               327.5847
 Red. masses --      2.7245                 1.2400                 2.5346
 Frc consts  --      0.1013                 0.0642                 0.1603
 IR Inten    --      1.3991                77.1776                13.0340

                      7                      8                      9
                      A                      A                      A
 Frequencies --    345.3594               382.7716               425.1974
 Red. masses --      4.3262                 2.8547                 2.7116
 Frc consts  --      0.3040                 0.2464                 0.2888
 IR Inten    --     23.4894                 3.3759                11.6530

                     10                     11                     12
                      A                      A                      A
 Frequencies --    531.8220               695.7328               715.6623
 Red. masses --      2.6143                 4.2525                 2.9835
 Frc consts  --      0.4357                 1.2128                 0.9003
 IR Inten    --      7.1192                 1.1117                15.9968

                     13                     14                     15
                      A                      A                      A
 Frequencies --    738.3788               779.9388               816.8179
 Red. masses --      2.1394                 1.2428                 3.7817
 Frc consts  --      0.6872                 0.4454                 1.4866
 IR Inten    --      8.7502                 0.7415                15.3945

                     16                     17                     18
                      A                      A                      A
 Frequencies --    869.5479               910.4166               941.7047
 Red. masses --      3.0935                 3.7421                 1.7247
 Frc consts  --      1.3781                 1.8274                 0.9012
 IR Inten    --     17.0687                30.9586                 5.7316

                     19                     20                     21
                      A                      A                      A
 Frequencies --    949.8009               975.2269               989.3755
 Red. masses --      1.4621                 1.9071                 2.8751
 Frc consts  --      0.7771                 1.0687                 1.6582
 IR Inten    --      2.1466                 1.5463                 7.7347

                     22                     23                     24
                      A                      A                      A
 Frequencies --   1013.9669              1064.7196              1072.8421
 Red. masses --      1.9556                 2.5637                 1.7196
 Frc consts  --      1.1846                 1.7123                 1.1661
 IR Inten    --     15.9568                38.6006                 2.0093

                     25                     26                     27
                      A                      A                      A
 Frequencies --   1081.1066              1131.3942              1139.7954
 Red. masses --      3.4139                 1.2244                 1.2623
 Frc consts  --      2.3509                 0.9234                 0.9662
 IR Inten    --     90.5756                10.5844                 3.4725

                     28                     29                     30
                      A                      A                      A
 Frequencies --   1188.7934              1232.1296              1261.5282
 Red. masses --      1.2351                 1.6703                 1.4486
 Frc consts  --      1.0284                 1.4940                 1.3583
 IR Inten    --      3.8387                 0.6885                 3.9551

                     31                     32                     33
                      A                      A                      A
 Frequencies --   1296.8217              1320.8097              1332.0172
 Red. masses --      1.4713                 1.4021                 1.5346
 Frc consts  --      1.4579                 1.4411                 1.6042
 IR Inten    --      4.4927                 2.2446                17.3234

                     34                     35                     36
                      A                      A                      A
 Frequencies --   1370.9479              1397.7449              1421.1196
 Red. masses --      1.6856                 1.3117                 1.2719
 Frc consts  --      1.8665                 1.5099                 1.5134
 IR Inten    --      4.9546                10.9788                40.6059

                     37                     38                     39
                      A                      A                      A
 Frequencies --   1438.1423              1462.4033              1471.5513
 Red. masses --      2.4131                 1.2849                 1.1397
 Frc consts  --      2.9406                 1.6190                 1.4541
 IR Inten    --     10.8477                 2.0868                 4.7742

                     40                     41                     42
                      A                      A                      A
 Frequencies --   1513.0134              1662.6365              2998.4037
 Red. masses --      1.0907                 6.0441                 1.0668
 Frc consts  --      1.4712                 9.8441                 5.6509
 IR Inten    --      0.5601                 4.3491                32.6813

                     43                     44                     45
                      A                      A                      A
 Frequencies --   3022.8673              3027.4099              3059.6874
 Red. masses --      1.0620                 1.0605                 1.0969
 Frc consts  --      5.7176                 5.7266                 6.0504
 IR Inten    --     20.8826                24.0636                 1.7184

                     46                     47                     48
                      A                      A                      A
 Frequencies --   3064.4990              3083.9964              3155.1009
 Red. masses --      1.0966                 1.1033                 1.0906
 Frc consts  --      6.0678                 6.1829                 6.3964
 IR Inten    --     15.2367                45.2801                24.9204

                     49                     50                     51
                      A                      A                      A
 Frequencies --   3191.4726              3220.7136              3815.5686
 Red. masses --      1.0867                 1.1034                 1.0662
 Frc consts  --      6.5216                 6.7432                 9.1451
 IR Inten    --      8.4089                18.1309                18.3032

 - Thermochemistry -
 -------------------
 Temperature   298.150 Kelvin.  Pressure   1.00000 Atm.
 Atom     1 has atomic number  8 and mass  15.99491

 Molecular mass:   126.06808 amu.
 Principal axes and moments of inertia in atomic units:
                           1         2         3
     Eigenvalues --   410.930741945.055942136.60585
           X            0.99994   0.01049  -0.00330
           Y           -0.01024   0.99756   0.06904
           Z            0.00402  -0.06900   0.99761
 This molecule is an asymmetric top.
 Rotational symmetry number  1.
 Rotational temperatures (Kelvin)      0.21077     0.04453     0.04054
 Rotational constants (GHZ):           4.39184     0.92786     0.84468
 Zero-point vibrational energy     417182.0 (Joules/Mol)
                                   99.70888 (Kcal/Mol)
 Warning -- explicit consideration of  10 degrees of freedom as
           vibrations may cause significant error
 Vibrational temperatures:     99.03   146.79   173.20   361.42   426.46
          (Kelvin)            471.32   496.89   550.72   611.76   765.17
                             1001.00  1029.68  1062.36  1122.16  1175.22
                             1251.08  1309.88  1354.90  1366.55  1403.13
                             1423.49  1458.87  1531.89  1543.58  1555.47
                             1627.82  1639.91  1710.41  1772.76  1815.06
                             1865.83  1900.35  1916.47  1972.49  2011.04
                             2044.67  2069.16  2104.07  2117.23  2176.89
                             2392.16  4314.03  4349.23  4355.76  4402.20
                             4409.13  4437.18  4539.48  4591.81  4633.88
                             5489.75

 Zero-point correction=                           0.158896 (Hartree/Particle)
 Thermal correction to Energy=                    0.167473
 Thermal correction to Enthalpy=                  0.168418
 Thermal correction to Gibbs Free Energy=         0.125252
 Sum of electronic and zero-point Energies=           -423.010027
 Sum of electronic and thermal Energies=              -423.001449
 Sum of electronic and thermal Enthalpies=            -423.000505
 Sum of electronic and thermal Free Energies=         -423.043670

                     E (Thermal)             CV                S
                      KCal/Mol        Cal/Mol-Kelvin    Cal/Mol-Kelvin
 Total                  105.091             32.425             90.849
 Electronic               0.000              0.000              0.000
 Translational            0.889              2.981             40.409
 Rotational               0.889              2.981             28.925
 Vibrational            103.314             26.463             21.515
 Vibration     1          0.598              1.969              4.187
 Vibration     2          0.604              1.948              3.415
 Vibration     3          0.609              1.932              3.094
 Vibration     4          0.663              1.761              1.722
 Vibration     5          0.690              1.680              1.437
 Vibration     6          0.711              1.620              1.272
 Vibration     7          0.724              1.585              1.187
 Vibration     8          0.752              1.507              1.028
 Vibration     9          0.787              1.415              0.874
 Vibration    10          0.887              1.180              0.583

 Normal termination of Gaussian 09 at Tue Jan 28 14:48:27 2020.
