 Gaussian 09, Revision D.01,
 Gaussian 09:  ES64L-G09RevD.01 24-Apr-2013

 -----------------------------
 # b3lyp 6-31G(2df,p) opt Freq
 -----------------------------

 -----
 titel
 -----
 Symbolic Z-matrix:
 Charge =  0 Multiplicity = 1

 SCF Done:  E(RB3LYP) =  -423.221428358     A.U. after   14 cycles
 Optimization completed.
    -- Stationary point found.
 Normal termination of Gaussian 09 at Tue Jan 28 14:08:46 2020.

 ----------------------------------------------------------------------
 #N Geom=AllCheck Guess=TCheck SCRF=Check GenChk RB3LYP/6-31G(2df,p) Fr
 eq
 ----------------------------------------------------------------------

 Structure from the checkpoint file:  "/scratch/puck/g09_bc60460f-a036-440b-ae5d-f80f6766fb25/Gau-25412.chk"
 -----
 titel
 -----
 Charge =  0 Multiplicity = 1

                         Standard orientation:
 ---------------------------------------------------------------------
 Center     Atomic      Atomic             Coordinates (Angstroms)
 Number     Number       Type             X           Y           Z
 ---------------------------------------------------------------------
      1          6           0        3.253048    0.060672   -0.151515
      2          6           0        1.966794   -0.465869    0.491958
      3          6           0        0.683666   -0.067095   -0.254374
      4          6           0        0.343076    1.409455   -0.205661
      5          6           0       -0.956681    1.659375    0.014279
      6          6           0       -1.674734    0.377318    0.130705
      7          8           0       -2.861840    0.142352    0.062938
      8          6           0       -0.608250   -0.715060    0.285231
      9          8           0       -0.979070   -1.906322   -0.356306
     10          1           0        4.133027   -0.275415    0.404745
     11          1           0        3.353999   -0.297618   -1.181787
     12          1           0        3.282407    1.155154   -0.176979
     13          1           0        2.003479   -1.560700    0.532631
     14          1           0        1.900121   -0.120614    1.531949
     15          1           0        0.784842   -0.370522   -1.306268
     16          1           0        1.097832    2.174283   -0.357369
     17          1           0       -1.442315    2.626334    0.040634
     18          1           0       -0.479995   -0.875029    1.372398
     19          1           0       -1.947644   -1.896890   -0.376753
 ---------------------------------------------------------------------

 SCF Done:  E(RB3LYP) =  -423.221428358     A.U. after    1 cycles

 The electronic state is 1-A.
 Alpha  occ. eigenvalues --  -19.13667 -19.13492 -10.26664 -10.23626 -10.22124
 Alpha  occ. eigenvalues --  -10.20513 -10.20097 -10.19345 -10.18484  -1.04947
 Alpha  occ. eigenvalues --   -1.01554  -0.86140  -0.78154  -0.71543  -0.67875
 Alpha  occ. eigenvalues --   -0.61868  -0.57107  -0.55614  -0.49435  -0.49016
 Alpha  occ. eigenvalues --   -0.47518  -0.44733  -0.42882  -0.41642  -0.40579
 Alpha  occ. eigenvalues --   -0.39065  -0.38755  -0.36613  -0.35404  -0.34051
 Alpha  occ. eigenvalues --   -0.34027  -0.28029  -0.27521  -0.24660
 Alpha virt. eigenvalues --   -0.05489   0.04540   0.08659   0.10447   0.11631
 Alpha virt. eigenvalues --    0.12320   0.12994   0.14871   0.15627   0.16605
 Alpha virt. eigenvalues --    0.17090   0.18938   0.20393   0.20663   0.23453

 Mulliken charges:
               1
     1  C   -0.392746
     2  C   -0.197758
     3  C   -0.046103
     4  C   -0.050945
     5  C   -0.193025
     6  C    0.336251
     7  O   -0.350894
     8  C    0.025663
     9  O   -0.443700
    10  H    0.120580
    11  H    0.121982
    12  H    0.115732
    13  H    0.119999
    14  H    0.099456
    15  H    0.110441
    16  H    0.119852
    17  H    0.122526
    18  H    0.090416
    19  H    0.292272
 Sum of Mulliken charges =   0.00000

 Dipole moment (field-independent basis, Debye):
    X=              2.7452    Y=              1.6323    Z=              0.3353  Tot=              3.2114
 Quadrupole moment (field-independent basis, Debye-Ang):
   XX=            -58.9883   YY=            -52.7564   ZZ=            -52.9259
   XY=              0.9761   XZ=             -0.0580   YZ=             -0.8861

  Exact polarizability: 103.042   0.551  76.525  -1.965  -0.222  55.736
 Approx polarizability: 156.074   4.028 110.946  -4.833   1.667  88.562

                      1                      2                      3
                      A                      A                      A
 Frequencies --     64.8387                94.4800               167.0989
 Red. masses --      5.3887                 2.1718                 2.4214
 Frc consts  --      0.0133                 0.0114                 0.0398
 IR Inten    --      1.1543                 0.2417                 1.0853

                      4                      5                      6
                      A                      A                      A
 Frequencies --    206.5969               239.8701               273.8839
 Red. masses --      2.1123                 1.9963                 2.9722
 Frc consts  --      0.0531                 0.0677                 0.1314
 IR Inten    --      2.6979                 9.9185                 8.2073

                      7                      8                      9
                      A                      A                      A
 Frequencies --    319.2328               350.1450               408.5427
 Red. masses --      3.4695                 3.8999                 1.1726
 Frc consts  --      0.2083                 0.2817                 0.1153
 IR Inten    --      3.1161                 6.0063                76.7750

                     10                     11                     12
                      A                      A                      A
 Frequencies --    509.3805               525.0686               609.0985
 Red. masses --      3.5241                 2.6542                 4.2571
 Frc consts  --      0.5387                 0.4311                 0.9305
 IR Inten    --      7.7100                 1.3525                 3.7011

                     13                     14                     15
                      A                      A                      A
 Frequencies --    704.6082               722.2152               782.1989
 Red. masses --      4.6244                 2.9505                 1.5337
 Frc consts  --      1.3527                 0.9067                 0.5529
 IR Inten    --      0.4079                 7.6805                 9.6130

                     16                     17                     18
                      A                      A                      A
 Frequencies --    791.5005               880.4602               908.2595
 Red. masses --      1.4462                 3.1744                 2.0561
 Frc consts  --      0.5338                 1.4499                 0.9993
 IR Inten    --     20.8286                14.1027                14.1181

                     19                     20                     21
                      A                      A                      A
 Frequencies --    963.8518               998.2773              1015.5351
 Red. masses --      1.7855                 1.3168                 2.7852
 Frc consts  --      0.9773                 0.7732                 1.6924
 IR Inten    --      1.1340                 0.8373                 1.0474

                     22                     23                     24
                      A                      A                      A
 Frequencies --   1065.2184              1095.8576              1117.5400
 Red. masses --      2.0431                 1.8723                 1.4997
 Frc consts  --      1.3659                 1.3248                 1.1035
 IR Inten    --     10.3826                50.4651                 7.3127

                     25                     26                     27
                      A                      A                      A
 Frequencies --   1141.2881              1143.4859              1186.2352
 Red. masses --      1.5891                 2.8067                 2.3162
 Frc consts  --      1.2195                 2.1623                 1.9203
 IR Inten    --      4.7186                65.0848                16.9355

                     28                     29                     30
                      A                      A                      A
 Frequencies --   1238.3215              1257.0464              1281.2144
 Red. masses --      1.3013                 1.6410                 1.3158
 Frc consts  --      1.1757                 1.5278                 1.2725
 IR Inten    --     22.4911                 0.5733                10.6903

                     31                     32                     33
                      A                      A                      A
 Frequencies --   1332.8907              1359.3315              1367.8238
 Red. masses --      1.2378                 1.5643                 1.5751
 Frc consts  --      1.2956                 1.7031                 1.7362
 IR Inten    --     14.7675                 8.6034                21.5044

                     34                     35                     36
                      A                      A                      A
 Frequencies --   1375.4544              1414.8473              1418.9211
 Red. masses --      1.5021                 1.2827                 1.5097
 Frc consts  --      1.6743                 1.5128                 1.7908
 IR Inten    --     13.8426                 5.1367                36.7985

                     37                     38                     39
                      A                      A                      A
 Frequencies --   1488.0784              1501.1974              1505.7102
 Red. masses --      1.0597                 1.0426                 1.0697
 Frc consts  --      1.3826                 1.3843                 1.4289
 IR Inten    --      0.4648                 5.4344                 3.5273

                     40                     41                     42
                      A                      A                      A
 Frequencies --   1631.1059              1810.2916              2927.6903
 Red. masses --      6.6412                12.3158                 1.0794
 Frc consts  --     10.4102                23.7799                 5.4511
 IR Inten    --     19.5516               278.6451                32.2326

                     43                     44                     45
                      A                      A                      A
 Frequencies --   3009.3711              3024.6339              3034.1997
 Red. masses --      1.0795                 1.0633                 1.0364
 Frc consts  --      5.7599                 5.7313                 5.6217
 IR Inten    --      1.9956                24.3418                28.3104

                     46                     47                     48
                      A                      A                      A
 Frequencies --   3062.9133              3100.2613              3107.2713
 Red. masses --      1.1003                 1.1020                 1.1007
 Frc consts  --      6.0819                 6.2406                 6.2614
 IR Inten    --      6.6338                40.7593                30.7736

                     49                     50                     51
                      A                      A                      A
 Frequencies --   3186.4417              3225.6991              3722.4360
 Red. masses --      1.0888                 1.1011                 1.0653
 Frc consts  --      6.5135                 6.7504                 8.6971
 IR Inten    --      7.0939                 5.8624                38.2348

 - Thermochemistry -
 -------------------
 Temperature   298.150 Kelvin.  Pressure   1.00000 Atm.
 Atom     1 has atomic number  6 and mass  12.00000

 Molecular mass:   126.06808 amu.
 Principal axes and moments of inertia in atomic units:
                           1         2         3
     Eigenvalues --   578.486621591.046482056.21819
           X            1.00000   0.00273  -0.00061
           Y           -0.00274   0.99992  -0.01255
           Z            0.00058   0.01255   0.99992
 This molecule is an asymmetric top.
 Rotational symmetry number  1.
 Warning -- assumption of classical behavior for rotation
           may cause significant error
 Rotational temperatures (Kelvin)      0.14972     0.05444     0.04212
 Rotational constants (GHZ):           3.11976     1.13431     0.87770
 Zero-point vibrational energy     416706.7 (Joules/Mol)
                                   99.59529 (Kcal/Mol)
 Warning -- explicit consideration of  12 degrees of freedom as
           vibrations may cause significant error
 Vibrational temperatures:     93.29   135.94   240.42   297.25   345.12
          (Kelvin)            394.06   459.30   503.78   587.80   732.88
                              755.46   876.36  1013.77  1039.11  1125.41
                             1138.79  1266.78  1306.78  1386.77  1436.30
                             1461.13  1532.61  1576.69  1607.89  1642.06
                             1645.22  1706.73  1781.67  1808.61  1843.38
                             1917.73  1955.77  1967.99  1978.97  2035.65
                             2041.51  2141.01  2159.89  2166.38  2346.79
                             2604.60  4212.29  4329.81  4351.77  4365.53
                             4406.84  4460.58  4470.66  4584.57  4641.06
                             5355.75

 Zero-point correction=                           0.158715 (Hartree/Particle)
 Thermal correction to Energy=                    0.167703
 Thermal correction to Enthalpy=                  0.168647
 Thermal correction to Gibbs Free Energy=         0.124698
 Sum of electronic and zero-point Energies=           -423.062713
 Sum of electronic and thermal Energies=              -423.053725
 Sum of electronic and thermal Enthalpies=            -423.052781
 Sum of electronic and thermal Free Energies=         -423.096731

                     E (Thermal)             CV                S
                      KCal/Mol        Cal/Mol-Kelvin    Cal/Mol-Kelvin
 Total                  105.235             33.388             92.500
 Electronic               0.000              0.000              0.000
 Translational            0.889              2.981             40.409
 Rotational               0.889              2.981             29.027
 Vibrational            103.458             27.426             23.064
 Vibration     1          0.597              1.971              4.304
 Vibration     2          0.603              1.953              3.565
 Vibration     3          0.624              1.883              2.468
 Vibration     4          0.641              1.830              2.074
 Vibration     5          0.657              1.779              1.804
 Vibration     6          0.676              1.722              1.572
 Vibration     7          0.705              1.637              1.314
 Vibration     8          0.727              1.575              1.166
 Vibration     9          0.773              1.452              0.932
 Vibration    10          0.865              1.229              0.635
 Vibration    11          0.880              1.195              0.598
 Vibration    12          0.968              1.013              0.434

 Optimization completed.
    -- Stationary point found.
 Normal termination of Gaussian 09 at Tue Jan 28 14:51:40 2020.
