 Gaussian 09, Revision D.01,
 Gaussian 09:  ES64L-G09RevD.01 24-Apr-2013

 -----------------------------
 # b3lyp 6-31G(2df,p) opt Freq
 -----------------------------

 -----
 titel
 -----
 Symbolic Z-matrix:
 Charge =  0 Multiplicity = 1

 SCF Done:  E(RB3LYP) =  -423.131679162     A.U. after   13 cycles
 Optimization completed.
    -- Stationary point found.
 Normal termination of Gaussian 09 at Tue Jan 28 12:10:08 2020.

 ----------------------------------------------------------------------
 #N Geom=AllCheck Guess=TCheck SCRF=Check GenChk RB3LYP/6-31G(2df,p) Fr
 eq
 ----------------------------------------------------------------------

 Structure from the checkpoint file:  "/scratch/puck/g09_7fbf4ecc-fd32-40ec-8205-9a1ac6585c83/Gau-18735.chk"
 -----
 titel
 -----
 Charge =  0 Multiplicity = 1

                         Standard orientation:
 ---------------------------------------------------------------------
 Center     Atomic      Atomic             Coordinates (Angstroms)
 Number     Number       Type             X           Y           Z
 ---------------------------------------------------------------------
      1          8           0       -2.656097   -0.070817   -0.489091
      2          6           0       -1.740027    0.352661    0.515460
      3          6           0       -0.313232   -0.048206    0.215428
      4          6           0        0.021529   -1.542285    0.192113
      5          8           0        1.420528   -1.520731   -0.114277
      6          6           0        1.677436   -0.135562   -0.214431
      7          6           0        0.924513    0.653604    0.897106
      8          6           0        0.793266    1.839711   -0.085248
      9          6           0        0.521087    0.594041   -0.957828
     10          1           0       -2.719591   -1.029817   -0.452876
     11          1           0       -1.835908    1.441249    0.555768
     12          1           0       -2.031761   -0.030946    1.506824
     13          1           0       -0.148475   -2.035175    1.159104
     14          1           0       -0.521207   -2.096031   -0.585719
     15          1           0        2.724792    0.054482   -0.445536
     16          1           0        1.155850    0.674813    1.963389
     17          1           0       -0.039171    2.527218    0.072081
     18          1           0        1.710285    2.395284   -0.301272
     19          1           0        0.282312    0.547523   -2.020418
 ---------------------------------------------------------------------

 SCF Done:  E(RB3LYP) =  -423.131679162     A.U. after    1 cycles

 The electronic state is 1-A.
 Alpha  occ. eigenvalues --  -19.13925 -19.13715 -10.23682 -10.23211 -10.22707
 Alpha  occ. eigenvalues --  -10.20297 -10.20003 -10.19698 -10.19050  -1.04735
 Alpha  occ. eigenvalues --   -1.01882  -0.89920  -0.75175  -0.68233  -0.66103
 Alpha  occ. eigenvalues --   -0.63585  -0.58353  -0.54415  -0.50532  -0.49731
 Alpha  occ. eigenvalues --   -0.47992  -0.45894  -0.44666  -0.42289  -0.39087
 Alpha  occ. eigenvalues --   -0.37689  -0.35791  -0.33735  -0.32837  -0.32216
 Alpha  occ. eigenvalues --   -0.30678  -0.29985  -0.26968  -0.24023
 Alpha virt. eigenvalues --    0.05942   0.09571   0.11460   0.11971   0.12866
 Alpha virt. eigenvalues --    0.13751   0.14712   0.15006   0.15246   0.16472
 Alpha virt. eigenvalues --    0.17582   0.18422   0.19197   0.20331   0.21813

 Mulliken charges:
               1
     1  O   -0.414990
     2  C   -0.195373
     3  C    0.303194
     4  C   -0.154970
     5  O   -0.280301
     6  C    0.144417
     7  C   -0.140069
     8  C   -0.267492
     9  C   -0.116875
    10  H    0.286185
    11  H    0.115420
    12  H    0.089755
    13  H    0.098915
    14  H    0.095485
    15  H    0.087844
    16  H    0.072012
    17  H    0.103081
    18  H    0.094830
    19  H    0.078933
 Sum of Mulliken charges =   0.00000

 Dipole moment (field-independent basis, Debye):
    X=             -0.2293    Y=              0.1968    Z=              0.9490  Tot=              0.9960
 Quadrupole moment (field-independent basis, Debye-Ang):
   XX=            -56.7431   YY=            -53.0320   ZZ=            -52.7574
   XY=              6.7950   XZ=             -2.1602   YZ=              0.1666

  Exact polarizability:  78.305   5.410  77.942  -0.983  -0.598  66.620
 Approx polarizability: 111.042   4.678 114.078   0.577  -0.417 105.551

                      1                      2                      3
                      A                      A                      A
 Frequencies --     77.4400               166.7693               252.9910
 Red. masses --      2.9568                 4.7019                 1.2345
 Frc consts  --      0.0104                 0.0770                 0.0466
 IR Inten    --      2.8656                 3.2873                98.8051

                      4                      5                      6
                      A                      A                      A
 Frequencies --    283.1629               324.0957               386.8390
 Red. masses --      2.3694                 1.8725                 3.2091
 Frc consts  --      0.1119                 0.1159                 0.2829
 IR Inten    --      6.0975                20.5224                 4.6068

                      7                      8                      9
                      A                      A                      A
 Frequencies --    426.9407               479.7005               648.4313
 Red. masses --      3.0585                 2.8357                 3.9422
 Frc consts  --      0.3285                 0.3845                 0.9766
 IR Inten    --      0.7926                 0.9267                11.1162

                     10                     11                     12
                      A                      A                      A
 Frequencies --    691.6512               726.9108               754.4378
 Red. masses --      4.5507                 3.9240                 3.1326
 Frc consts  --      1.2826                 1.2216                 1.0505
 IR Inten    --      2.0178                 3.7234                 3.6509

                     13                     14                     15
                      A                      A                      A
 Frequencies --    830.1649               886.7584               906.4712
 Red. masses --      2.3190                 1.9846                 1.9439
 Frc consts  --      0.9416                 0.9195                 0.9411
 IR Inten    --      0.2783                 3.6980                 6.9984

                     16                     17                     18
                      A                      A                      A
 Frequencies --    918.9463               942.6299               975.0148
 Red. masses --      1.8927                 2.5459                 2.4042
 Frc consts  --      0.9417                 1.3328                 1.3466
 IR Inten    --     14.9332                13.0892                21.5922

                     19                     20                     21
                      A                      A                      A
 Frequencies --   1002.5434              1027.2377              1047.7410
 Red. masses --      1.0847                 2.8248                 3.6132
 Frc consts  --      0.6424                 1.7562                 2.3370
 IR Inten    --      0.1821                48.4326                42.0766

                     22                     23                     24
                      A                      A                      A
 Frequencies --   1068.4275              1084.2328              1085.8217
 Red. masses --      3.4529                 2.1010                 2.3567
 Frc consts  --      2.3224                 1.4552                 1.6371
 IR Inten    --     38.4291                13.3918                41.9317

                     25                     26                     27
                      A                      A                      A
 Frequencies --   1102.4863              1132.4254              1153.2522
 Red. masses --      1.4119                 1.7167                 1.6344
 Frc consts  --      1.0111                 1.2971                 1.2808
 IR Inten    --      1.2189                10.1365                 3.2804

                     28                     29                     30
                      A                      A                      A
 Frequencies --   1172.9981              1202.9481              1211.7492
 Red. masses --      1.3901                 1.4838                 1.4404
 Frc consts  --      1.1269                 1.2651                 1.2461
 IR Inten    --      0.4494                 1.5668                 4.7207

                     31                     32                     33
                      A                      A                      A
 Frequencies --   1236.6226              1252.8773              1263.7671
 Red. masses --      1.6431                 1.9021                 1.7055
 Frc consts  --      1.4804                 1.7591                 1.6049
 IR Inten    --      9.2752                 4.7733                21.4255

                     34                     35                     36
                      A                      A                      A
 Frequencies --   1288.7308              1329.0539              1382.3442
 Red. masses --      2.0506                 1.7362                 1.3476
 Frc consts  --      2.0065                 1.8070                 1.5172
 IR Inten    --     13.8330                18.7517                 2.2850

                     37                     38                     39
                      A                      A                      A
 Frequencies --   1387.3154              1421.5946              1492.6269
 Red. masses --      1.5210                 1.3038                 1.0865
 Frc consts  --      1.7248                 1.5525                 1.4262
 IR Inten    --      8.1184                39.5534                 2.1085

                     40                     41                     42
                      A                      A                      A
 Frequencies --   1520.1545              1527.9602              2972.4975
 Red. masses --      1.0961                 1.1164                 1.0719
 Frc consts  --      1.4923                 1.5357                 5.5803
 IR Inten    --      0.5745                 1.5041                51.1131

                     43                     44                     45
                      A                      A                      A
 Frequencies --   3001.7630              3037.6690              3059.5782
 Red. masses --      1.0553                 1.1089                 1.0579
 Frc consts  --      5.6023                 6.0289                 5.8348
 IR Inten    --     69.7930                37.9510                40.2670

                     46                     47                     48
                      A                      A                      A
 Frequencies --   3086.8428              3099.9637              3114.7397
 Red. masses --      1.0900                 1.0902                 1.0910
 Frc consts  --      6.1191                 6.1728                 6.2359
 IR Inten    --     25.0456                54.5567                30.6493

                     49                     50                     51
                      A                      A                      A
 Frequencies --   3123.4210              3139.1600              3828.0858
 Red. masses --      1.1050                 1.0926                 1.0663
 Frc consts  --      6.3514                 6.3434                 9.2068
 IR Inten    --     35.8231                37.7521                17.9038

 - Thermochemistry -
 -------------------
 Temperature   298.150 Kelvin.  Pressure   1.00000 Atm.
 Atom     1 has atomic number  8 and mass  15.99491

 Molecular mass:   126.06808 amu.
 Principal axes and moments of inertia in atomic units:
                           1         2         3
     Eigenvalues --   656.929251097.327941452.28882
           X            0.99849   0.05355  -0.01241
           Y           -0.05359   0.99856  -0.00308
           Z            0.01223   0.00374   0.99992
 This molecule is an asymmetric top.
 Rotational symmetry number  1.
 Warning -- assumption of classical behavior for rotation
           may cause significant error
 Rotational temperatures (Kelvin)      0.13185     0.07893     0.05964
 Rotational constants (GHZ):           2.74724     1.64467     1.24269
 Zero-point vibrational energy     421910.9 (Joules/Mol)
                                  100.83911 (Kcal/Mol)
 Warning -- explicit consideration of   8 degrees of freedom as
           vibrations may cause significant error
 Vibrational temperatures:    111.42   239.94   364.00   407.41   466.30
          (Kelvin)            556.57   614.27   690.18   932.95   995.13
                             1045.86  1085.47  1194.42  1275.85  1304.21
                             1322.16  1356.23  1402.83  1442.43  1477.96
                             1507.46  1537.23  1559.97  1562.25  1586.23
                             1629.31  1659.27  1687.68  1730.77  1743.43
                             1779.22  1802.61  1818.28  1854.19  1912.21
                             1988.88  1996.03  2045.35  2147.55  2187.16
                             2198.39  4276.76  4318.86  4370.52  4402.05
                             4441.27  4460.15  4481.41  4493.90  4516.55
                             5507.75

 Zero-point correction=                           0.160697 (Hartree/Particle)
 Thermal correction to Energy=                    0.168245
 Thermal correction to Enthalpy=                  0.169189
 Thermal correction to Gibbs Free Energy=         0.128612
 Sum of electronic and zero-point Energies=           -422.970982
 Sum of electronic and thermal Energies=              -422.963434
 Sum of electronic and thermal Enthalpies=            -422.962490
 Sum of electronic and thermal Free Energies=         -423.003067

                     E (Thermal)             CV                S
                      KCal/Mol        Cal/Mol-Kelvin    Cal/Mol-Kelvin
 Total                  105.576             30.008             85.402
 Electronic               0.000              0.000              0.000
 Translational            0.889              2.981             40.409
 Rotational               0.889              2.981             28.439
 Vibrational            103.798             24.046             16.554
 Vibration     1          0.599              1.964              3.955
 Vibration     2          0.624              1.883              2.472
 Vibration     3          0.664              1.758              1.710
 Vibration     4          0.682              1.705              1.514
 Vibration     5          0.709              1.627              1.289
 Vibration     6          0.755              1.498              1.012
 Vibration     7          0.789              1.412              0.869
 Vibration     8          0.836              1.295              0.711

 Optimization completed.
    -- Stationary point found.
 Normal termination of Gaussian 09 at Tue Jan 28 13:04:21 2020.
