 Gaussian 09, Revision D.01,
 Gaussian 09:  ES64L-G09RevD.01 24-Apr-2013

 -----------------------------
 # b3lyp 6-31G(2df,p) opt Freq
 -----------------------------

 -----
 titel
 -----
 Symbolic Z-matrix:
 Charge =  0 Multiplicity = 1

 SCF Done:  E(RB3LYP) =  -423.213218562     A.U. after   14 cycles
 Optimization completed.
    -- Stationary point found.
 Normal termination of Gaussian 09 at Tue Jan 28 00:44:09 2020.

 ----------------------------------------------------------------------
 #N Geom=AllCheck Guess=TCheck SCRF=Check GenChk RB3LYP/6-31G(2df,p) Fr
 eq
 ----------------------------------------------------------------------

 Structure from the checkpoint file:  "/scratch/puck/g09_8c680068-8e54-46b5-b98d-0537c1030b17/Gau-71717.chk"
 -----
 titel
 -----
 Charge =  0 Multiplicity = 1

                         Standard orientation:
 ---------------------------------------------------------------------
 Center     Atomic      Atomic             Coordinates (Angstroms)
 Number     Number       Type             X           Y           Z
 ---------------------------------------------------------------------
      1          6           0       -2.118352   -1.541171    0.553320
      2          6           0       -1.432906   -0.510800   -0.363815
      3          6           0       -0.047590   -0.952862   -0.763993
      4          6           0        0.910502   -0.261103   -0.125620
      5          6           0        0.317400    0.781113    0.795939
      6          6           0       -1.158467    0.860306    0.329279
      7          8           0       -1.374167    1.946134   -0.560121
      8          6           0        2.347467   -0.502182   -0.279148
      9          8           0        3.208686    0.111226    0.312158
     10          1           0       -2.225877   -2.507936    0.051712
     11          1           0       -1.537730   -1.703647    1.467356
     12          1           0       -3.116738   -1.195658    0.838884
     13          1           0       -2.076044   -0.339535   -1.235508
     14          1           0        0.139791   -1.767583   -1.457592
     15          1           0        0.406225    0.465657    1.842666
     16          1           0        0.806554    1.756492    0.722870
     17          1           0       -1.848680    1.036510    1.158067
     18          1           0       -0.739071    1.867582   -1.281147
     19          1           0        2.607098   -1.310570   -0.999385
 ---------------------------------------------------------------------

 SCF Done:  E(RB3LYP) =  -423.213218562     A.U. after    1 cycles

 The electronic state is 1-A.
 Alpha  occ. eigenvalues --  -19.13987 -19.13498 -10.26799 -10.23879 -10.21151
 Alpha  occ. eigenvalues --  -10.20294 -10.20155 -10.19151 -10.19027  -1.04001
 Alpha  occ. eigenvalues --   -1.02380  -0.86046  -0.76639  -0.72451  -0.67335
 Alpha  occ. eigenvalues --   -0.62882  -0.57712  -0.54206  -0.51802  -0.47810
 Alpha  occ. eigenvalues --   -0.45917  -0.45356  -0.42787  -0.41590  -0.41161
 Alpha  occ. eigenvalues --   -0.39315  -0.37860  -0.36915  -0.36829  -0.35267
 Alpha  occ. eigenvalues --   -0.32716  -0.26931  -0.26818  -0.25287
 Alpha virt. eigenvalues --   -0.06048   0.05561   0.08268   0.09138   0.11289
 Alpha virt. eigenvalues --    0.11893   0.13251   0.14858   0.15050   0.16095
 Alpha virt. eigenvalues --    0.17285   0.17518   0.19475   0.20947   0.21612

 Mulliken charges:
               1
     1  C   -0.400839
     2  C   -0.046964
     3  C   -0.168746
     4  C    0.231544
     5  C   -0.341271
     6  C    0.108984
     7  O   -0.434508
     8  C    0.061916
     9  O   -0.267447
    10  H    0.120723
    11  H    0.124734
    12  H    0.127019
    13  H    0.091014
    14  H    0.108892
    15  H    0.121799
    16  H    0.128842
    17  H    0.087340
    18  H    0.279742
    19  H    0.067226
 Sum of Mulliken charges =   0.00000

 Dipole moment (field-independent basis, Debye):
    X=             -2.0970    Y=             -2.1035    Z=             -1.0938  Tot=              3.1651
 Quadrupole moment (field-independent basis, Debye-Ang):
   XX=            -65.0908   YY=            -54.6106   ZZ=            -49.9411
   XY=              1.7081   XZ=             -3.6488   YZ=              0.6095

  Exact polarizability: 102.313   7.057  73.317   2.719   8.069  66.259
 Approx polarizability: 153.042  19.548 110.140  17.235  17.006 107.024

                      1                      2                      3
                      A                      A                      A
 Frequencies --     80.5422                84.4459               180.1212
 Red. masses --      3.5292                 4.5031                 5.0214
 Frc consts  --      0.0135                 0.0189                 0.0960
 IR Inten    --      1.9698                 2.3611                 9.3214

                      4                      5                      6
                      A                      A                      A
 Frequencies --    197.4543               221.9044               265.6314
 Red. masses --      2.9596                 1.1578                 2.0691
 Frc consts  --      0.0680                 0.0336                 0.0860
 IR Inten    --      2.4133                 0.8870                 2.3609

                      7                      8                      9
                      A                      A                      A
 Frequencies --    317.5432               360.1722               409.5359
 Red. masses --      1.1296                 2.7220                 3.7653
 Frc consts  --      0.0671                 0.2080                 0.3721
 IR Inten    --     48.7311                15.3027                18.7277

                     10                     11                     12
                      A                      A                      A
 Frequencies --    433.7652               472.2867               557.2812
 Red. masses --      2.1828                 3.6362                 2.9449
 Frc consts  --      0.2420                 0.4779                 0.5389
 IR Inten    --      1.8295                 0.1919                 0.9526

                     13                     14                     15
                      A                      A                      A
 Frequencies --    714.5840               732.1545               829.5815
 Red. masses --      3.8459                 3.8672                 3.1327
 Frc consts  --      1.1571                 1.2214                 1.2702
 IR Inten    --     18.7265                 9.4096                 7.2521

                     16                     17                     18
                      A                      A                      A
 Frequencies --    869.0732               892.2305               898.6122
 Red. masses --      1.8313                 2.8429                 1.6218
 Frc consts  --      0.8149                 1.3334                 0.7716
 IR Inten    --      9.5347                 5.3716                19.5506

                     19                     20                     21
                      A                      A                      A
 Frequencies --    930.1772               986.3264              1029.1535
 Red. masses --      1.8332                 1.7716                 1.7776
 Frc consts  --      0.9345                 1.0154                 1.1093
 IR Inten    --      6.1745                 2.5438                 8.2269

                     22                     23                     24
                      A                      A                      A
 Frequencies --   1034.5755              1064.4451              1089.8586
 Red. masses --      1.9501                 2.5354                 1.9837
 Frc consts  --      1.2298                 1.6925                 1.3882
 IR Inten    --      7.4084                34.6739                 2.1643

                     25                     26                     27
                      A                      A                      A
 Frequencies --   1118.0910              1154.8490              1187.5124
 Red. masses --      1.4695                 1.3781                 1.6197
 Frc consts  --      1.0824                 1.0829                 1.3457
 IR Inten    --     26.0197                64.9490                33.3941

                     28                     29                     30
                      A                      A                      A
 Frequencies --   1259.8927              1279.6993              1289.7371
 Red. masses --      1.4993                 1.6337                 1.3831
 Frc consts  --      1.4022                 1.5763                 1.3556
 IR Inten    --      2.3818                10.6064                12.7131

                     31                     32                     33
                      A                      A                      A
 Frequencies --   1316.2325              1334.6025              1370.5131
 Red. masses --      1.6926                 1.5950                 2.3933
 Frc consts  --      1.7277                 1.6739                 2.6486
 IR Inten    --      2.5073                 4.8576                15.8836

                     34                     35                     36
                      A                      A                      A
 Frequencies --   1404.5176              1421.5922              1432.2969
 Red. masses --      1.2446                 1.2330                 1.2079
 Frc consts  --      1.4466                 1.4682                 1.4599
 IR Inten    --      1.6893                 1.2996                58.0544

                     37                     38                     39
                      A                      A                      A
 Frequencies --   1473.4209              1495.8650              1498.4591
 Red. masses --      1.0926                 1.0486                 1.0505
 Frc consts  --      1.3975                 1.3824                 1.3898
 IR Inten    --      6.7480                 4.8569                 4.1656

                     40                     41                     42
                      A                      A                      A
 Frequencies --   1670.6193              1785.0120              2875.5344
 Red. masses --      6.8823                10.3433                 1.0825
 Frc consts  --     11.3171                19.4174                 5.2738
 IR Inten    --     36.2122               248.6213               119.1122

                     43                     44                     45
                      A                      A                      A
 Frequencies --   3033.6130              3036.1056              3038.3813
 Red. masses --      1.0397                 1.0772                 1.0681
 Frc consts  --      5.6371                 5.8503                 5.8098
 IR Inten    --     22.6812                19.1857                 6.4639

                     46                     47                     48
                      A                      A                      A
 Frequencies --   3084.7783              3094.3006              3106.0224
 Red. masses --      1.0871                 1.0953                 1.1017
 Frc consts  --      6.0948                 6.1790                 6.2621
 IR Inten    --     28.8222                 9.7506                24.7455

                     49                     50                     51
                      A                      A                      A
 Frequencies --   3109.2458              3178.7427              3795.2427
 Red. masses --      1.1023                 1.0930                 1.0658
 Frc consts  --      6.2784                 6.5067                 9.0452
 IR Inten    --     24.9687                 9.0736                12.6103

 - Thermochemistry -
 -------------------
 Temperature   298.150 Kelvin.  Pressure   1.00000 Atm.
 Atom     1 has atomic number  6 and mass  12.00000

 Molecular mass:   126.06808 amu.
 Principal axes and moments of inertia in atomic units:
                           1         2         3
     Eigenvalues --   678.380221582.401311951.59629
           X            0.99946   0.02964  -0.01405
           Y           -0.02944   0.99947   0.01404
           Z            0.01446  -0.01362   0.99980
 This molecule is an asymmetric top.
 Rotational symmetry number  1.
 Warning -- assumption of classical behavior for rotation
           may cause significant error
 Rotational temperatures (Kelvin)      0.12768     0.05474     0.04438
 Rotational constants (GHZ):           2.66037     1.14051     0.92475
 Zero-point vibrational energy     415680.4 (Joules/Mol)
                                   99.35000 (Kcal/Mol)
 Warning -- explicit consideration of  12 degrees of freedom as
           vibrations may cause significant error
 Vibrational temperatures:    115.88   121.50   259.15   284.09   319.27
          (Kelvin)            382.18   456.87   518.21   589.23   624.09
                              679.51   801.80  1028.13  1053.41  1193.58
                             1250.40  1283.72  1292.90  1338.32  1419.10
                             1480.72  1488.52  1531.50  1568.06  1608.68
                             1661.57  1708.56  1812.70  1841.20  1855.64
                             1893.76  1920.19  1971.86  2020.79  2045.35
                             2060.75  2119.92  2152.21  2155.95  2403.65
                             2568.23  4137.25  4364.69  4368.27  4371.55
                             4438.30  4452.00  4468.87  4473.51  4573.50
                             5460.50

 Zero-point correction=                           0.158324 (Hartree/Particle)
 Thermal correction to Energy=                    0.167422
 Thermal correction to Enthalpy=                  0.168367
 Thermal correction to Gibbs Free Energy=         0.124251
 Sum of electronic and zero-point Energies=           -423.054894
 Sum of electronic and thermal Energies=              -423.045796
 Sum of electronic and thermal Enthalpies=            -423.044852
 Sum of electronic and thermal Free Energies=         -423.088967

                     E (Thermal)             CV                S
                      KCal/Mol        Cal/Mol-Kelvin    Cal/Mol-Kelvin
 Total                  105.059             33.668             92.848
 Electronic               0.000              0.000              0.000
 Translational            0.889              2.981             40.409
 Rotational               0.889              2.981             29.128
 Vibrational            103.282             27.706             23.311
 Vibration     1          0.600              1.962              3.878
 Vibration     2          0.601              1.960              3.785
 Vibration     3          0.629              1.867              2.327
 Vibration     4          0.637              1.843              2.157
 Vibration     5          0.648              1.808              1.944
 Vibration     6          0.671              1.736              1.624
 Vibration     7          0.704              1.640              1.323
 Vibration     8          0.735              1.554              1.121
 Vibration     9          0.774              1.450              0.928
 Vibration    10          0.795              1.397              0.846
 Vibration    11          0.829              1.312              0.731
 Vibration    12          0.913              1.124              0.529

 Normal termination of Gaussian 09 at Tue Jan 28 01:24:58 2020.
