 Gaussian 09, Revision D.01,
 Gaussian 09:  ES64L-G09RevD.01 24-Apr-2013

 -----------------------------
 # b3lyp 6-31G(2df,p) opt Freq
 -----------------------------

 -----
 titel
 -----
 Symbolic Z-matrix:
 Charge =  0 Multiplicity = 1

 SCF Done:  E(RB3LYP) =  -423.215271490     A.U. after   14 cycles
 Optimization completed.
    -- Stationary point found.
 Normal termination of Gaussian 09 at Tue Jan 28 03:58:19 2020.

 ----------------------------------------------------------------------
 #N Geom=AllCheck Guess=TCheck SCRF=Check GenChk RB3LYP/6-31G(2df,p) Fr
 eq
 ----------------------------------------------------------------------

 Structure from the checkpoint file:  "/scratch/puck/g09_bf9006a7-42c7-46f3-85cc-4bf813ea1426/Gau-32162.chk"
 -----
 titel
 -----
 Charge =  0 Multiplicity = 1

                         Standard orientation:
 ---------------------------------------------------------------------
 Center     Atomic      Atomic             Coordinates (Angstroms)
 Number     Number       Type             X           Y           Z
 ---------------------------------------------------------------------
      1          8           0        2.877362   -0.391290    0.017244
      2          6           0        1.502315   -0.194265   -0.298459
      3          6           0        0.610983   -1.222669    0.404574
      4          6           0       -0.785112   -1.363548   -0.211044
      5          6           0       -1.776489   -0.220133   -0.035548
      6          8           0       -2.960893   -0.477069    0.085442
      7          6           0       -1.368068    1.205087   -0.055143
      8          6           0       -0.164751    1.792848    0.003691
      9          6           0        1.227526    1.249560    0.110572
     10          1           0        3.126595   -1.275989   -0.267738
     11          1           0        1.348457   -0.289598   -1.387135
     12          1           0        1.104244   -2.200111    0.328094
     13          1           0        0.551641   -0.993473    1.475474
     14          1           0       -0.681528   -1.516774   -1.295835
     15          1           0       -1.289704   -2.253102    0.174144
     16          1           0       -2.243159    1.850088   -0.072321
     17          1           0       -0.183957    2.882313    0.024489
     18          1           0        1.898654    1.896564   -0.466821
     19          1           0        1.558582    1.365667    1.154304
 ---------------------------------------------------------------------

 SCF Done:  E(RB3LYP) =  -423.215271490     A.U. after    1 cycles

 The electronic state is 1-A.
 Alpha  occ. eigenvalues --  -19.14345 -19.11907 -10.26358 -10.24362 -10.21315
 Alpha  occ. eigenvalues --  -10.19872 -10.19453 -10.19256 -10.19009  -1.02928
 Alpha  occ. eigenvalues --   -1.02687  -0.82815  -0.78110  -0.74733  -0.66645
 Alpha  occ. eigenvalues --   -0.63663  -0.57559  -0.53084  -0.50956  -0.48323
 Alpha  occ. eigenvalues --   -0.45967  -0.44656  -0.43227  -0.42056  -0.41303
 Alpha  occ. eigenvalues --   -0.39820  -0.37669  -0.35761  -0.35244  -0.34549
 Alpha  occ. eigenvalues --   -0.32658  -0.27734  -0.26851  -0.24045
 Alpha virt. eigenvalues --   -0.05014   0.05837   0.07617   0.08291   0.11164
 Alpha virt. eigenvalues --    0.11819   0.13291   0.14380   0.16178   0.16557
 Alpha virt. eigenvalues --    0.19031   0.19155   0.20899   0.21596   0.22603

 Mulliken charges:
               1
     1  O   -0.436144
     2  C    0.110862
     3  C   -0.238240
     4  C   -0.311161
     5  C    0.360394
     6  O   -0.324429
     7  C   -0.144719
     8  C   -0.052600
     9  C   -0.241538
    10  H    0.282367
    11  H    0.068642
    12  H    0.092815
    13  H    0.111192
    14  H    0.122798
    15  H    0.125700
    16  H    0.105865
    17  H    0.109539
    18  H    0.123281
    19  H    0.135376
 Sum of Mulliken charges =   0.00000

 Dipole moment (field-independent basis, Debye):
    X=              2.7644    Y=             -0.1447    Z=             -0.7283  Tot=              2.8624
 Quadrupole moment (field-independent basis, Debye-Ang):
   XX=            -67.0351   YY=            -46.8106   ZZ=            -52.7090
   XY=             -5.2423   XZ=             -1.0258   YZ=              1.1134

  Exact polarizability:  99.601   6.286  83.874   0.285   0.708  54.447
 Approx polarizability: 155.332  21.551 119.257   0.503   1.425  87.311

                      1                      2                      3
                      A                      A                      A
 Frequencies --     50.8541               108.5512               212.8584
 Red. masses --      4.7154                 2.5491                 2.5484
 Frc consts  --      0.0072                 0.0177                 0.0680
 IR Inten    --      4.8886                 1.1415                 1.3319

                      4                      5                      6
                      A                      A                      A
 Frequencies --    290.3807               303.5247               317.4840
 Red. masses --      1.1175                 2.9254                 3.9009
 Frc consts  --      0.0555                 0.1588                 0.2317
 IR Inten    --    102.8349                 2.7985                 1.2166

                      7                      8                      9
                      A                      A                      A
 Frequencies --    339.4309               374.2057               427.8595
 Red. masses --      4.1449                 4.7484                 1.9512
 Frc consts  --      0.2814                 0.3918                 0.2105
 IR Inten    --      3.0580                12.4334                 1.1318

                     10                     11                     12
                      A                      A                      A
 Frequencies --    507.7594               535.0590               636.4288
 Red. masses --      4.8361                 2.7250                 2.4196
 Frc consts  --      0.7346                 0.4596                 0.5774
 IR Inten    --      8.7183                 8.5954                 5.1878

                     13                     14                     15
                      A                      A                      A
 Frequencies --    671.1329               731.4351               828.0772
 Red. masses --      3.2963                 1.9040                 2.2149
 Frc consts  --      0.8748                 0.6001                 0.8948
 IR Inten    --      0.8952                 4.7140                16.6284

                     16                     17                     18
                      A                      A                      A
 Frequencies --    854.1741               894.6041               922.4537
 Red. masses --      2.8067                 2.1220                 1.8113
 Frc consts  --      1.2066                 1.0006                 0.9081
 IR Inten    --      8.4861                14.7548                 4.0724

                     19                     20                     21
                      A                      A                      A
 Frequencies --    947.2080              1042.0381              1050.7296
 Red. masses --      2.3968                 1.3164                 1.9735
 Frc consts  --      1.2670                 0.8422                 1.2837
 IR Inten    --     18.3932                 5.0786                 9.5805

                     22                     23                     24
                      A                      A                      A
 Frequencies --   1074.6421              1077.0913              1110.4062
 Red. masses --      3.2356                 2.5622                 2.0821
 Frc consts  --      2.2015                 1.7514                 1.5126
 IR Inten    --     49.9416                40.5034                 2.0598

                     25                     26                     27
                      A                      A                      A
 Frequencies --   1158.3966              1198.7659              1223.5523
 Red. masses --      1.1852                 1.6911                 1.2748
 Frc consts  --      0.9371                 1.4318                 1.1244
 IR Inten    --      0.7849                32.4264                62.1066

                     28                     29                     30
                      A                      A                      A
 Frequencies --   1261.4491              1292.1685              1302.3057
 Red. masses --      1.2356                 1.1776                 1.4677
 Frc consts  --      1.1584                 1.1585                 1.4666
 IR Inten    --      1.7089                14.2651                33.0500

                     31                     32                     33
                      A                      A                      A
 Frequencies --   1342.2873              1361.1488              1373.9237
 Red. masses --      1.3302                 1.4026                 1.5759
 Frc consts  --      1.4121                 1.5311                 1.7527
 IR Inten    --      1.0252                 2.4498                12.8219

                     34                     35                     36
                      A                      A                      A
 Frequencies --   1408.5304              1424.6564              1443.6150
 Red. masses --      1.4092                 1.5635                 1.4903
 Frc consts  --      1.6472                 1.8697                 1.8299
 IR Inten    --      9.3013                19.5374                 2.2179

                     37                     38                     39
                      A                      A                      A
 Frequencies --   1460.7780              1463.7786              1491.1049
 Red. masses --      1.1237                 1.0939                 1.1146
 Frc consts  --      1.4127                 1.3810                 1.4601
 IR Inten    --     11.8453                 4.1120                 4.9073

                     40                     41                     42
                      A                      A                      A
 Frequencies --   1699.3189              1749.6156              2951.1581
 Red. masses --      7.2909                10.9633                 1.0820
 Frc consts  --     12.4045                19.7731                 5.5520
 IR Inten    --     35.9226               190.5024                39.8712

                     43                     44                     45
                      A                      A                      A
 Frequencies --   3002.9161              3007.9278              3021.8957
 Red. masses --      1.0684                 1.0697                 1.0620
 Frc consts  --      5.6764                 5.7024                 5.7141
 IR Inten    --     11.0101                10.6958                32.9552

                     46                     47                     48
                      A                      A                      A
 Frequencies --   3054.0423              3065.3187              3099.3448
 Red. masses --      1.0905                 1.1007                 1.0912
 Frc consts  --      5.9928                 6.0938                 6.1758
 IR Inten    --     13.3046                32.1929                12.2777

                     49                     50                     51
                      A                      A                      A
 Frequencies --   3126.9172              3165.9101              3820.9028
 Red. masses --      1.0850                 1.0911                 1.0662
 Frc consts  --      6.2507                 6.4434                 9.1710
 IR Inten    --     12.0083                12.5054                17.8692

 - Thermochemistry -
 -------------------
 Temperature   298.150 Kelvin.  Pressure   1.00000 Atm.
 Atom     1 has atomic number  8 and mass  15.99491

 Molecular mass:   126.06808 amu.
 Principal axes and moments of inertia in atomic units:
                           1         2         3
     Eigenvalues --   592.574251529.126192039.65192
           X            0.99996  -0.00904   0.00042
           Y            0.00904   0.99995   0.00525
           Z           -0.00046  -0.00525   0.99999
 This molecule is an asymmetric top.
 Rotational symmetry number  1.
 Warning -- assumption of classical behavior for rotation
           may cause significant error
 Rotational temperatures (Kelvin)      0.14617     0.05664     0.04246
 Rotational constants (GHZ):           3.04560     1.18024     0.88483
 Zero-point vibrational energy     420368.5 (Joules/Mol)
                                  100.47047 (Kcal/Mol)
 Warning -- explicit consideration of  11 degrees of freedom as
           vibrations may cause significant error
 Vibrational temperatures:     73.17   156.18   306.26   417.79   436.70
          (Kelvin)            456.79   488.36   538.40   615.59   730.55
                              769.83   915.68   965.61  1052.37  1191.42
                             1228.96  1287.13  1327.20  1362.82  1499.26
                             1511.76  1546.17  1549.69  1597.62  1666.67
                             1724.75  1760.42  1814.94  1859.14  1873.73
                             1931.25  1958.39  1976.77  2026.56  2049.76
                             2077.04  2101.73  2106.05  2145.36  2444.94
                             2517.30  4246.05  4320.52  4327.73  4347.83
                             4394.08  4410.30  4459.26  4498.93  4555.03
                             5497.42

 Zero-point correction=                           0.160110 (Hartree/Particle)
 Thermal correction to Energy=                    0.168637
 Thermal correction to Enthalpy=                  0.169581
 Thermal correction to Gibbs Free Energy=         0.126566
 Sum of electronic and zero-point Energies=           -423.055162
 Sum of electronic and thermal Energies=              -423.046634
 Sum of electronic and thermal Enthalpies=            -423.045690
 Sum of electronic and thermal Free Energies=         -423.088705

                     E (Thermal)             CV                S
                      KCal/Mol        Cal/Mol-Kelvin    Cal/Mol-Kelvin
 Total                  105.821             32.438             90.533
 Electronic               0.000              0.000              0.000
 Translational            0.889              2.981             40.409
 Rotational               0.889              2.981             29.004
 Vibrational            104.044             26.477             21.121
 Vibration     1          0.595              1.977              4.784
 Vibration     2          0.606              1.942              3.295
 Vibration     3          0.644              1.821              2.019
 Vibration     4          0.686              1.692              1.472
 Vibration     5          0.695              1.667              1.397
 Vibration     6          0.704              1.640              1.323
 Vibration     7          0.719              1.597              1.215
 Vibration     8          0.745              1.525              1.063
 Vibration     9          0.789              1.410              0.866
 Vibration    10          0.863              1.233              0.639
 Vibration    11          0.890              1.172              0.576

 Normal termination of Gaussian 09 at Tue Jan 28 04:43:08 2020.
