 Gaussian 09, Revision D.01,
 Gaussian 09:  ES64L-G09RevD.01 24-Apr-2013

 -----------------------------
 # b3lyp 6-31G(2df,p) opt Freq
 -----------------------------

 -----
 titel
 -----
 Symbolic Z-matrix:
 Charge =  0 Multiplicity = 1

 SCF Done:  E(RB3LYP) =  -423.178563909     A.U. after   14 cycles
 Optimization completed.
    -- Stationary point found.
 Normal termination of Gaussian 09 at Tue Jan 28 09:16:31 2020.

 ----------------------------------------------------------------------
 #N Geom=AllCheck Guess=TCheck SCRF=Check GenChk RB3LYP/6-31G(2df,p) Fr
 eq
 ----------------------------------------------------------------------

 Structure from the checkpoint file:  "/scratch/puck/g09_409b4c54-1ad0-4fbd-bf89-7a4938f34dfe/Gau-17487.chk"
 -----
 titel
 -----
 Charge =  0 Multiplicity = 1

                         Standard orientation:
 ---------------------------------------------------------------------
 Center     Atomic      Atomic             Coordinates (Angstroms)
 Number     Number       Type             X           Y           Z
 ---------------------------------------------------------------------
      1          6           0       -3.040516   -0.287611    0.073640
      2          6           0       -1.828900    0.323187   -0.645651
      3          6           0       -0.528183   -0.109043   -0.043725
      4          6           0        0.143175   -1.496092   -0.092749
      5          6           0        1.496319   -0.726637   -0.017321
      6          8           0        2.638004   -1.043280   -0.175589
      7          6           0        0.775070    0.616002    0.086720
      8          6           0        1.247564    1.986657   -0.261073
      9          8           0       -0.125305    0.444556    1.212892
     10          1           0       -3.021924   -1.381079    0.024173
     11          1           0       -3.049262    0.002217    1.128264
     12          1           0       -3.973800    0.053469   -0.383037
     13          1           0       -1.837623    0.036988   -1.704550
     14          1           0       -1.886111    1.416535   -0.607196
     15          1           0       -0.099968   -2.165997    0.734243
     16          1           0        0.057181   -2.027270   -1.046042
     17          1           0        0.410213    2.688814   -0.292344
     18          1           0        1.965882    2.344041    0.483757
     19          1           0        1.746642    1.983302   -1.234735
 ---------------------------------------------------------------------

 SCF Done:  E(RB3LYP) =  -423.178563909     A.U. after    1 cycles

 The electronic state is 1-A.
 Alpha  occ. eigenvalues --  -19.16297 -19.14117 -10.27485 -10.25442 -10.24824
 Alpha  occ. eigenvalues --  -10.20307 -10.19770 -10.19534 -10.18653  -1.08949
 Alpha  occ. eigenvalues --   -1.04785  -0.80513  -0.78191  -0.75341  -0.66185
 Alpha  occ. eigenvalues --   -0.63815  -0.56497  -0.51725  -0.48852  -0.48153
 Alpha  occ. eigenvalues --   -0.46370  -0.45036  -0.43321  -0.41849  -0.40745
 Alpha  occ. eigenvalues --   -0.39909  -0.39443  -0.38283  -0.36920  -0.35271
 Alpha  occ. eigenvalues --   -0.34800  -0.30961  -0.27407  -0.23671
 Alpha virt. eigenvalues --   -0.02097   0.07356   0.09109   0.10277   0.12193
 Alpha virt. eigenvalues --    0.12674   0.13494   0.14591   0.15775   0.16039
 Alpha virt. eigenvalues --    0.16933   0.18310   0.18846   0.19723   0.20760

 Mulliken charges:
               1
     1  C   -0.380275
     2  C   -0.299265
     3  C    0.355343
     4  C   -0.426499
     5  C    0.399380
     6  O   -0.302548
     7  C    0.202124
     8  C   -0.515497
     9  O   -0.316434
    10  H    0.123508
    11  H    0.137240
    12  H    0.119044
    13  H    0.108939
    14  H    0.112752
    15  H    0.132951
    16  H    0.127853
    17  H    0.135753
    18  H    0.147418
    19  H    0.138213
 Sum of Mulliken charges =   0.00000

 Dipole moment (field-independent basis, Debye):
    X=             -2.6408    Y=              0.9160    Z=             -1.5090  Tot=              3.1764
 Quadrupole moment (field-independent basis, Debye-Ang):
   XX=            -59.1105   YY=            -51.0702   ZZ=            -54.0837
   XY=              4.6772   XZ=              1.3688   YZ=             -1.1036

  Exact polarizability:  93.062   2.596  78.050  -0.599   0.633  60.196
 Approx polarizability: 131.486   0.259 109.092  -3.508   4.441  98.701

                      1                      2                      3
                      A                      A                      A
 Frequencies --     69.5374                92.4550               140.5130
 Red. masses --      2.7039                 3.6106                 1.6246
 Frc consts  --      0.0077                 0.0182                 0.0189
 IR Inten    --      0.3173                 3.2494                 0.6825

                      4                      5                      6
                      A                      A                      A
 Frequencies --    156.4291               210.7344               226.1113
 Red. masses --      1.3700                 1.4145                 2.3439
 Frc consts  --      0.0198                 0.0370                 0.0706
 IR Inten    --      0.6075                 0.9632                 1.0570

                      7                      8                      9
                      A                      A                      A
 Frequencies --    268.1249               329.3049               409.0109
 Red. masses --      2.9700                 2.0498                 4.0221
 Frc consts  --      0.1258                 0.1310                 0.3964
 IR Inten    --      0.9745                 0.9115                 2.7727

                     10                     11                     12
                      A                      A                      A
 Frequencies --    474.9562               523.0657               572.1896
 Red. masses --      3.2419                 3.7010                 3.5262
 Frc consts  --      0.4309                 0.5966                 0.6802
 IR Inten    --     11.7737                 5.1182                 4.2672

                     13                     14                     15
                      A                      A                      A
 Frequencies --    629.7408               677.2676               721.8858
 Red. masses --      2.9463                 4.3325                 3.5663
 Frc consts  --      0.6884                 1.1709                 1.0950
 IR Inten    --      2.0830                 3.3009                 2.7584

                     16                     17                     18
                      A                      A                      A
 Frequencies --    758.2380               789.9907               849.4152
 Red. masses --      2.2474                 1.4948                 3.9490
 Frc consts  --      0.7613                 0.5496                 1.6787
 IR Inten    --      1.9076                 7.3570                15.0475

                     19                     20                     21
                      A                      A                      A
 Frequencies --    966.5736               976.6364               992.9521
 Red. masses --      1.9402                 2.6338                 2.0615
 Frc consts  --      1.0680                 1.4801                 1.1975
 IR Inten    --      4.3607                 8.6250                 6.1824

                     22                     23                     24
                      A                      A                      A
 Frequencies --   1023.7794              1069.6518              1090.1261
 Red. masses --      3.3102                 1.4502                 1.7531
 Frc consts  --      2.0442                 0.9776                 1.2275
 IR Inten    --     28.6091                 7.4793                 5.1188

                     25                     26                     27
                      A                      A                      A
 Frequencies --   1108.8007              1148.4658              1188.6633
 Red. masses --      2.1634                 1.6669                 1.4928
 Frc consts  --      1.5671                 1.2954                 1.2427
 IR Inten    --     19.8996                 1.3545                 5.9714

                     28                     29                     30
                      A                      A                      A
 Frequencies --   1204.0031              1292.8749              1315.2999
 Red. masses --      2.7035                 2.1564                 1.4141
 Frc consts  --      2.3090                 2.1237                 1.4414
 IR Inten    --     11.6525                10.2069                10.4471

                     31                     32                     33
                      A                      A                      A
 Frequencies --   1359.2641              1405.4148              1410.9526
 Red. masses --      1.7639                 1.3299                 1.2493
 Frc consts  --      1.9202                 1.5477                 1.4654
 IR Inten    --      1.2030                 1.4487                 3.3212

                     34                     35                     36
                      A                      A                      A
 Frequencies --   1437.2499              1466.5702              1469.8196
 Red. masses --      1.2700                 1.3404                 1.0725
 Frc consts  --      1.5457                 1.6986                 1.3652
 IR Inten    --      3.9637                 0.9442                 0.9361

                     37                     38                     39
                      A                      A                      A
 Frequencies --   1485.3129              1492.1063              1498.0401
 Red. masses --      1.2244                 1.4144                 1.0401
 Frc consts  --      1.5915                 1.8553                 1.3752
 IR Inten    --      7.0534                 8.8650                 5.2920

                     40                     41                     42
                      A                      A                      A
 Frequencies --   1510.7407              1892.5324              3032.2005
 Red. masses --      1.2109                12.9060                 1.0599
 Frc consts  --      1.6283                27.2351                 5.7418
 IR Inten    --     12.8452               310.6741                16.0754

                     43                     44                     45
                      A                      A                      A
 Frequencies --   3041.5484              3042.0843              3062.5457
 Red. masses --      1.0352                 1.0350                 1.0592
 Frc consts  --      5.6424                 5.6434                 5.8530
 IR Inten    --     27.7883                11.2501                 8.3594

                     46                     47                     48
                      A                      A                      A
 Frequencies --   3073.1307              3108.9573              3112.0724
 Red. masses --      1.1009                 1.1006                 1.1017
 Frc consts  --      6.1258                 6.2678                 6.2866
 IR Inten    --      9.2868                 9.3153                29.4893

                     49                     50                     51
                      A                      A                      A
 Frequencies --   3120.6118              3123.0420              3126.8219
 Red. masses --      1.1026                 1.1019                 1.1054
 Frc consts  --      6.3265                 6.3322                 6.3674
 IR Inten    --     22.6526                11.0061                 7.9695

 - Thermochemistry -
 -------------------
 Temperature   298.150 Kelvin.  Pressure   1.00000 Atm.
 Atom     1 has atomic number  6 and mass  12.00000

 Molecular mass:   126.06808 amu.
 Principal axes and moments of inertia in atomic units:
                           1         2         3
     Eigenvalues --   626.557621448.304511801.81859
           X            0.99901   0.04435   0.00235
           Y           -0.04427   0.99869  -0.02579
           Z           -0.00349   0.02566   0.99966
 This molecule is an asymmetric top.
 Rotational symmetry number  1.
 Warning -- assumption of classical behavior for rotation
           may cause significant error
 Rotational temperatures (Kelvin)      0.13824     0.05980     0.04807
 Rotational constants (GHZ):           2.88041     1.24611     1.00162
 Zero-point vibrational energy     410007.0 (Joules/Mol)
                                   97.99402 (Kcal/Mol)
 Warning -- explicit consideration of  12 degrees of freedom as
           vibrations may cause significant error
 Vibrational temperatures:    100.05   133.02   202.17   225.07   303.20
          (Kelvin)            325.32   385.77   473.80   588.47   683.36
                              752.57   823.25   906.06   974.44  1038.63
                             1090.93  1136.62  1222.12  1390.68  1405.16
                             1428.63  1472.99  1538.99  1568.45  1595.31
                             1652.38  1710.22  1732.29  1860.16  1892.42
                             1955.68  2022.08  2030.04  2067.88  2110.06
                             2114.74  2137.03  2146.81  2155.34  2173.62
                             2722.93  4362.65  4376.10  4376.88  4406.31
                             4421.54  4473.09  4477.57  4489.86  4493.36
                             4498.79

 Zero-point correction=                           0.156163 (Hartree/Particle)
 Thermal correction to Energy=                    0.165650
 Thermal correction to Enthalpy=                  0.166594
 Thermal correction to Gibbs Free Energy=         0.121646
 Sum of electronic and zero-point Energies=           -423.022400
 Sum of electronic and thermal Energies=              -423.012914
 Sum of electronic and thermal Enthalpies=            -423.011970
 Sum of electronic and thermal Free Energies=         -423.056918

                     E (Thermal)             CV                S
                      KCal/Mol        Cal/Mol-Kelvin    Cal/Mol-Kelvin
 Total                  103.947             34.589             94.600
 Electronic               0.000              0.000              0.000
 Translational            0.889              2.981             40.409
 Rotational               0.889              2.981             28.882
 Vibrational            102.169             28.628             25.310
 Vibration     1          0.598              1.969              4.166
 Vibration     2          0.602              1.955              3.607
 Vibration     3          0.615              1.913              2.797
 Vibration     4          0.620              1.895              2.593
 Vibration     5          0.643              1.824              2.037
 Vibration     6          0.650              1.801              1.910
 Vibration     7          0.673              1.732              1.608
 Vibration     8          0.712              1.617              1.263
 Vibration     9          0.773              1.451              0.930
 Vibration    10          0.832              1.306              0.724
 Vibration    11          0.878              1.199              0.603
 Vibration    12          0.928              1.091              0.500

 Optimization completed.
    -- Stationary point found.
 Normal termination of Gaussian 09 at Tue Jan 28 10:00:16 2020.
