 Gaussian 09, Revision D.01,
 Gaussian 09:  ES64L-G09RevD.01 24-Apr-2013

 -----------------------------
 # b3lyp 6-31G(2df,p) opt Freq
 -----------------------------

 -----
 titel
 -----
 Symbolic Z-matrix:
 Charge =  0 Multiplicity = 1

 SCF Done:  E(RB3LYP) =  -423.203016909     A.U. after   14 cycles
 Optimization completed.
    -- Stationary point found.
 Normal termination of Gaussian 09 at Mon Jan 27 14:05:28 2020.

 ----------------------------------------------------------------------
 #N Geom=AllCheck Guess=TCheck SCRF=Check GenChk RB3LYP/6-31G(2df,p) Fr
 eq
 ----------------------------------------------------------------------

 Structure from the checkpoint file:  "/scratch/puck/g09_78185a6f-33da-4d8c-8a44-23f2fac50851/Gau-50965.chk"
 -----
 titel
 -----
 Charge =  0 Multiplicity = 1

                         Standard orientation:
 ---------------------------------------------------------------------
 Center     Atomic      Atomic             Coordinates (Angstroms)
 Number     Number       Type             X           Y           Z
 ---------------------------------------------------------------------
      1          6           0        2.159080    0.275350    0.922710
      2          6           0        1.290686   -0.457900   -0.080915
      3          8           0        1.719883   -1.319883   -0.810237
      4          6           0       -0.186925   -0.044550   -0.125152
      5          6           0       -1.163477   -1.079808   -0.752739
      6          6           0       -2.092788   -0.905039    0.481376
      7          6           0       -0.985079   -0.094094    1.212015
      8          6           0       -0.262128    1.297869   -0.831981
      9          8           0       -0.489550    2.351860   -0.296125
     10          1           0        3.211248    0.095215    0.699422
     11          1           0        1.942019    1.347935    0.923695
     12          1           0        1.944613   -0.091831    1.932685
     13          1           0       -1.585419   -0.814851   -1.726486
     14          1           0       -0.696107   -2.062409   -0.838795
     15          1           0       -2.978350   -0.303203    0.264474
     16          1           0       -2.413334   -1.826171    0.971524
     17          1           0       -1.261547    0.884000    1.609053
     18          1           0       -0.478173   -0.666697    1.992114
     19          1           0       -0.083833    1.231228   -1.928685
 ---------------------------------------------------------------------

 SCF Done:  E(RB3LYP) =  -423.203016909     A.U. after    1 cycles

 The electronic state is 1-A.
 Alpha  occ. eigenvalues --  -19.15413 -19.14201 -10.28269 -10.28212 -10.21131
 Alpha  occ. eigenvalues --  -10.19575 -10.19570 -10.19417 -10.19349  -1.06103
 Alpha  occ. eigenvalues --   -1.05213  -0.86243  -0.76158  -0.71145  -0.67442
 Alpha  occ. eigenvalues --   -0.60923  -0.57842  -0.52853  -0.49847  -0.49049
 Alpha  occ. eigenvalues --   -0.46460  -0.44887  -0.44245  -0.43592  -0.40455
 Alpha  occ. eigenvalues --   -0.39778  -0.39672  -0.37080  -0.35955  -0.34031
 Alpha  occ. eigenvalues --   -0.33137  -0.31994  -0.26775  -0.25106
 Alpha virt. eigenvalues --   -0.05247   0.00031   0.07838   0.09485   0.10668
 Alpha virt. eigenvalues --    0.12008   0.12137   0.14217   0.14992   0.16445
 Alpha virt. eigenvalues --    0.17373   0.19050   0.19709   0.21089   0.22366

 Mulliken charges:
               1
     1  C   -0.484200
     2  C    0.296726
     3  O   -0.291126
     4  C    0.164552
     5  C   -0.282143
     6  C   -0.206370
     7  C   -0.284553
     8  C    0.089104
     9  O   -0.246522
    10  H    0.146357
    11  H    0.154254
    12  H    0.151552
    13  H    0.105891
    14  H    0.128708
    15  H    0.114774
    16  H    0.109220
    17  H    0.129715
    18  H    0.104719
    19  H    0.099342
 Sum of Mulliken charges =   0.00000

 Dipole moment (field-independent basis, Debye):
    X=             -0.6029    Y=             -0.5728    Z=              1.0755  Tot=              1.3596
 Quadrupole moment (field-independent basis, Debye-Ang):
   XX=            -52.9618   YY=            -61.6954   ZZ=            -51.5666
   XY=              5.2094   XZ=              3.3815   YZ=             -2.7996

  Exact polarizability:  80.502  -0.138  77.084   0.056   3.207  72.540
 Approx polarizability: 108.105  -9.014 126.556  -4.591  12.407 110.625

                      1                      2                      3
                      A                      A                      A
 Frequencies --     38.0612                43.3999                82.7362
 Red. masses --      2.1312                 4.8015                 2.1936
 Frc consts  --      0.0018                 0.0053                 0.0088
 IR Inten    --      4.7765                 4.7363                 2.4163

                      4                      5                      6
                      A                      A                      A
 Frequencies --     90.9365               195.6600               226.9293
 Red. masses --      1.4467                 2.8051                 2.6601
 Frc consts  --      0.0070                 0.0633                 0.0807
 IR Inten    --      1.0449                 3.6049                 0.9872

                      7                      8                      9
                      A                      A                      A
 Frequencies --    251.3015               313.7026               399.8176
 Red. masses --      3.2088                 2.3599                 3.2545
 Frc consts  --      0.1194                 0.1368                 0.3065
 IR Inten    --      6.5903                 2.5671                 2.2290

                     10                     11                     12
                      A                      A                      A
 Frequencies --    438.2459               582.6886               604.7095
 Red. masses --      5.2811                 2.6691                 3.6602
 Frc consts  --      0.5976                 0.5339                 0.7886
 IR Inten    --      3.4542                 0.4783                15.9641

                     13                     14                     15
                      A                      A                      A
 Frequencies --    659.6638               734.9811               801.0488
 Red. masses --      2.6887                 1.4386                 1.2486
 Frc consts  --      0.6894                 0.4579                 0.4720
 IR Inten    --      4.7026                 5.9187                 0.1380

                     16                     17                     18
                      A                      A                      A
 Frequencies --    825.8342               862.7826               928.9687
 Red. masses --      2.8420                 2.4653                 2.4492
 Frc consts  --      1.1420                 1.0813                 1.2453
 IR Inten    --     20.5787                28.7781                11.7833

                     19                     20                     21
                      A                      A                      A
 Frequencies --    948.2053               962.8423               986.1647
 Red. masses --      2.5755                 2.1452                 1.9274
 Frc consts  --      1.3643                 1.1717                 1.1044
 IR Inten    --      3.6132                11.9306                 1.2134

                     22                     23                     24
                      A                      A                      A
 Frequencies --   1027.1205              1068.1376              1105.4618
 Red. masses --      1.9759                 1.1692                 2.8032
 Frc consts  --      1.2282                 0.7859                 2.0183
 IR Inten    --      1.7168                 0.8605                 5.2196

                     25                     26                     27
                      A                      A                      A
 Frequencies --   1123.4923              1178.9888              1216.0670
 Red. masses --      3.8085                 2.4396                 1.8306
 Frc consts  --      2.8323                 1.9979                 1.5950
 IR Inten    --     33.4457                14.4564                37.4813

                     28                     29                     30
                      A                      A                      A
 Frequencies --   1225.8207              1244.3981              1258.8715
 Red. masses --      2.0092                 1.3077                 1.3573
 Frc consts  --      1.7788                 1.1931                 1.2673
 IR Inten    --     52.2612                 7.8598                10.3734

                     31                     32                     33
                      A                      A                      A
 Frequencies --   1275.0719              1281.4541              1386.1319
 Red. masses --      1.4159                 1.5630                 1.2804
 Frc consts  --      1.3563                 1.5122                 1.4495
 IR Inten    --      0.6280                 0.0315                36.3714

                     34                     35                     36
                      A                      A                      A
 Frequencies --   1410.2886              1462.9411              1471.7520
 Red. masses --      1.1919                 1.0515                 1.0537
 Frc consts  --      1.3967                 1.3259                 1.3448
 IR Inten    --      5.8149                 7.9785                 9.4756

                     37                     38                     39
                      A                      A                      A
 Frequencies --   1479.3533              1485.4854              1505.4610
 Red. masses --      1.0822                 1.0808                 1.1195
 Frc consts  --      1.3954                 1.4051                 1.4949
 IR Inten    --      5.2880                 2.3222                 0.0984

                     40                     41                     42
                      A                      A                      A
 Frequencies --   1792.1828              1824.0547              2884.7070
 Red. masses --     11.2154                10.8631                 1.0835
 Frc consts  --     21.2242                21.2950                 5.3125
 IR Inten    --    305.8145                31.8604                85.5800

                     43                     44                     45
                      A                      A                      A
 Frequencies --   3043.2218              3060.7482              3069.5572
 Red. masses --      1.0370                 1.0619                 1.0577
 Frc consts  --      5.6585                 5.8614                 5.8715
 IR Inten    --      0.3802                28.6157                32.4306

                     46                     47                     48
                      A                      A                      A
 Frequencies --   3073.2995              3105.9027              3111.7990
 Red. masses --      1.0620                 1.0967                 1.1061
 Frc consts  --      5.9102                 6.2334                 6.3103
 IR Inten    --     24.4718                 4.9357                 2.3426

                     49                     50                     51
                      A                      A                      A
 Frequencies --   3126.4588              3136.4302              3154.9090
 Red. masses --      1.1043                 1.1068                 1.1033
 Frc consts  --      6.3597                 6.4146                 6.4702
 IR Inten    --      4.7935                26.4830                 7.2620

 - Thermochemistry -
 -------------------
 Temperature   298.150 Kelvin.  Pressure   1.00000 Atm.
 Atom     1 has atomic number  6 and mass  12.00000

 Molecular mass:   126.06808 amu.
 Principal axes and moments of inertia in atomic units:
                           1         2         3
     Eigenvalues --   904.882061163.269991512.21077
           X            0.99013   0.13688   0.03014
           Y           -0.13705   0.99056   0.00370
           Z           -0.02935  -0.00779   0.99954
 This molecule is an asymmetric top.
 Rotational symmetry number  1.
 Warning -- assumption of classical behavior for rotation
           may cause significant error
 Rotational temperatures (Kelvin)      0.09572     0.07446     0.05728
 Rotational constants (GHZ):           1.99445     1.55144     1.19345
 Zero-point vibrational energy     410129.2 (Joules/Mol)
                                   98.02323 (Kcal/Mol)
 Warning -- explicit consideration of  12 degrees of freedom as
           vibrations may cause significant error
 Vibrational temperatures:     54.76    62.44   119.04   130.84   281.51
          (Kelvin)            326.50   361.57   451.35   575.25   630.54
                              838.36   870.04   949.11  1057.47  1152.53
                             1188.19  1241.35  1336.58  1364.25  1385.31
                             1418.87  1477.80  1536.81  1590.51  1616.45
                             1696.30  1749.65  1763.68  1790.41  1811.23
                             1834.54  1843.72  1994.33  2029.09  2104.84
                             2117.52  2128.46  2137.28  2166.02  2578.55
                             2624.40  4150.44  4378.51  4403.73  4416.40
                             4421.79  4468.70  4477.18  4498.27  4512.62
                             4539.20

 Zero-point correction=                           0.156210 (Hartree/Particle)
 Thermal correction to Energy=                    0.166027
 Thermal correction to Enthalpy=                  0.166971
 Thermal correction to Gibbs Free Energy=         0.119792
 Sum of electronic and zero-point Energies=           -423.046807
 Sum of electronic and thermal Energies=              -423.036990
 Sum of electronic and thermal Enthalpies=            -423.036046
 Sum of electronic and thermal Free Energies=         -423.083225

                     E (Thermal)             CV                S
                      KCal/Mol        Cal/Mol-Kelvin    Cal/Mol-Kelvin
 Total                  104.183             34.161             99.296
 Electronic               0.000              0.000              0.000
 Translational            0.889              2.981             40.409
 Rotational               0.889              2.981             28.855
 Vibrational            102.406             28.199             30.032
 Vibration     1          0.594              1.982              5.358
 Vibration     2          0.595              1.980              5.098
 Vibration     3          0.600              1.961              3.825
 Vibration     4          0.602              1.956              3.640
 Vibration     5          0.636              1.846              2.174
 Vibration     6          0.651              1.800              1.903
 Vibration     7          0.663              1.761              1.721
 Vibration     8          0.702              1.648              1.343
 Vibration     9          0.766              1.471              0.963
 Vibration    10          0.798              1.387              0.832
 Vibration    11          0.940              1.069              0.480
 Vibration    12          0.963              1.022              0.442

 Normal termination of Gaussian 09 at Mon Jan 27 14:47:47 2020.
