 Gaussian 09, Revision D.01,
 Gaussian 09:  ES64L-G09RevD.01 24-Apr-2013

 -----------------------------
 # b3lyp 6-31G(2df,p) opt Freq
 -----------------------------

 -----
 titel
 -----
 Symbolic Z-matrix:
 Charge =  0 Multiplicity = 1

 SCF Done:  E(RB3LYP) =  -423.202160284     A.U. after   14 cycles
 Optimization completed.
    -- Stationary point found.
 Normal termination of Gaussian 09 at Mon Jan 27 13:55:10 2020.

 ----------------------------------------------------------------------
 #N Geom=AllCheck Guess=TCheck SCRF=Check GenChk RB3LYP/6-31G(2df,p) Fr
 eq
 ----------------------------------------------------------------------

 Structure from the checkpoint file:  "/scratch/puck/g09_c7252a86-cd6a-47de-9cba-33a51c3ae5b8/Gau-157867.chk"
 -----
 titel
 -----
 Charge =  0 Multiplicity = 1

                         Standard orientation:
 ---------------------------------------------------------------------
 Center     Atomic      Atomic             Coordinates (Angstroms)
 Number     Number       Type             X           Y           Z
 ---------------------------------------------------------------------
      1          8           0        4.187421    0.058916    0.055801
      2          6           0        3.122340   -0.193779   -0.443898
      3          6           0        1.831877   -0.398521    0.316597
      4          6           0        0.729630    0.567558   -0.153448
      5          6           0       -0.614525    0.309001    0.518119
      6          6           0       -1.826410    1.165613    0.028386
      7          6           0       -2.626055   -0.138690   -0.118676
      8          8           0       -3.782847   -0.388141   -0.288614
      9          6           0       -1.375936   -1.000597    0.126637
     10          1           0        3.018301   -0.289033   -1.551372
     11          1           0        1.502835   -1.432643    0.136973
     12          1           0        2.034680   -0.287131    1.385847
     13          1           0        1.044011    1.599716    0.045672
     14          1           0        0.609909    0.485370   -1.243118
     15          1           0       -0.506242    0.380161    1.604637
     16          1           0       -2.242727    1.909983    0.711702
     17          1           0       -1.653453    1.645713   -0.942083
     18          1           0       -1.477262   -1.789268    0.876205
     19          1           0       -1.012163   -1.452578   -0.804258
 ---------------------------------------------------------------------

 SCF Done:  E(RB3LYP) =  -423.202160284     A.U. after    1 cycles

 The electronic state is 1-A.
 Alpha  occ. eigenvalues --  -19.14524 -19.14195 -10.27758 -10.27673 -10.21339
 Alpha  occ. eigenvalues --  -10.20915 -10.20444 -10.20066 -10.19967  -1.05211
 Alpha  occ. eigenvalues --   -1.05113  -0.86343  -0.79693  -0.69546  -0.68921
 Alpha  occ. eigenvalues --   -0.59367  -0.58232  -0.53731  -0.50404  -0.48618
 Alpha  occ. eigenvalues --   -0.46798  -0.44806  -0.44287  -0.43353  -0.41438
 Alpha  occ. eigenvalues --   -0.41183  -0.39321  -0.37418  -0.36751  -0.34825
 Alpha  occ. eigenvalues --   -0.34119  -0.33259  -0.25697  -0.24787
 Alpha virt. eigenvalues --   -0.02864  -0.02386   0.07051   0.09575   0.10472
 Alpha virt. eigenvalues --    0.11292   0.12711   0.13233   0.14396   0.15338
 Alpha virt. eigenvalues --    0.15905   0.17364   0.18361   0.18978   0.21096

 Mulliken charges:
               1
     1  O   -0.233474
     2  C    0.160198
     3  C   -0.274237
     4  C   -0.220166
     5  C    0.029234
     6  C   -0.372554
     7  C    0.406742
     8  O   -0.284441
     9  C   -0.358226
    10  H    0.070559
    11  H    0.122368
    12  H    0.123877
    13  H    0.118008
    14  H    0.100921
    15  H    0.087624
    16  H    0.132970
    17  H    0.130368
    18  H    0.132827
    19  H    0.127402
 Sum of Mulliken charges =   0.00000

 Dipole moment (field-independent basis, Debye):
    X=              0.0740    Y=              0.1769    Z=             -0.1192  Tot=              0.2258
 Quadrupole moment (field-independent basis, Debye-Ang):
   XX=            -85.0843   YY=            -50.9816   ZZ=            -50.7505
   XY=             -4.1193   XZ=             -4.1252   YZ=             -0.0085

  Exact polarizability: 100.185   0.968  68.616   1.770   0.330  64.825
 Approx polarizability: 133.678   5.528 102.282   7.727   1.964 101.396

                      1                      2                      3
                      A                      A                      A
 Frequencies --     36.7766                50.6641                82.3061
 Red. masses --      5.4197                 5.5642                 2.9115
 Frc consts  --      0.0043                 0.0084                 0.0116
 IR Inten    --      8.6028                 9.0889                 0.3343

                      4                      5                      6
                      A                      A                      A
 Frequencies --    110.9514               147.9060               281.9431
 Red. masses --      3.0194                 2.4595                 3.1107
 Frc consts  --      0.0219                 0.0317                 0.1457
 IR Inten    --      0.5289                 0.0491                 0.3448

                      7                      8                      9
                      A                      A                      A
 Frequencies --    326.3831               394.5045               418.0537
 Red. masses --      3.6556                 2.9301                 1.6254
 Frc consts  --      0.2294                 0.2687                 0.1674
 IR Inten    --      1.6638                 4.3891                 0.2227

                     10                     11                     12
                      A                      A                      A
 Frequencies --    485.4811               524.7903               651.8247
 Red. masses --      3.1219                 2.5021                 2.0908
 Frc consts  --      0.4335                 0.4060                 0.5234
 IR Inten    --      2.4082                15.4933                 0.6174

                     13                     14                     15
                      A                      A                      A
 Frequencies --    668.5929               758.1249               771.5956
 Red. masses --      2.1152                 1.9760                 1.4473
 Frc consts  --      0.5571                 0.6691                 0.5077
 IR Inten    --      0.0301                 0.8608                 2.2292

                     16                     17                     18
                      A                      A                      A
 Frequencies --    846.3752               918.6585               928.2104
 Red. masses --      1.6864                 3.5153                 1.9518
 Frc consts  --      0.7118                 1.7479                 0.9908
 IR Inten    --      1.3748                 5.7273                 2.5853

                     19                     20                     21
                      A                      A                      A
 Frequencies --    971.7273               994.8786              1014.9531
 Red. masses --      1.4604                 2.0006                 2.2831
 Frc consts  --      0.8125                 1.1667                 1.3857
 IR Inten    --      1.3457                 8.1451                30.8407

                     22                     23                     24
                      A                      A                      A
 Frequencies --   1076.8662              1078.2836              1120.8668
 Red. masses --      2.2995                 3.4957                 2.4306
 Frc consts  --      1.5711                 2.3947                 1.7991
 IR Inten    --      9.9609                32.5938                21.7820

                     25                     26                     27
                      A                      A                      A
 Frequencies --   1133.5067              1176.9136              1194.6653
 Red. masses --      2.2969                 1.5410                 1.4097
 Frc consts  --      1.7388                 1.2576                 1.1854
 IR Inten    --      3.2241                14.5952                 2.9202

                     28                     29                     30
                      A                      A                      A
 Frequencies --   1233.3977              1238.0466              1257.4352
 Red. masses --      1.3834                 1.5361                 1.3027
 Frc consts  --      1.2399                 1.3872                 1.2135
 IR Inten    --      8.7448                 0.5816                 5.8921

                     31                     32                     33
                      A                      A                      A
 Frequencies --   1280.0422              1321.1707              1354.3161
 Red. masses --      1.4105                 1.2078                 1.3434
 Frc consts  --      1.3617                 1.2422                 1.4518
 IR Inten    --      4.1933                 0.3868                22.3116

                     34                     35                     36
                      A                      A                      A
 Frequencies --   1390.4539              1427.0628              1431.2967
 Red. masses --      1.5329                 1.0891                 1.1912
 Frc consts  --      1.7461                 1.3067                 1.4377
 IR Inten    --      0.1721                14.0488                 6.6746

                     37                     38                     39
                      A                      A                      A
 Frequencies --   1447.3442              1463.3783              1492.1483
 Red. masses --      1.1244                 1.0868                 1.0930
 Frc consts  --      1.3878                 1.3712                 1.4339
 IR Inten    --      1.5912                 2.0593                 4.3224

                     40                     41                     42
                      A                      A                      A
 Frequencies --   1838.3887              1896.8964              2847.2354
 Red. masses --     10.1052                12.6473                 1.0815
 Frc consts  --     20.1220                26.8124                 5.1654
 IR Inten    --    211.1423               288.4830               108.4738

                     43                     44                     45
                      A                      A                      A
 Frequencies --   3006.9179              3011.7091              3041.9883
 Red. masses --      1.0611                 1.0669                 1.0621
 Frc consts  --      5.6526                 5.7019                 5.7906
 IR Inten    --     10.1255                15.2648                 8.3539

                     46                     47                     48
                      A                      A                      A
 Frequencies --   3047.6372              3050.0431              3065.0344
 Red. masses --      1.0710                 1.0843                 1.0896
 Frc consts  --      5.8611                 5.9430                 6.0312
 IR Inten    --      3.0542                13.2131                23.7430

                     49                     50                     51
                      A                      A                      A
 Frequencies --   3098.2674              3110.8121              3112.0988
 Red. masses --      1.0974                 1.1008                 1.1018
 Frc consts  --      6.2063                 6.2763                 6.2872
 IR Inten    --     20.4764                 6.3366                17.5343

 - Thermochemistry -
 -------------------
 Temperature   298.150 Kelvin.  Pressure   1.00000 Atm.
 Atom     1 has atomic number  8 and mass  15.99491

 Molecular mass:   126.06808 amu.
 Principal axes and moments of inertia in atomic units:
                           1         2         3
     Eigenvalues --   269.544933112.675473238.22071
           X            0.99997  -0.00595  -0.00430
           Y            0.00587   0.99982  -0.01789
           Z            0.00441   0.01787   0.99983
 This molecule is an asymmetric top.
 Rotational symmetry number  1.
 Rotational temperatures (Kelvin)      0.32133     0.02783     0.02675
 Rotational constants (GHZ):           6.69551     0.57980     0.55732
 Zero-point vibrational energy     410492.1 (Joules/Mol)
                                   98.10997 (Kcal/Mol)
 Warning -- explicit consideration of  11 degrees of freedom as
           vibrations may cause significant error
 Vibrational temperatures:     52.91    72.89   118.42   159.63   212.80
          (Kelvin)            405.65   469.59   567.60   601.49   698.50
                              755.06   937.83   961.95  1090.77  1110.15
                             1217.74  1321.74  1335.49  1398.10  1431.41
                             1460.29  1549.37  1551.41  1612.68  1630.86
                             1693.31  1718.85  1774.58  1781.27  1809.17
                             1841.69  1900.87  1948.56  2000.55  2053.22
                             2059.31  2082.40  2105.47  2146.87  2645.03
                             2729.21  4096.53  4326.28  4333.17  4376.74
                             4384.86  4388.33  4409.90  4457.71  4475.76
                             4477.61

 Zero-point correction=                           0.156348 (Hartree/Particle)
 Thermal correction to Energy=                    0.165852
 Thermal correction to Enthalpy=                  0.166796
 Thermal correction to Gibbs Free Energy=         0.120094
 Sum of electronic and zero-point Energies=           -423.045812
 Sum of electronic and thermal Energies=              -423.036309
 Sum of electronic and thermal Enthalpies=            -423.035365
 Sum of electronic and thermal Free Energies=         -423.082066

                     E (Thermal)             CV                S
                      KCal/Mol        Cal/Mol-Kelvin    Cal/Mol-Kelvin
 Total                  104.073             33.445             98.292
 Electronic               0.000              0.000              0.000
 Translational            0.889              2.981             40.409
 Rotational               0.889              2.981             29.387
 Vibrational            102.296             27.483             28.497
 Vibration     1          0.594              1.982              5.426
 Vibration     2          0.595              1.977              4.791
 Vibration     3          0.600              1.961              3.835
 Vibration     4          0.607              1.940              3.252
 Vibration     5          0.617              1.905              2.699
 Vibration     6          0.681              1.707              1.522
 Vibration     7          0.710              1.623              1.278
 Vibration     8          0.761              1.482              0.983
 Vibration     9          0.781              1.431              0.899
 Vibration    10          0.842              1.282              0.695
 Vibration    11          0.880              1.195              0.599

 Optimization completed.
    -- Stationary point found.
 Normal termination of Gaussian 09 at Mon Jan 27 14:30:22 2020.
