 Gaussian 09, Revision D.01,
 Gaussian 09:  ES64L-G09RevD.01 24-Apr-2013

 -----------------------------
 # b3lyp 6-31G(2df,p) opt Freq
 -----------------------------

 -----
 titel
 -----
 Symbolic Z-matrix:
 Charge =  0 Multiplicity = 1

 SCF Done:  E(RB3LYP) =  -423.127099976     A.U. after   14 cycles
 Optimization completed.
    -- Stationary point found.
 Normal termination of Gaussian 09 at Tue Jan 28 09:06:14 2020.

 ----------------------------------------------------------------------
 #N Geom=AllCheck Guess=TCheck SCRF=Check GenChk RB3LYP/6-31G(2df,p) Fr
 eq
 ----------------------------------------------------------------------

 Structure from the checkpoint file:  "/scratch/puck/g09_a07d943d-1dbe-40f0-9c6b-2e0cb7c52dbc/Gau-20008.chk"
 -----
 titel
 -----
 Charge =  0 Multiplicity = 1

                         Standard orientation:
 ---------------------------------------------------------------------
 Center     Atomic      Atomic             Coordinates (Angstroms)
 Number     Number       Type             X           Y           Z
 ---------------------------------------------------------------------
      1          6           0       -1.894506   -1.734682    0.088954
      2          6           0       -0.640503   -1.187923   -0.597211
      3          6           0       -0.147864    0.119218    0.030575
      4          8           0        0.211835   -0.069627    1.433884
      5          6           0        1.617729    0.101265    1.163375
      6          6           0        1.350917    0.493623   -0.292796
      7          8           0        2.052183   -0.293223   -1.215835
      8          6           0       -1.094108    1.214213   -0.139458
      9          6           0       -1.846938    2.136354   -0.311785
     10          1           0       -1.708159   -1.884718    1.155782
     11          1           0       -2.736704   -1.044092   -0.014611
     12          1           0       -2.185159   -2.694518   -0.347715
     13          1           0        0.176842   -1.912640   -0.539417
     14          1           0       -0.830568   -1.009975   -1.662800
     15          1           0        2.071719    0.863101    1.805377
     16          1           0        2.178315   -0.837355    1.251769
     17          1           0        1.467190    1.563500   -0.494228
     18          1           0        1.907656    0.062069   -2.098472
     19          1           0       -2.521631    2.945016   -0.450008
 ---------------------------------------------------------------------

 SCF Done:  E(RB3LYP) =  -423.127099976     A.U. after    1 cycles

 The electronic state is 1-A.
 Alpha  occ. eigenvalues --  -19.15688 -19.13622 -10.25487 -10.24594 -10.22953
 Alpha  occ. eigenvalues --  -10.18281 -10.18277 -10.17938 -10.16782  -1.05311
 Alpha  occ. eigenvalues --   -1.02640  -0.79611  -0.74471  -0.73106  -0.68584
 Alpha  occ. eigenvalues --   -0.61486  -0.58313  -0.53630  -0.52278  -0.50367
 Alpha  occ. eigenvalues --   -0.46878  -0.45391  -0.42907  -0.41709  -0.39799
 Alpha  occ. eigenvalues --   -0.37164  -0.35905  -0.34598  -0.33973  -0.31644
 Alpha  occ. eigenvalues --   -0.29275  -0.27659  -0.26258  -0.24884
 Alpha virt. eigenvalues --    0.02317   0.04759   0.06432   0.10461   0.11917
 Alpha virt. eigenvalues --    0.12507   0.13722   0.14335   0.15872   0.16323
 Alpha virt. eigenvalues --    0.17351   0.18182   0.18950   0.20411   0.21481

 Mulliken charges:
               1
     1  C   -0.392872
     2  C   -0.213885
     3  C    0.173846
     4  O   -0.311426
     5  C   -0.088083
     6  C    0.005904
     7  O   -0.412323
     8  C    0.313763
     9  C   -0.457782
    10  H    0.136261
    11  H    0.125786
    12  H    0.109820
    13  H    0.113219
    14  H    0.093373
    15  H    0.110286
    16  H    0.111935
    17  H    0.091236
    18  H    0.292788
    19  H    0.198155
 Sum of Mulliken charges =   0.00000

 Dipole moment (field-independent basis, Debye):
    X=              0.4951    Y=              1.0336    Z=             -1.9726  Tot=              2.2814
 Quadrupole moment (field-independent basis, Debye-Ang):
   XX=            -52.1088   YY=            -50.2916   ZZ=            -52.0347
   XY=              0.1152   XZ=              1.1859   YZ=             -1.4983

  Exact polarizability:  85.875  -9.710  81.883   4.933  -1.906  65.433
 Approx polarizability: 119.683 -24.205 120.252   6.532  -5.364  97.996

                      1                      2                      3
                      A                      A                      A
 Frequencies --     55.4362                99.2256               144.2227
 Red. masses --      2.7846                 2.4320                 3.4948
 Frc consts  --      0.0050                 0.0141                 0.0428
 IR Inten    --      0.5384                 0.4175                 0.2103

                      4                      5                      6
                      A                      A                      A
 Frequencies --    165.1967               181.4243               228.5272
 Red. masses --      3.3163                 2.8960                 1.3467
 Frc consts  --      0.0533                 0.0562                 0.0414
 IR Inten    --      1.5055                 1.0572                 0.2836

                      7                      8                      9
                      A                      A                      A
 Frequencies --    292.5934               308.1811               376.2493
 Red. masses --      2.2001                 1.3360                 3.1570
 Frc consts  --      0.1110                 0.0748                 0.2633
 IR Inten    --      7.8118               114.9924                 8.4086

                     10                     11                     12
                      A                      A                      A
 Frequencies --    407.1170               490.0694               531.6771
 Red. masses --      3.3899                 4.8635                 5.2377
 Frc consts  --      0.3310                 0.6882                 0.8723
 IR Inten    --      4.3796                 3.4519                 6.7511

                     13                     14                     15
                      A                      A                      A
 Frequencies --    584.9514               620.6931               631.2006
 Red. masses --      5.2361                 1.3657                 2.8601
 Frc consts  --      1.0556                 0.3100                 0.6714
 IR Inten    --      4.8098                34.8179                12.6995

                     16                     17                     18
                      A                      A                      A
 Frequencies --    662.4689               768.0453               791.8405
 Red. masses --      1.2577                 2.2234                 1.5285
 Frc consts  --      0.3252                 0.7728                 0.5647
 IR Inten    --     34.7591                 2.2910                 0.3117

                     19                     20                     21
                      A                      A                      A
 Frequencies --    905.8648               942.2127               996.0529
 Red. masses --      2.0582                 2.1374                 2.4056
 Frc consts  --      0.9951                 1.1180                 1.4061
 IR Inten    --     18.8770                36.5280                19.2661

                     22                     23                     24
                      A                      A                      A
 Frequencies --   1008.3071              1018.4207              1037.0877
 Red. masses --      4.8146                 2.3352                 2.7510
 Frc consts  --      2.8840                 1.4270                 1.7433
 IR Inten    --     46.1521                27.4773                61.3693

                     25                     26                     27
                      A                      A                      A
 Frequencies --   1111.0141              1139.1016              1145.1807
 Red. masses --      2.3802                 3.2350                 2.1987
 Frc consts  --      1.7310                 2.4732                 1.6989
 IR Inten    --     16.6777                14.1259                73.4828

                     28                     29                     30
                      A                      A                      A
 Frequencies --   1168.7104              1206.8959              1243.6308
 Red. masses --      1.4323                 2.1928                 1.3115
 Frc consts  --      1.1527                 1.8819                 1.1951
 IR Inten    --     15.0518                 7.7166                43.6780

                     31                     32                     33
                      A                      A                      A
 Frequencies --   1292.9263              1320.3705              1337.3597
 Red. masses --      1.2278                 1.4650                 1.3798
 Frc consts  --      1.2093                 1.5048                 1.4540
 IR Inten    --     32.7198                10.5825                 3.1226

                     34                     35                     36
                      A                      A                      A
 Frequencies --   1360.5805              1406.0463              1446.5759
 Red. masses --      1.5133                 1.2350                 1.4831
 Frc consts  --      1.6505                 1.4385                 1.8285
 IR Inten    --      1.1141                 3.3132                 7.0592

                     37                     38                     39
                      A                      A                      A
 Frequencies --   1474.8737              1496.1549              1510.5583
 Red. masses --      1.0781                 1.0390                 1.0580
 Frc consts  --      1.3818                 1.3703                 1.4224
 IR Inten    --      2.1155                 3.6992                 3.7030

                     40                     41                     42
                      A                      A                      A
 Frequencies --   1517.2675              2226.4863              3026.1270
 Red. masses --      1.1090                 5.9448                 1.0569
 Frc consts  --      1.5042                17.3632                 5.7022
 IR Inten    --      1.9164                 0.6535                60.1716

                     43                     44                     45
                      A                      A                      A
 Frequencies --   3036.7564              3044.4543              3048.3337
 Red. masses --      1.0642                 1.0350                 1.0884
 Frc consts  --      5.7820                 5.6520                 5.9588
 IR Inten    --     18.5134                25.4969                16.5620

                     46                     47                     48
                      A                      A                      A
 Frequencies --   3080.9788              3088.3541              3114.5148
 Red. masses --      1.1078                 1.0976                 1.1013
 Frc consts  --      6.1954                 6.1678                 6.2942
 IR Inten    --     44.3326                 7.3100                29.5872

                     49                     50                     51
                      A                      A                      A
 Frequencies --   3124.7003              3499.6779              3822.4109
 Red. masses --      1.1022                 1.1613                 1.0663
 Frc consts  --      6.3407                 8.3804                 9.1791
 IR Inten    --     21.9858                66.3543                31.0397

 - Thermochemistry -
 -------------------
 Temperature   298.150 Kelvin.  Pressure   1.00000 Atm.
 Atom     1 has atomic number  6 and mass  12.00000

 Molecular mass:   126.06808 amu.
 Principal axes and moments of inertia in atomic units:
                           1         2         3
     Eigenvalues --   902.461551273.752701506.14409
           X            0.99728   0.07159   0.01761
           Y           -0.07158   0.99743  -0.00086
           Z           -0.01763  -0.00040   0.99984
 This molecule is an asymmetric top.
 Rotational symmetry number  1.
 Warning -- assumption of classical behavior for rotation
           may cause significant error
 Rotational temperatures (Kelvin)      0.09598     0.06800     0.05751
 Rotational constants (GHZ):           1.99980     1.41687     1.19825
 Zero-point vibrational energy     409942.9 (Joules/Mol)
                                   97.97871 (Kcal/Mol)
 Warning -- explicit consideration of  14 degrees of freedom as
           vibrations may cause significant error
 Vibrational temperatures:     79.76   142.76   207.50   237.68   261.03
          (Kelvin)            328.80   420.98   443.40   541.34   585.75
                              705.10   764.96   841.61   893.04   908.16
                              953.14  1105.04  1139.28  1303.34  1355.63
                             1433.10  1450.73  1465.28  1492.14  1598.50
                             1638.91  1647.66  1681.51  1736.45  1789.31
                             1860.23  1899.72  1924.16  1957.57  2022.98
                             2081.30  2122.01  2152.63  2173.35  2183.01
                             3203.41  4353.92  4369.21  4380.29  4385.87
                             4432.84  4443.45  4481.09  4495.74  5035.25
                             5499.59

 Zero-point correction=                           0.156139 (Hartree/Particle)
 Thermal correction to Energy=                    0.166004
 Thermal correction to Enthalpy=                  0.166948
 Thermal correction to Gibbs Free Energy=         0.121276
 Sum of electronic and zero-point Energies=           -422.970961
 Sum of electronic and thermal Energies=              -422.961096
 Sum of electronic and thermal Enthalpies=            -422.960152
 Sum of electronic and thermal Free Energies=         -423.005824

                     E (Thermal)             CV                S
                      KCal/Mol        Cal/Mol-Kelvin    Cal/Mol-Kelvin
 Total                  104.169             36.199             96.125
 Electronic               0.000              0.000              0.000
 Translational            0.889              2.981             40.409
 Rotational               0.889              2.981             28.939
 Vibrational            102.392             30.237             26.777
 Vibration     1          0.596              1.975              4.613
 Vibration     2          0.604              1.950              3.469
 Vibration     3          0.616              1.909              2.747
 Vibration     4          0.624              1.885              2.489
 Vibration     5          0.630              1.865              2.314
 Vibration     6          0.651              1.797              1.890
 Vibration     7          0.688              1.688              1.459
 Vibration     8          0.698              1.658              1.372
 Vibration     9          0.747              1.521              1.054
 Vibration    10          0.772              1.455              0.937
 Vibration    11          0.846              1.272              0.683
 Vibration    12          0.887              1.180              0.583
 Vibration    13          0.942              1.064              0.476
 Vibration    14          0.981              0.988              0.415

 Optimization completed.
    -- Stationary point found.
 Normal termination of Gaussian 09 at Tue Jan 28 09:47:45 2020.
