 Gaussian 09, Revision D.01,
 Gaussian 09:  ES64L-G09RevD.01 24-Apr-2013

 -----------------------------
 # b3lyp 6-31G(2df,p) opt Freq
 -----------------------------

 -----
 titel
 -----
 Symbolic Z-matrix:
 Charge =  0 Multiplicity = 1

 SCF Done:  E(RB3LYP) =  -423.204298145     A.U. after   14 cycles
 Optimization completed.
    -- Stationary point found.
 Normal termination of Gaussian 09 at Tue Jan 28 08:10:37 2020.

 ----------------------------------------------------------------------
 #N Geom=AllCheck Guess=TCheck SCRF=Check GenChk RB3LYP/6-31G(2df,p) Fr
 eq
 ----------------------------------------------------------------------

 Structure from the checkpoint file:  "/scratch/puck/g09_98d5542f-5445-448e-9f01-a62284e81076/Gau-126926.chk"
 -----
 titel
 -----
 Charge =  0 Multiplicity = 1

                         Standard orientation:
 ---------------------------------------------------------------------
 Center     Atomic      Atomic             Coordinates (Angstroms)
 Number     Number       Type             X           Y           Z
 ---------------------------------------------------------------------
      1          6           0       -0.148256    2.337995    0.332137
      2          6           0        0.301288    1.045438   -0.371751
      3          6           0        1.719909    0.678844    0.092965
      4          8           0        2.126202   -0.597923   -0.360799
      5          6           0        1.348792   -1.635069    0.198070
      6          6           0       -0.117681   -1.345575    0.183588
      7          6           0       -0.616433   -0.136386   -0.109478
      8          6           0       -2.091590    0.013452   -0.210653
      9          8           0       -2.894359   -0.848172    0.070825
     10          1           0       -0.260563    2.179539    1.410113
     11          1           0        0.595829    3.127991    0.183820
     12          1           0       -1.099507    2.712771   -0.053135
     13          1           0        0.335404    1.236580   -1.453814
     14          1           0        2.450440    1.391737   -0.299892
     15          1           0        1.761630    0.724904    1.195095
     16          1           0        1.560310   -2.535764   -0.391080
     17          1           0        1.670317   -1.856570    1.233975
     18          1           0       -0.803583   -2.160770    0.399405
     19          1           0       -2.441196    0.996136   -0.593964
 ---------------------------------------------------------------------

 SCF Done:  E(RB3LYP) =  -423.204298145     A.U. after    1 cycles

 The electronic state is 1-A.
 Alpha  occ. eigenvalues --  -19.14861 -19.13287 -10.26686 -10.24418 -10.23510
 Alpha  occ. eigenvalues --  -10.20512 -10.20432 -10.19845 -10.18980  -1.04593
 Alpha  occ. eigenvalues --   -1.03861  -0.83109  -0.78712  -0.71222  -0.67795
 Alpha  occ. eigenvalues --   -0.62513  -0.59816  -0.52952  -0.51317  -0.48695
 Alpha  occ. eigenvalues --   -0.46148  -0.45401  -0.44019  -0.42466  -0.41454
 Alpha  occ. eigenvalues --   -0.39970  -0.38846  -0.38657  -0.36787  -0.34931
 Alpha  occ. eigenvalues --   -0.31718  -0.26762  -0.26044  -0.24807
 Alpha virt. eigenvalues --   -0.05876   0.05811   0.08544   0.09369   0.12420
 Alpha virt. eigenvalues --    0.13068   0.13243   0.14805   0.15172   0.16288
 Alpha virt. eigenvalues --    0.17140   0.17804   0.19573   0.21655   0.22170

 Mulliken charges:
               1
     1  C   -0.410741
     2  C   -0.117075
     3  C   -0.081918
     4  O   -0.247323
     5  C   -0.133167
     6  C   -0.131393
     7  C    0.192513
     8  C    0.087536
     9  O   -0.267842
    10  H    0.124964
    11  H    0.121796
    12  H    0.126628
    13  H    0.095906
    14  H    0.112340
    15  H    0.088524
    16  H    0.130469
    17  H    0.109255
    18  H    0.128321
    19  H    0.071209
 Sum of Mulliken charges =   0.00000

 Dipole moment (field-independent basis, Debye):
    X=              1.7419    Y=              1.3581    Z=              0.2957  Tot=              2.2285
 Quadrupole moment (field-independent basis, Debye-Ang):
   XX=            -65.0807   YY=            -48.9439   ZZ=            -52.9698
   XY=             -3.5626   XZ=              2.6516   YZ=             -1.1487

  Exact polarizability:  90.085  -5.335  92.374   2.440  -5.545  56.640
 Approx polarizability: 131.604  -9.417 135.833   1.989 -11.850  90.771

                      1                      2                      3
                      A                      A                      A
 Frequencies --     77.5660               110.4753               201.5246
 Red. masses --      2.9678                 3.2211                 1.3369
 Frc consts  --      0.0105                 0.0232                 0.0320
 IR Inten    --      1.7316                 6.6598                 0.9928

                      4                      5                      6
                      A                      A                      A
 Frequencies --    218.5952               242.7687               290.4192
 Red. masses --      3.6164                 2.2837                 2.4738
 Frc consts  --      0.1018                 0.0793                 0.1229
 IR Inten    --      4.7746                 0.6593                 1.6081

                      7                      8                      9
                      A                      A                      A
 Frequencies --    304.4020               343.1385               418.3100
 Red. masses --      2.1867                 2.3282                 4.5541
 Frc consts  --      0.1194                 0.1615                 0.4695
 IR Inten    --      6.1497                 2.1190                 1.1900

                     10                     11                     12
                      A                      A                      A
 Frequencies --    497.3055               535.4102               618.5559
 Red. masses --      4.5322                 3.6938                 3.7117
 Frc consts  --      0.6604                 0.6239                 0.8367
 IR Inten    --      0.9931                 8.5055                14.8549

                     13                     14                     15
                      A                      A                      A
 Frequencies --    740.6549               794.7473               850.5075
 Red. masses --      3.4300                 3.7951                 1.2440
 Frc consts  --      1.1086                 1.4123                 0.5302
 IR Inten    --      2.4370                27.8697                 4.0208

                     16                     17                     18
                      A                      A                      A
 Frequencies --    904.8176               919.2352               960.3033
 Red. masses --      1.6423                 2.7098                 1.5047
 Frc consts  --      0.7922                 1.3491                 0.8175
 IR Inten    --     10.0906                 9.4333                 1.2666

                     19                     20                     21
                      A                      A                      A
 Frequencies --   1023.5715              1034.4806              1046.5281
 Red. masses --      2.3694                 1.8398                 1.7576
 Frc consts  --      1.4626                 1.1600                 1.1342
 IR Inten    --     16.1420                 8.5245                 2.7356

                     22                     23                     24
                      A                      A                      A
 Frequencies --   1084.7692              1111.5288              1125.4784
 Red. masses --      3.1294                 1.9519                 2.5155
 Frc consts  --      2.1696                 1.4209                 1.8774
 IR Inten    --      8.3721                14.1770                14.0097

                     25                     26                     27
                      A                      A                      A
 Frequencies --   1174.7973              1194.7720              1247.9473
 Red. masses --      4.8194                 2.2288                 1.1887
 Frc consts  --      3.9190                 1.8745                 1.0908
 IR Inten    --     94.4085                42.5565                10.2398

                     28                     29                     30
                      A                      A                      A
 Frequencies --   1298.3792              1315.0573              1322.6728
 Red. masses --      1.3763                 1.3043                 1.2893
 Frc consts  --      1.3670                 1.3290                 1.3289
 IR Inten    --      7.5182                 1.3058                 4.9955

                     31                     32                     33
                      A                      A                      A
 Frequencies --   1368.5124              1378.2497              1407.8774
 Red. masses --      1.6141                 1.3229                 1.2917
 Frc consts  --      1.7811                 1.4806                 1.5085
 IR Inten    --      9.8965                 4.9113                 2.7508

                     34                     35                     36
                      A                      A                      A
 Frequencies --   1423.5783              1445.3860              1474.0802
 Red. masses --      1.3124                 1.2805                 1.0880
 Frc consts  --      1.5670                 1.5761                 1.3928
 IR Inten    --      8.1179                 9.3504                 7.8419

                     37                     38                     39
                      A                      A                      A
 Frequencies --   1494.5555              1500.8475              1504.6684
 Red. masses --      1.0814                 1.0792                 1.0476
 Frc consts  --      1.4232                 1.4322                 1.3974
 IR Inten    --      0.3353                 4.0469                 6.4575

                     40                     41                     42
                      A                      A                      A
 Frequencies --   1678.1030              1794.8062              2897.3519
 Red. masses --      8.2693                 9.5612                 1.0814
 Frc consts  --     13.7200                18.1468                 5.3487
 IR Inten    --    115.4320               116.8792               121.8183

                     43                     44                     45
                      A                      A                      A
 Frequencies --   2925.7976              2958.0351              3004.3898
 Red. masses --      1.0726                 1.0704                 1.0818
 Frc consts  --      5.4097                 5.5185                 5.7530
 IR Inten    --     44.6833                45.0748                23.6530

                     46                     47                     48
                      A                      A                      A
 Frequencies --   3035.5081              3050.0596              3086.4192
 Red. masses --      1.0367                 1.0857                 1.0931
 Frc consts  --      5.6279                 5.9507                 6.1352
 IR Inten    --     24.7832                20.7631                23.7102

                     49                     50                     51
                      A                      A                      A
 Frequencies --   3100.0972              3117.9363              3174.8681
 Red. masses --      1.1012                 1.0998                 1.0894
 Frc consts  --      6.2355                 6.2996                 6.4698
 IR Inten    --     33.9696                22.2189                 1.6556

 - Thermochemistry -
 -------------------
 Temperature   298.150 Kelvin.  Pressure   1.00000 Atm.
 Atom     1 has atomic number  6 and mass  12.00000

 Molecular mass:   126.06808 amu.
 Principal axes and moments of inertia in atomic units:
                           1         2         3
     Eigenvalues --   755.354201284.705381935.42076
           X            0.99956  -0.02778   0.00997
           Y            0.02782   0.99961  -0.00307
           Z           -0.00988   0.00335   0.99995
 This molecule is an asymmetric top.
 Rotational symmetry number  1.
 Warning -- assumption of classical behavior for rotation
           may cause significant error
 Rotational temperatures (Kelvin)      0.11467     0.06742     0.04475
 Rotational constants (GHZ):           2.38926     1.40479     0.93248
 Zero-point vibrational energy     417675.2 (Joules/Mol)
                                   99.82678 (Kcal/Mol)
 Warning -- explicit consideration of  12 degrees of freedom as
           vibrations may cause significant error
 Vibrational temperatures:    111.60   158.95   289.95   314.51   349.29
          (Kelvin)            417.85   437.97   493.70   601.85   715.51
                              770.33   889.96  1065.64  1143.46  1223.69
                             1301.83  1322.57  1381.66  1472.69  1488.38
                             1505.72  1560.74  1599.24  1619.31  1690.27
                             1719.01  1795.52  1868.08  1892.07  1903.03
                             1968.98  1982.99  2025.62  2048.21  2079.59
                             2120.87  2150.33  2159.38  2164.88  2414.41
                             2582.32  4168.64  4209.56  4255.95  4322.64
                             4367.41  4388.35  4440.66  4460.34  4486.01
                             4567.92

 Zero-point correction=                           0.159084 (Hartree/Particle)
 Thermal correction to Energy=                    0.167780
 Thermal correction to Enthalpy=                  0.168725
 Thermal correction to Gibbs Free Energy=         0.125525
 Sum of electronic and zero-point Energies=           -423.045214
 Sum of electronic and thermal Energies=              -423.036518
 Sum of electronic and thermal Enthalpies=            -423.035574
 Sum of electronic and thermal Free Energies=         -423.078774

                     E (Thermal)             CV                S
                      KCal/Mol        Cal/Mol-Kelvin    Cal/Mol-Kelvin
 Total                  105.284             32.238             90.922
 Electronic               0.000              0.000              0.000
 Translational            0.889              2.981             40.409
 Rotational               0.889              2.981             29.020
 Vibrational            103.506             26.276             21.494
 Vibration     1          0.599              1.964              3.952
 Vibration     2          0.606              1.941              3.261
 Vibration     3          0.638              1.838              2.119
 Vibration     4          0.646              1.813              1.971
 Vibration     5          0.659              1.775              1.783
 Vibration     6          0.686              1.692              1.472
 Vibration     7          0.695              1.665              1.393
 Vibration     8          0.722              1.589              1.198
 Vibration     9          0.781              1.430              0.898
 Vibration    10          0.853              1.256              0.665
 Vibration    11          0.890              1.172              0.575
 Vibration    12          0.978              0.993              0.419

 Normal termination of Gaussian 09 at Tue Jan 28 08:54:45 2020.
