 Gaussian 09, Revision D.01,
 Gaussian 09:  ES64L-G09RevD.01 24-Apr-2013

 -----------------------------
 # b3lyp 6-31G(2df,p) opt Freq
 -----------------------------

 -----
 titel
 -----
 Symbolic Z-matrix:
 Charge =  0 Multiplicity = 1

 SCF Done:  E(RB3LYP) =  -423.141887703     A.U. after   14 cycles
 Optimization completed.
    -- Stationary point found.
 Normal termination of Gaussian 09 at Mon Jan 27 22:57:38 2020.

 ----------------------------------------------------------------------
 #N Geom=AllCheck Guess=TCheck SCRF=Check GenChk RB3LYP/6-31G(2df,p) Fr
 eq
 ----------------------------------------------------------------------

 Structure from the checkpoint file:  "/scratch/puck/g09_9111d658-a32d-4b8a-b45b-0af53b035f35/Gau-191709.chk"
 -----
 titel
 -----
 Charge =  0 Multiplicity = 1

                         Standard orientation:
 ---------------------------------------------------------------------
 Center     Atomic      Atomic             Coordinates (Angstroms)
 Number     Number       Type             X           Y           Z
 ---------------------------------------------------------------------
      1          8           0       -0.146043    2.172399   -0.009149
      2          6           0        0.115689    0.915364   -0.595620
      3          6           0        1.523035    0.318270   -0.322815
      4          6           0        1.429687   -0.248201    1.110768
      5          6           0        0.475345   -1.190009    0.342434
      6          8           0        1.351724   -1.043189   -0.828403
      7          6           0       -0.690043   -0.287377   -0.042422
      8          6           0       -1.981873   -0.779600   -0.613609
      9          6           0       -1.954356   -0.133384    0.754067
     10          1           0       -0.138536    2.064576    0.947920
     11          1           0       -0.033160    1.052899   -1.669257
     12          1           0        2.392999    0.845102   -0.713176
     13          1           0        2.352798   -0.745793    1.408565
     14          1           0        1.032947    0.367745    1.923689
     15          1           0        0.274587   -2.221379    0.633790
     16          1           0       -2.422285   -0.218103   -1.431353
     17          1           0       -2.144703   -1.851534   -0.670222
     18          1           0       -2.363117    0.867681    0.849117
     19          1           0       -2.101881   -0.765246    1.624534
 ---------------------------------------------------------------------

 SCF Done:  E(RB3LYP) =  -423.141887703     A.U. after    1 cycles

 The electronic state is 1-A.
 Alpha  occ. eigenvalues --  -19.14238 -19.13507 -10.24179 -10.23617 -10.23314
 Alpha  occ. eigenvalues --  -10.19593 -10.19405 -10.19000 -10.18749  -1.05270
 Alpha  occ. eigenvalues --   -1.02115  -0.86196  -0.76576  -0.70776  -0.67661
 Alpha  occ. eigenvalues --   -0.60503  -0.57780  -0.55154  -0.52080  -0.49066
 Alpha  occ. eigenvalues --   -0.48146  -0.45105  -0.43222  -0.42078  -0.41069
 Alpha  occ. eigenvalues --   -0.37604  -0.36931  -0.34423  -0.33487  -0.32175
 Alpha  occ. eigenvalues --   -0.30368  -0.28605  -0.27473  -0.23804
 Alpha virt. eigenvalues --    0.06711   0.08332   0.10128   0.10793   0.11377
 Alpha virt. eigenvalues --    0.13052   0.14342   0.15103   0.16322   0.16727
 Alpha virt. eigenvalues --    0.17646   0.17960   0.20106   0.21904   0.22721

 Mulliken charges:
               1
     1  O   -0.434596
     2  C    0.050369
     3  C    0.037362
     4  C   -0.250659
     5  C   -0.005754
     6  O   -0.294243
     7  C    0.364014
     8  C   -0.336860
     9  C   -0.340231
    10  H    0.281819
    11  H    0.101253
    12  H    0.083886
    13  H    0.116343
    14  H    0.085150
    15  H    0.078833
    16  H    0.118820
    17  H    0.112966
    18  H    0.120372
    19  H    0.111157
 Sum of Mulliken charges =   0.00000

 Dipole moment (field-independent basis, Debye):
    X=             -0.3480    Y=             -0.3204    Z=              2.0108  Tot=              2.0657
 Quadrupole moment (field-independent basis, Debye-Ang):
   XX=            -53.4429   YY=            -56.3366   ZZ=            -51.4715
   XY=              2.6383   XZ=              1.7168   YZ=             -0.5397

  Exact polarizability:  81.124   2.521  71.868   0.835  -0.603  69.565
 Approx polarizability: 109.249   1.681 108.951  -2.776   2.235 109.039

                      1                      2                      3
                      A                      A                      A
 Frequencies --    125.3471               229.6296               245.8017
 Red. masses --      3.6055                 3.0216                 3.7594
 Frc consts  --      0.0334                 0.0939                 0.1338
 IR Inten    --      0.4307                 1.0443                 5.1085

                      4                      5                      6
                      A                      A                      A
 Frequencies --    260.3922               275.5393               380.5303
 Red. masses --      2.1057                 1.1495                 3.7160
 Frc consts  --      0.0841                 0.0514                 0.3170
 IR Inten    --      7.3684                71.5140                27.4412

                      7                      8                      9
                      A                      A                      A
 Frequencies --    463.9050               531.6463               549.9898
 Red. masses --      2.7996                 6.3424                 2.9079
 Frc consts  --      0.3550                 1.0562                 0.5182
 IR Inten    --      0.9609                 6.5689                 1.4958

                     10                     11                     12
                      A                      A                      A
 Frequencies --    586.7835               758.0183               782.7712
 Red. masses --      3.4758                 2.9708                 1.1272
 Frc consts  --      0.7051                 1.0057                 0.4069
 IR Inten    --      7.5300                14.5499                 1.5898

                     13                     14                     15
                      A                      A                      A
 Frequencies --    819.0548               840.1323               865.9017
 Red. masses --      2.2821                 2.7380                 2.8897
 Frc consts  --      0.9020                 1.1386                 1.2766
 IR Inten    --      1.0213                15.0567                37.1606

                     16                     17                     18
                      A                      A                      A
 Frequencies --    915.7383               921.0741               946.9660
 Red. masses --      2.8499                 3.4331                 1.4384
 Frc consts  --      1.4080                 1.7160                 0.7600
 IR Inten    --     22.8457                 5.1504                 4.5091

                     19                     20                     21
                      A                      A                      A
 Frequencies --    969.5161               973.9363              1004.0563
 Red. masses --      2.4656                 2.3281                 2.5430
 Frc consts  --      1.3655                 1.3011                 1.5105
 IR Inten    --     12.7161                10.7148                 7.7706

                     22                     23                     24
                      A                      A                      A
 Frequencies --   1022.8929              1055.8648              1068.1233
 Red. masses --      1.6875                 1.4148                 2.7554
 Frc consts  --      1.0403                 0.9293                 1.8522
 IR Inten    --      4.4829                 5.9087                 6.8324

                     25                     26                     27
                      A                      A                      A
 Frequencies --   1075.8394              1083.5003              1123.8340
 Red. masses --      1.4549                 1.4046                 2.4796
 Frc consts  --      0.9921                 0.9715                 1.8451
 IR Inten    --     20.4350                 2.8597                84.4165

                     28                     29                     30
                      A                      A                      A
 Frequencies --   1177.6338              1189.9411              1221.2666
 Red. masses --      1.4786                 1.3111                 1.4318
 Frc consts  --      1.2082                 1.0938                 1.2582
 IR Inten    --      8.1523                 0.6741                 4.0408

                     31                     32                     33
                      A                      A                      A
 Frequencies --   1234.0224              1247.2838              1267.7899
 Red. masses --      2.1732                 1.3726                 1.4352
 Frc consts  --      1.9499                 1.2581                 1.3591
 IR Inten    --      3.7336                 0.8498                12.8673

                     34                     35                     36
                      A                      A                      A
 Frequencies --   1273.5917              1302.2711              1321.9419
 Red. masses --      1.6154                 1.6775                 1.6907
 Frc consts  --      1.5438                 1.6761                 1.7408
 IR Inten    --      8.2362                 2.8549                 3.0133

                     37                     38                     39
                      A                      A                      A
 Frequencies --   1397.2186              1423.5659              1465.8936
 Red. masses --      2.2642                 1.2726                 1.0883
 Frc consts  --      2.6043                 1.5194                 1.3779
 IR Inten    --      9.0146                61.1410                 1.5126

                     40                     41                     42
                      A                      A                      A
 Frequencies --   1489.2143              1506.7680              3055.6912
 Red. masses --      1.1419                 1.5174                 1.0622
 Frc consts  --      1.4921                 2.0298                 5.8434
 IR Inten    --      4.1631                 0.1924                34.5351

                     43                     44                     45
                      A                      A                      A
 Frequencies --   3087.6778              3118.5841              3121.1606
 Red. masses --      1.0867                 1.0901                 1.0505
 Frc consts  --      6.1042                 6.2462                 6.0297
 IR Inten    --     20.2694                30.5613                17.9522

                     46                     47                     48
                      A                      A                      A
 Frequencies --   3123.9416              3131.3057              3142.1544
 Red. masses --      1.0588                 1.0936                 1.1017
 Frc consts  --      6.0881                 6.3176                 6.4085
 IR Inten    --     22.2715                31.6754                27.0776

                     49                     50                     51
                      A                      A                      A
 Frequencies --   3199.5246              3213.6157              3810.6331
 Red. masses --      1.1178                 1.1155                 1.0656
 Frc consts  --      6.7422                 6.7877                 9.1164
 IR Inten    --      0.1365                14.2645                10.1787

 - Thermochemistry -
 -------------------
 Temperature   298.150 Kelvin.  Pressure   1.00000 Atm.
 Atom     1 has atomic number  8 and mass  15.99491

 Molecular mass:   126.06808 amu.
 Principal axes and moments of inertia in atomic units:
                           1         2         3
     Eigenvalues --   739.35365 989.220751298.70801
           X            0.99834   0.05420   0.01937
           Y           -0.05397   0.99847  -0.01192
           Z           -0.01999   0.01085   0.99974
 This molecule is an asymmetric top.
 Rotational symmetry number  1.
 Warning -- assumption of classical behavior for rotation
           may cause significant error
 Rotational temperatures (Kelvin)      0.11715     0.08756     0.06669
 Rotational constants (GHZ):           2.44097     1.82441     1.38964
 Zero-point vibrational energy     421082.4 (Joules/Mol)
                                  100.64110 (Kcal/Mol)
 Warning -- explicit consideration of  10 degrees of freedom as
           vibrations may cause significant error
 Vibrational temperatures:    180.35   330.39   353.65   374.65   396.44
          (Kelvin)            547.50   667.46   764.92   791.31   844.25
                             1090.62  1126.23  1178.44  1208.76  1245.84
                             1317.54  1325.22  1362.47  1394.92  1401.28
                             1444.61  1471.71  1519.15  1536.79  1547.89
                             1558.91  1616.94  1694.35  1712.06  1757.13
                             1775.48  1794.56  1824.06  1832.41  1873.68
                             1901.98  2010.28  2048.19  2109.09  2142.64
                             2167.90  4396.45  4442.47  4486.94  4490.65
                             4494.65  4505.24  4520.85  4603.40  4623.67
                             5482.64

 Zero-point correction=                           0.160382 (Hartree/Particle)
 Thermal correction to Energy=                    0.167939
 Thermal correction to Enthalpy=                  0.168883
 Thermal correction to Gibbs Free Energy=         0.128735
 Sum of electronic and zero-point Energies=           -422.981506
 Sum of electronic and thermal Energies=              -422.973949
 Sum of electronic and thermal Enthalpies=            -422.973005
 Sum of electronic and thermal Free Energies=         -423.013153

                     E (Thermal)             CV                S
                      KCal/Mol        Cal/Mol-Kelvin    Cal/Mol-Kelvin
 Total                  105.383             30.749             84.500
 Electronic               0.000              0.000              0.000
 Translational            0.889              2.981             40.409
 Rotational               0.889              2.981             28.342
 Vibrational            103.606             24.787             15.749
 Vibration     1          0.610              1.928              3.016
 Vibration     2          0.652              1.796              1.882
 Vibration     3          0.660              1.770              1.760
 Vibration     4          0.668              1.745              1.659
 Vibration     5          0.677              1.719              1.561
 Vibration     6          0.750              1.512              1.037
 Vibration     7          0.821              1.330              0.755
 Vibration     8          0.887              1.180              0.584
 Vibration     9          0.905              1.140              0.544
 Vibration    10          0.944              1.060              0.473

 Normal termination of Gaussian 09 at Mon Jan 27 23:44:54 2020.
