 Gaussian 09, Revision D.01,
 Gaussian 09:  ES64L-G09RevD.01 24-Apr-2013

 -----------------------------
 # b3lyp 6-31G(2df,p) opt Freq
 -----------------------------

 -----
 titel
 -----
 Symbolic Z-matrix:
 Charge =  0 Multiplicity = 1

 SCF Done:  E(RB3LYP) =  -423.163131551     A.U. after   14 cycles
 Optimization completed.
    -- Stationary point found.
 Normal termination of Gaussian 09 at Tue Jan 28 12:07:53 2020.

 ----------------------------------------------------------------------
 #N Geom=AllCheck Guess=TCheck SCRF=Check GenChk RB3LYP/6-31G(2df,p) Fr
 eq
 ----------------------------------------------------------------------

 Structure from the checkpoint file:  "/scratch/puck/g09_e037142b-15bc-4e82-9955-3a8dfe6d3b6a/Gau-1506.chk"
 -----
 titel
 -----
 Charge =  0 Multiplicity = 1

                         Standard orientation:
 ---------------------------------------------------------------------
 Center     Atomic      Atomic             Coordinates (Angstroms)
 Number     Number       Type             X           Y           Z
 ---------------------------------------------------------------------
      1          8           0       -4.043745   -0.642886   -0.100262
      2          6           0       -2.913467    0.207855    0.007983
      3          6           0       -1.599297   -0.575494   -0.010875
      4          6           0       -0.363914    0.311981    0.003973
      5          8           0       -0.446480    1.520600    0.017559
      6          6           0        0.982631   -0.399059   -0.001860
      7          6           0        2.171210    0.575594   -0.002721
      8          6           0        3.453677   -0.116206   -0.001912
      9          6           0        4.498496   -0.710535   -0.001064
     10          1           0       -4.115783   -1.148766    0.715095
     11          1           0       -2.952825    0.879393   -0.853302
     12          1           0       -2.960531    0.841115    0.904273
     13          1           0       -1.542964   -1.261529    0.847107
     14          1           0       -1.564484   -1.220072   -0.899056
     15          1           0        1.031807   -1.065467    0.868742
     16          1           0        1.026615   -1.062718   -0.874604
     17          1           0        2.096923    1.234231   -0.875088
     18          1           0        2.096444    1.236105    0.868131
     19          1           0        5.430581   -1.218817   -0.000818
 ---------------------------------------------------------------------

 SCF Done:  E(RB3LYP) =  -423.163131551     A.U. after    1 cycles

 The electronic state is 1-A.
 Alpha  occ. eigenvalues --  -19.14034 -19.13886 -10.27973 -10.23148 -10.21202
 Alpha  occ. eigenvalues --  -10.20568 -10.19911 -10.18227 -10.17096  -1.05066
 Alpha  occ. eigenvalues --   -1.01964  -0.81380  -0.77810  -0.73393  -0.67877
 Alpha  occ. eigenvalues --   -0.63134  -0.53514  -0.52879  -0.51381  -0.49130
 Alpha  occ. eigenvalues --   -0.48164  -0.45659  -0.45022  -0.42398  -0.40406
 Alpha  occ. eigenvalues --   -0.40017  -0.38540  -0.37486  -0.35707  -0.32905
 Alpha  occ. eigenvalues --   -0.28051  -0.27159  -0.26453  -0.24693
 Alpha virt. eigenvalues --   -0.02061   0.05427   0.05838   0.06824   0.08266
 Alpha virt. eigenvalues --    0.11761   0.12897   0.13095   0.13775   0.15553
 Alpha virt. eigenvalues --    0.16255   0.18717   0.19154   0.20301   0.21010

 Mulliken charges:
               1
     1  O   -0.417270
     2  C   -0.060162
     3  C   -0.317015
     4  C    0.367216
     5  O   -0.298307
     6  C   -0.291691
     7  C   -0.357455
     8  C    0.284217
     9  C   -0.428428
    10  H    0.281564
    11  H    0.129787
    12  H    0.105056
    13  H    0.112217
    14  H    0.134176
    15  H    0.133882
    16  H    0.135875
    17  H    0.146332
    18  H    0.145915
    19  H    0.194093
 Sum of Mulliken charges =   0.00000

 Dipole moment (field-independent basis, Debye):
    X=              0.3473    Y=             -2.2753    Z=              1.1507  Tot=              2.5732
 Quadrupole moment (field-independent basis, Debye-Ang):
   XX=            -58.4073   YY=            -55.1565   ZZ=            -51.0842
   XY=              0.3465   XZ=             -5.3205   YZ=             -1.8393

  Exact polarizability: 107.849  -8.289  71.671  -0.733  -0.904  56.244
 Approx polarizability: 131.730 -18.474 118.847   0.016  -1.350  87.565

                      1                      2                      3
                      A                      A                      A
 Frequencies --     29.2041                49.1494                68.9168
 Red. masses --      1.8002                 3.0184                 3.1145
 Frc consts  --      0.0009                 0.0043                 0.0087
 IR Inten    --      3.1573                 1.7060                 2.2423

                      4                      5                      6
                      A                      A                      A
 Frequencies --     83.8794               106.4843               175.4057
 Red. masses --      5.1426                 2.7582                 4.5333
 Frc consts  --      0.0213                 0.0184                 0.0822
 IR Inten    --      0.4153                 2.5669                 1.3745

                      7                      8                      9
                      A                      A                      A
 Frequencies --    256.5053               296.9857               320.8753
 Red. masses --      5.4829                 1.1815                 5.0901
 Frc consts  --      0.2125                 0.0614                 0.3088
 IR Inten    --      4.7969               116.2603                 4.3915

                     10                     11                     12
                      A                      A                      A
 Frequencies --    343.6056               409.4069               474.2748
 Red. masses --      3.1989                 5.0122                 1.8614
 Frc consts  --      0.2225                 0.4950                 0.2467
 IR Inten    --      3.8465                 4.8184                 0.3608

                     13                     14                     15
                      A                      A                      A
 Frequencies --    513.4041               621.0629               642.3893
 Red. masses --      5.0320                 1.2051                 1.2277
 Frc consts  --      0.7815                 0.2739                 0.2985
 IR Inten    --      5.0032                44.5842                44.0563

                     16                     17                     18
                      A                      A                      A
 Frequencies --    685.0644               707.5604               794.7558
 Red. masses --      5.3868                 1.2164                 1.3311
 Frc consts  --      1.4895                 0.3588                 0.4954
 IR Inten    --     17.9341                 0.3655                 4.4352

                     19                     20                     21
                      A                      A                      A
 Frequencies --    880.1927               948.4937               953.1602
 Red. masses --      4.7373                 2.8354                 1.6702
 Frc consts  --      2.1624                 1.5029                 0.8940
 IR Inten    --      0.6224                30.2019                 1.2619

                     22                     23                     24
                      A                      A                      A
 Frequencies --   1001.3395              1052.3375              1073.4948
 Red. masses --      3.3532                 2.3936                 2.3294
 Frc consts  --      1.9809                 1.5618                 1.5816
 IR Inten    --     18.4217                41.0595                34.1616

                     25                     26                     27
                      A                      A                      A
 Frequencies --   1074.3736              1103.0441              1137.2758
 Red. masses --      3.2378                 2.2905                 1.2559
 Frc consts  --      2.2020                 1.6419                 0.9571
 IR Inten    --     79.2689                 8.3229                10.7423

                     28                     29                     30
                      A                      A                      A
 Frequencies --   1201.3266              1282.7100              1295.7457
 Red. masses --      1.2965                 1.3413                 1.1816
 Frc consts  --      1.1024                 1.3003                 1.1689
 IR Inten    --      5.9341                 4.2412                 9.5384

                     31                     32                     33
                      A                      A                      A
 Frequencies --   1313.0836              1332.0213              1383.5298
 Red. masses --      1.1976                 1.5121                 1.6658
 Frc consts  --      1.2166                 1.5807                 1.8787
 IR Inten    --     15.6270                16.6591                37.0645

                     34                     35                     36
                      A                      A                      A
 Frequencies --   1397.4519              1415.9058              1445.2938
 Red. masses --      1.3378                 1.3159                 1.0771
 Frc consts  --      1.5393                 1.5543                 1.3256
 IR Inten    --      3.9676                71.8188                 0.9293

                     37                     38                     39
                      A                      A                      A
 Frequencies --   1457.7418              1469.4936              1504.2488
 Red. masses --      1.0928                 1.0874                 1.0877
 Frc consts  --      1.3682                 1.3835                 1.4501
 IR Inten    --     11.5612                 8.8317                 1.4826

                     40                     41                     42
                      A                      A                      A
 Frequencies --   1797.8501              2240.2315              3011.5178
 Red. masses --     11.0592                 5.9356                 1.0640
 Frc consts  --     21.0611                17.5509                 5.6854
 IR Inten    --    120.9440                 4.7996                10.0480

                     43                     44                     45
                      A                      A                      A
 Frequencies --   3016.4212              3033.7760              3048.3349
 Red. masses --      1.0710                 1.0612                 1.0603
 Frc consts  --      5.7417                 5.7546                 5.8051
 IR Inten    --     34.2835                 9.9059                 9.9732

                     46                     47                     48
                      A                      A                      A
 Frequencies --   3051.3920              3062.2203              3083.7784
 Red. masses --      1.0911                 1.0979                 1.1018
 Frc consts  --      5.9856                 6.0658                 6.1731
 IR Inten    --      8.5423                 4.6459                12.3021

                     49                     50                     51
                      A                      A                      A
 Frequencies --   3104.8433              3507.6363              3818.7906
 Red. masses --      1.0959                 1.1621                 1.0663
 Frc consts  --      6.2243                 8.4240                 9.1617
 IR Inten    --     22.9819                70.4205                18.3099

 - Thermochemistry -
 -------------------
 Temperature   298.150 Kelvin.  Pressure   1.00000 Atm.
 Atom     1 has atomic number  8 and mass  15.99491

 Molecular mass:   126.06808 amu.
 Principal axes and moments of inertia in atomic units:
                           1         2         3
     Eigenvalues --   288.941003357.140413597.37687
           X            0.99999  -0.00015  -0.00324
           Y            0.00011   0.99993  -0.01179
           Z            0.00324   0.01179   0.99993
 This molecule is an asymmetric top.
 Rotational symmetry number  1.
 Rotational temperatures (Kelvin)      0.29976     0.02580     0.02408
 Rotational constants (GHZ):           6.24605     0.53758     0.50168
 Zero-point vibrational energy     407196.8 (Joules/Mol)
                                   97.32237 (Kcal/Mol)
 Warning -- explicit consideration of  13 degrees of freedom as
           vibrations may cause significant error
 Vibrational temperatures:     42.02    70.71    99.16   120.68   153.21
          (Kelvin)            252.37   369.05   427.30   461.67   494.37
                              589.04   682.37   738.67   893.57   924.25
                              985.65  1018.02  1143.47  1266.40  1364.67
                             1371.38  1440.70  1514.08  1544.52  1545.78
                             1587.03  1636.28  1728.44  1845.53  1864.29
                             1889.23  1916.48  1990.59  2010.62  2037.17
                             2079.45  2097.36  2114.27  2164.28  2586.70
                             3223.19  4332.90  4339.95  4364.92  4385.87
                             4390.27  4405.85  4436.86  4467.17  5046.70
                             5494.38

 Zero-point correction=                           0.155093 (Hartree/Particle)
 Thermal correction to Energy=                    0.165966
 Thermal correction to Enthalpy=                  0.166911
 Thermal correction to Gibbs Free Energy=         0.116993
 Sum of electronic and zero-point Energies=           -423.008038
 Sum of electronic and thermal Energies=              -422.997165
 Sum of electronic and thermal Enthalpies=            -422.996221
 Sum of electronic and thermal Free Energies=         -423.046139

                     E (Thermal)             CV                S
                      KCal/Mol        Cal/Mol-Kelvin    Cal/Mol-Kelvin
 Total                  104.145             37.262            105.061
 Electronic               0.000              0.000              0.000
 Translational            0.889              2.981             40.409
 Rotational               0.889              2.981             29.635
 Vibrational            102.368             31.300             35.017
 Vibration     1          0.593              1.984              5.883
 Vibration     2          0.595              1.978              4.851
 Vibration     3          0.598              1.969              4.184
 Vibration     4          0.601              1.960              3.798
 Vibration     5          0.605              1.944              3.332
 Vibration     6          0.627              1.873              2.377
 Vibration     7          0.666              1.752              1.685
 Vibration     8          0.691              1.679              1.434
 Vibration     9          0.706              1.634              1.306
 Vibration    10          0.722              1.588              1.195
 Vibration    11          0.774              1.450              0.929
 Vibration    12          0.831              1.307              0.726
 Vibration    13          0.868              1.220              0.625

 Normal termination of Gaussian 09 at Tue Jan 28 12:45:32 2020.
