 Gaussian 09, Revision D.01,
 Gaussian 09:  ES64L-G09RevD.01 24-Apr-2013

 -----------------------------
 # b3lyp 6-31G(2df,p) opt Freq
 -----------------------------

 -----
 titel
 -----
 Symbolic Z-matrix:
 Charge =  0 Multiplicity = 1

 SCF Done:  E(RB3LYP) =  -423.142450043     A.U. after   14 cycles
 Optimization completed.
    -- Stationary point found.
 Normal termination of Gaussian 09 at Mon Jan 27 22:06:37 2020.

 ----------------------------------------------------------------------
 #N Geom=AllCheck Guess=TCheck SCRF=Check GenChk RB3LYP/6-31G(2df,p) Fr
 eq
 ----------------------------------------------------------------------

 Structure from the checkpoint file:  "/scratch/puck/g09_1f2fa96a-1056-4c9f-8f4f-41cca352ea52/Gau-46857.chk"
 -----
 titel
 -----
 Charge =  0 Multiplicity = 1

                         Standard orientation:
 ---------------------------------------------------------------------
 Center     Atomic      Atomic             Coordinates (Angstroms)
 Number     Number       Type             X           Y           Z
 ---------------------------------------------------------------------
      1          6           0        1.118561    1.904449    0.281230
      2          6           0        0.339979    0.661149   -0.023820
      3          8           0       -0.703239    0.864326   -0.995836
      4          6           0       -1.476238   -0.313132   -0.695819
      5          6           0       -1.948990   -0.031021    0.747739
      6          6           0       -0.455423   -0.218375    1.050741
      7          6           0       -0.350538   -1.264306   -0.129179
      8          6           0        0.985737   -0.648088   -0.571671
      9          8           0        2.121296   -1.119409    0.122041
     10          1           0        1.990830    1.654946    0.892241
     11          1           0        1.471781    2.365158   -0.647013
     12          1           0        0.506904    2.636878    0.816827
     13          1           0       -2.137901   -0.568726   -1.521778
     14          1           0       -2.428661    0.933886    0.930272
     15          1           0       -2.541523   -0.848730    1.167476
     16          1           0       -0.042445   -0.344241    2.050823
     17          1           0       -0.542417   -2.332016   -0.034562
     18          1           0        1.243474   -0.633139   -1.633647
     19          1           0        1.856961   -1.367414    1.014399
 ---------------------------------------------------------------------

 SCF Done:  E(RB3LYP) =  -423.142450043     A.U. after    1 cycles

 The electronic state is 1-A.
 Alpha  occ. eigenvalues --  -19.14169 -19.13652 -10.23909 -10.23427 -10.22735
 Alpha  occ. eigenvalues --  -10.19808 -10.19450 -10.18584 -10.17582  -1.05598
 Alpha  occ. eigenvalues --   -1.02057  -0.84402  -0.77102  -0.71886  -0.65481
 Alpha  occ. eigenvalues --   -0.62037  -0.56150  -0.54890  -0.51285  -0.49734
 Alpha  occ. eigenvalues --   -0.47105  -0.44668  -0.42131  -0.40667  -0.39610
 Alpha  occ. eigenvalues --   -0.36894  -0.36302  -0.35861  -0.35427  -0.32879
 Alpha  occ. eigenvalues --   -0.30009  -0.28934  -0.27474  -0.22804
 Alpha virt. eigenvalues --    0.06498   0.09258   0.10410   0.11715   0.13033
 Alpha virt. eigenvalues --    0.14073   0.14701   0.15143   0.16809   0.17294
 Alpha virt. eigenvalues --    0.17794   0.18365   0.19404   0.20759   0.22259

 Mulliken charges:
               1
     1  C   -0.511710
     2  C    0.388483
     3  O   -0.302749
     4  C    0.080649
     5  C   -0.248232
     6  C   -0.140797
     7  C   -0.126039
     8  C    0.126543
     9  O   -0.450849
    10  H    0.125809
    11  H    0.132366
    12  H    0.122968
    13  H    0.081706
    14  H    0.102683
    15  H    0.100707
    16  H    0.071140
    17  H    0.075506
    18  H    0.088163
    19  H    0.283655
 Sum of Mulliken charges =   0.00000

 Dipole moment (field-independent basis, Debye):
    X=             -1.0457    Y=             -0.8411    Z=              1.6543  Tot=              2.1302
 Quadrupole moment (field-independent basis, Debye-Ang):
   XX=            -55.8855   YY=            -52.8074   ZZ=            -51.5951
   XY=              3.3192   XZ=              1.3308   YZ=              0.1763

  Exact polarizability:  80.811   2.846  73.302  -0.758   0.619  68.672
 Approx polarizability: 113.323   1.044 107.096   0.782  -1.743 108.782

                      1                      2                      3
                      A                      A                      A
 Frequencies --    187.2995               207.7738               214.8376
 Red. masses --      1.6423                 1.5766                 2.4897
 Frc consts  --      0.0339                 0.0401                 0.0677
 IR Inten    --      4.0111                 6.7037                 4.6972

                      4                      5                      6
                      A                      A                      A
 Frequencies --    256.8693               273.4307               354.6060
 Red. masses --      1.2395                 2.6677                 2.8712
 Frc consts  --      0.0482                 0.1175                 0.2127
 IR Inten    --     61.5758                 2.4289                 3.1909

                      7                      8                      9
                      A                      A                      A
 Frequencies --    462.9059               517.9502               529.5152
 Red. masses --      2.1968                 4.3978                 5.0636
 Frc consts  --      0.2774                 0.6951                 0.8365
 IR Inten    --      4.1070                 7.8891                 1.9906

                     10                     11                     12
                      A                      A                      A
 Frequencies --    638.3427               654.8700               738.5113
 Red. masses --      3.6473                 4.1863                 3.5387
 Frc consts  --      0.8756                 1.0578                 1.1371
 IR Inten    --      0.2826                 1.7476                11.8464

                     13                     14                     15
                      A                      A                      A
 Frequencies --    826.2708               832.9873               865.3835
 Red. masses --      1.8951                 2.1252                 2.8161
 Frc consts  --      0.7623                 0.8688                 1.2426
 IR Inten    --      3.0888                 1.2469                 1.7296

                     16                     17                     18
                      A                      A                      A
 Frequencies --    884.6559               891.1310               933.2095
 Red. masses --      2.5458                 2.2575                 2.0046
 Frc consts  --      1.1739                 1.0562                 1.0286
 IR Inten    --      3.3694                14.7645                 4.8497

                     19                     20                     21
                      A                      A                      A
 Frequencies --    955.2400               973.7481               997.2094
 Red. masses --      2.8776                 2.2115                 1.5944
 Frc consts  --      1.5471                 1.2355                 0.9342
 IR Inten    --     29.0918                27.4648                 6.4430

                     22                     23                     24
                      A                      A                      A
 Frequencies --   1034.6270              1067.7698              1086.1122
 Red. masses --      2.6366                 1.7643                 1.4634
 Frc consts  --      1.6629                 1.1851                 1.0171
 IR Inten    --      6.6761                46.4281                 4.9808

                     25                     26                     27
                      A                      A                      A
 Frequencies --   1107.5554              1135.9988              1154.3666
 Red. masses --      2.8966                 1.7935                 2.1322
 Frc consts  --      2.0935                 1.3636                 1.6740
 IR Inten    --     86.7607                 6.9587                 9.4043

                     28                     29                     30
                      A                      A                      A
 Frequencies --   1178.2992              1183.9741              1215.1627
 Red. masses --      1.6159                 1.5227                 1.5445
 Frc consts  --      1.3218                 1.2577                 1.3437
 IR Inten    --      7.6831                 2.1608                 1.6317

                     31                     32                     33
                      A                      A                      A
 Frequencies --   1240.9249              1253.4393              1268.3808
 Red. masses --      1.5298                 1.7556                 1.7011
 Frc consts  --      1.3880                 1.6251                 1.6124
 IR Inten    --     23.5201                 4.5427                 3.6681

                     34                     35                     36
                      A                      A                      A
 Frequencies --   1289.3142              1313.3760              1341.7157
 Red. masses --      1.7358                 1.5183                 2.5090
 Frc consts  --      1.7000                 1.5431                 2.6612
 IR Inten    --      1.7736                12.1358                11.1643

                     37                     38                     39
                      A                      A                      A
 Frequencies --   1414.5134              1418.3777              1480.6395
 Red. masses --      1.3826                 1.5600                 1.0581
 Frc consts  --      1.6299                 1.8491                 1.3666
 IR Inten    --     30.8281                58.8937                 2.6582

                     40                     41                     42
                      A                      A                      A
 Frequencies --   1480.8235              1489.4337              3038.8939
 Red. masses --      1.1139                 1.0513                 1.0349
 Frc consts  --      1.4391                 1.3741                 5.6311
 IR Inten    --      2.8215                 5.2656                18.2517

                     43                     44                     45
                      A                      A                      A
 Frequencies --   3056.6504              3085.6006              3108.8112
 Red. masses --      1.0557                 1.0866                 1.1014
 Frc consts  --      5.8115                 6.0955                 6.2715
 IR Inten    --     33.3089                35.6685                14.5228

                     46                     47                     48
                      A                      A                      A
 Frequencies --   3117.7793              3119.0418              3120.5439
 Red. masses --      1.1011                 1.1079                 1.0904
 Frc consts  --      6.3063                 6.3503                 6.2560
 IR Inten    --      1.7645                27.3131                31.8388

                     49                     50                     51
                      A                      A                      A
 Frequencies --   3129.7869              3139.0646              3810.3131
 Red. masses --      1.0903                 1.0934                 1.0655
 Frc consts  --      6.2928                 6.3476                 9.1142
 IR Inten    --     33.6172                41.9753                12.4701

 - Thermochemistry -
 -------------------
 Temperature   298.150 Kelvin.  Pressure   1.00000 Atm.
 Atom     1 has atomic number  6 and mass  12.00000

 Molecular mass:   126.06808 amu.
 Principal axes and moments of inertia in atomic units:
                           1         2         3
     Eigenvalues --   687.93009 979.765741230.14357
           X            0.99616   0.08739  -0.00508
           Y           -0.08723   0.99585   0.02609
           Z            0.00734  -0.02555   0.99965
 This molecule is an asymmetric top.
 Rotational symmetry number  1.
 Warning -- assumption of classical behavior for rotation
           may cause significant error
 Rotational temperatures (Kelvin)      0.12590     0.08840     0.07041
 Rotational constants (GHZ):           2.62344     1.84201     1.46710
 Zero-point vibrational energy     419159.7 (Joules/Mol)
                                  100.18158 (Kcal/Mol)
 Warning -- explicit consideration of   9 degrees of freedom as
           vibrations may cause significant error
 Vibrational temperatures:    269.48   298.94   309.10   369.58   393.41
          (Kelvin)            510.20   666.02   745.21   761.85   918.43
                              942.21  1062.55  1188.82  1198.48  1245.09
                             1272.82  1282.14  1342.68  1374.38  1401.00
                             1434.76  1488.60  1536.28  1562.67  1593.52
                             1634.45  1660.87  1695.31  1703.47  1748.35
                             1785.41  1803.42  1824.91  1855.03  1889.65
                             1930.43  2035.17  2040.73  2130.31  2130.57
                             2142.96  4372.29  4397.83  4439.49  4472.88
                             4485.78  4487.60  4489.76  4503.06  4516.41
                             5482.18

 Zero-point correction=                           0.159650 (Hartree/Particle)
 Thermal correction to Energy=                    0.167266
 Thermal correction to Enthalpy=                  0.168210
 Thermal correction to Gibbs Free Energy=         0.128142
 Sum of electronic and zero-point Energies=           -422.982801
 Sum of electronic and thermal Energies=              -422.975184
 Sum of electronic and thermal Enthalpies=            -422.974240
 Sum of electronic and thermal Free Energies=         -423.014308

                     E (Thermal)             CV                S
                      KCal/Mol        Cal/Mol-Kelvin    Cal/Mol-Kelvin
 Total                  104.961             31.033             84.330
 Electronic               0.000              0.000              0.000
 Translational            0.889              2.981             40.409
 Rotational               0.889              2.981             28.207
 Vibrational            103.183             25.071             15.714
 Vibration     1          0.632              1.857              2.254
 Vibration     2          0.641              1.829              2.063
 Vibration     3          0.645              1.818              2.002
 Vibration     4          0.666              1.751              1.683
 Vibration     5          0.676              1.722              1.574
 Vibration     6          0.730              1.566              1.146
 Vibration     7          0.821              1.332              0.758
 Vibration     8          0.873              1.210              0.615
 Vibration     9          0.884              1.185              0.588

 Normal termination of Gaussian 09 at Mon Jan 27 22:59:14 2020.
