 Gaussian 09, Revision D.01,
 Gaussian 09:  ES64L-G09RevD.01 24-Apr-2013

 -----------------------------
 # b3lyp 6-31G(2df,p) opt Freq
 -----------------------------

 -----
 titel
 -----
 Symbolic Z-matrix:
 Charge =  0 Multiplicity = 1

 SCF Done:  E(RB3LYP) =  -423.175315175     A.U. after   13 cycles
 Optimization completed.
    -- Stationary point found.
 Normal termination of Gaussian 09 at Tue Jan 28 00:31:23 2020.

 ----------------------------------------------------------------------
 #N Geom=AllCheck Guess=TCheck SCRF=Check GenChk RB3LYP/6-31G(2df,p) Fr
 eq
 ----------------------------------------------------------------------

 Structure from the checkpoint file:  "/scratch/puck/g09_a7dd4a85-cef2-4a50-9a6f-78a71408107f/Gau-106428.chk"
 -----
 titel
 -----
 Charge =  0 Multiplicity = 1

                         Standard orientation:
 ---------------------------------------------------------------------
 Center     Atomic      Atomic             Coordinates (Angstroms)
 Number     Number       Type             X           Y           Z
 ---------------------------------------------------------------------
      1          8           0        2.467349   -0.197199   -0.089124
      2          6           0        1.253493    0.301121    0.471908
      3          6           0        0.749888    1.390139   -0.434505
      4          6           0       -0.530929    1.752132   -0.468269
      5          6           0       -1.573481    1.079702    0.387093
      6          6           0       -1.273667   -0.401617    0.601737
      7          8           0       -1.482609   -1.165700   -0.607283
      8          6           0       -0.115043   -1.624702   -0.620409
      9          6           0        0.221991   -0.821225    0.651363
     10          1           0        2.850969   -0.818778    0.537989
     11          1           0        1.463133    0.742561    1.462755
     12          1           0        1.503096    1.884486   -1.040183
     13          1           0       -0.849475    2.565734   -1.113534
     14          1           0       -1.643185    1.577502    1.366107
     15          1           0       -2.566344    1.161271   -0.069038
     16          1           0       -1.884375   -0.798984    1.422780
     17          1           0       -0.048854   -2.715073   -0.520813
     18          1           0        0.419512   -1.309349   -1.522647
     19          1           0        0.484096   -1.439481    1.514322
 ---------------------------------------------------------------------

 SCF Done:  E(RB3LYP) =  -423.175315175     A.U. after    1 cycles

 The electronic state is 1-A.
 Alpha  occ. eigenvalues --  -19.14038 -19.12456 -10.23857 -10.23389 -10.22163
 Alpha  occ. eigenvalues --  -10.19115 -10.18608 -10.18287 -10.17736  -1.03285
 Alpha  occ. eigenvalues --   -1.02056  -0.81778  -0.75335  -0.72770  -0.67028
 Alpha  occ. eigenvalues --   -0.61895  -0.57420  -0.51528  -0.51416  -0.48644
 Alpha  occ. eigenvalues --   -0.47584  -0.45367  -0.43809  -0.41299  -0.40567
 Alpha  occ. eigenvalues --   -0.38893  -0.37742  -0.36039  -0.32328  -0.30894
 Alpha  occ. eigenvalues --   -0.30272  -0.27485  -0.24549  -0.24110
 Alpha virt. eigenvalues --    0.01554   0.07055   0.08939   0.09457   0.12538
 Alpha virt. eigenvalues --    0.13223   0.14929   0.15413   0.15861   0.17071
 Alpha virt. eigenvalues --    0.18335   0.19174   0.20022   0.21539   0.22252

 Mulliken charges:
               1
     1  O   -0.434328
     2  C    0.054418
     3  C   -0.053413
     4  C   -0.062227
     5  C   -0.282707
     6  C    0.129134
     7  O   -0.292416
     8  C   -0.071105
     9  C   -0.109999
    10  H    0.282215
    11  H    0.078176
    12  H    0.099980
    13  H    0.092765
    14  H    0.107274
    15  H    0.118340
    16  H    0.068990
    17  H    0.092740
    18  H    0.115864
    19  H    0.066300
 Sum of Mulliken charges =   0.00000

 Dipole moment (field-independent basis, Debye):
    X=              0.7217    Y=              0.0287    Z=              2.2677  Tot=              2.3800
 Quadrupole moment (field-independent basis, Debye-Ang):
   XX=            -54.7515   YY=            -51.2798   ZZ=            -52.1160
   XY=             -5.2218   XZ=              0.9920   YZ=             -2.5751

  Exact polarizability:  85.234  -7.002  76.164  -2.474  -3.513  64.908
 Approx polarizability: 129.420 -11.843 103.457  -2.532  -3.723 100.389

                      1                      2                      3
                      A                      A                      A
 Frequencies --    102.4809               123.2306               228.6988
 Red. masses --      3.3516                 3.1823                 3.3361
 Frc consts  --      0.0207                 0.0285                 0.1028
 IR Inten    --      0.7544                 2.5328                 1.3041

                      4                      5                      6
                      A                      A                      A
 Frequencies --    294.2513               310.2180               343.8241
 Red. masses --      1.1008                 3.7897                 2.3468
 Frc consts  --      0.0562                 0.2149                 0.1635
 IR Inten    --     96.3042                 8.0916                14.2334

                      7                      8                      9
                      A                      A                      A
 Frequencies --    423.0511               452.9616               541.0480
 Red. masses --      3.2933                 4.9158                 4.6552
 Frc consts  --      0.3473                 0.5943                 0.8029
 IR Inten    --      1.4055                 2.4023                 0.5711

                     10                     11                     12
                      A                      A                      A
 Frequencies --    599.6097               710.3948               747.2038
 Red. masses --      2.0199                 2.0696                 3.9657
 Frc consts  --      0.4279                 0.6154                 1.3045
 IR Inten    --      8.4586                 8.7927                 3.6264

                     13                     14                     15
                      A                      A                      A
 Frequencies --    823.0724               850.1357               881.3297
 Red. masses --      2.4942                 2.3436                 2.9838
 Frc consts  --      0.9955                 0.9980                 1.3655
 IR Inten    --      1.3239                 2.7030                36.5744

                     16                     17                     18
                      A                      A                      A
 Frequencies --    914.7479               933.6085               977.3268
 Red. masses --      2.7218                 2.3397                 2.4846
 Frc consts  --      1.3419                 1.2015                 1.3982
 IR Inten    --      1.7759                 9.0418                 6.2867

                     19                     20                     21
                      A                      A                      A
 Frequencies --    994.7847              1013.3054              1041.2869
 Red. masses --      1.2877                 3.0736                 4.3122
 Frc consts  --      0.7508                 1.8594                 2.7548
 IR Inten    --      2.6615                28.4015                36.8769

                     22                     23                     24
                      A                      A                      A
 Frequencies --   1072.3668              1083.9579              1090.6886
 Red. masses --      1.8718                 2.0016                 3.9094
 Frc consts  --      1.2682                 1.3856                 2.7401
 IR Inten    --      0.1708                14.3513               100.7080

                     25                     26                     27
                      A                      A                      A
 Frequencies --   1123.1618              1160.9452              1177.2268
 Red. masses --      2.0969                 1.1273                 1.1316
 Frc consts  --      1.5585                 0.8952                 0.9240
 IR Inten    --      3.0404                 2.1968                 5.1710

                     28                     29                     30
                      A                      A                      A
 Frequencies --   1215.0189              1236.2842              1242.1594
 Red. masses --      1.1126                 1.2218                 1.3143
 Frc consts  --      0.9677                 1.1003                 1.1948
 IR Inten    --      7.5115                58.8863                11.7609

                     31                     32                     33
                      A                      A                      A
 Frequencies --   1286.9199              1314.7357              1346.4103
 Red. masses --      1.4195                 1.5021                 1.5801
 Frc consts  --      1.3851                 1.5297                 1.6876
 IR Inten    --     11.3290                14.0079                 2.2400

                     34                     35                     36
                      A                      A                      A
 Frequencies --   1348.8704              1362.6815              1376.8199
 Red. masses --      1.4636                 1.3538                 1.3909
 Frc consts  --      1.5689                 1.4811                 1.5535
 IR Inten    --     12.3009                 2.9267                 1.1414

                     37                     38                     39
                      A                      A                      A
 Frequencies --   1406.8482              1444.9190              1460.9669
 Red. masses --      1.4805                 1.6956                 1.0932
 Frc consts  --      1.7264                 2.0857                 1.3748
 IR Inten    --      2.5319                 6.0780                 3.9158

                     40                     41                     42
                      A                      A                      A
 Frequencies --   1523.7451              1719.1450              2929.1617
 Red. masses --      1.1032                 7.0919                 1.0812
 Frc consts  --      1.5092                12.3492                 5.4658
 IR Inten    --      0.4994                 2.8827                52.9575

                     43                     44                     45
                      A                      A                      A
 Frequencies --   2995.0541              3014.3636              3020.4207
 Red. masses --      1.0706                 1.0773                 1.0672
 Frc consts  --      5.6583                 5.7676                 5.7361
 IR Inten    --      8.7721               109.7259                41.6740

                     46                     47                     48
                      A                      A                      A
 Frequencies --   3062.7319              3066.0936              3077.2592
 Red. masses --      1.0896                 1.0909                 1.1030
 Frc consts  --      6.0220                 6.0426                 6.1538
 IR Inten    --     25.3276                11.5085                57.2299

                     49                     50                     51
                      A                      A                      A
 Frequencies --   3162.5647              3187.6934              3814.7404
 Red. masses --      1.0849                 1.0971                 1.0662
 Frc consts  --      6.3932                 6.5685                 9.1415
 IR Inten    --      7.7375                16.7339                17.3471

 - Thermochemistry -
 -------------------
 Temperature   298.150 Kelvin.  Pressure   1.00000 Atm.
 Atom     1 has atomic number  8 and mass  15.99491

 Molecular mass:   126.06808 amu.
 Principal axes and moments of inertia in atomic units:
                           1         2         3
     Eigenvalues --   746.157671005.715291444.70056
           X            0.99682  -0.07935  -0.00754
           Y            0.07922   0.99673  -0.01564
           Z            0.00876   0.01499   0.99985
 This molecule is an asymmetric top.
 Rotational symmetry number  1.
 Warning -- assumption of classical behavior for rotation
           may cause significant error
 Rotational temperatures (Kelvin)      0.11608     0.08612     0.05995
 Rotational constants (GHZ):           2.41871     1.79449     1.24921
 Zero-point vibrational energy     422464.4 (Joules/Mol)
                                  100.97140 (Kcal/Mol)
 Warning -- explicit consideration of  10 degrees of freedom as
           vibrations may cause significant error
 Vibrational temperatures:    147.45   177.30   329.05   423.36   446.33
          (Kelvin)            494.69   608.68   651.71   778.45   862.70
                             1022.10  1075.06  1184.22  1223.15  1268.04
                             1316.12  1343.25  1406.15  1431.27  1457.92
                             1498.18  1542.89  1559.57  1569.26  1615.98
                             1670.34  1693.76  1748.14  1778.73  1787.19
                             1851.59  1891.61  1937.18  1940.72  1960.59
                             1980.93  2024.14  2078.91  2102.00  2192.33
                             2473.46  4214.41  4309.21  4336.99  4345.71
                             4406.58  4411.42  4427.48  4550.22  4586.37
                             5488.55

 Zero-point correction=                           0.160908 (Hartree/Particle)
 Thermal correction to Energy=                    0.168697
 Thermal correction to Enthalpy=                  0.169641
 Thermal correction to Gibbs Free Energy=         0.128658
 Sum of electronic and zero-point Energies=           -423.014407
 Sum of electronic and thermal Energies=              -423.006619
 Sum of electronic and thermal Enthalpies=            -423.005674
 Sum of electronic and thermal Free Energies=         -423.046657

                     E (Thermal)             CV                S
                      KCal/Mol        Cal/Mol-Kelvin    Cal/Mol-Kelvin
 Total                  105.859             30.533             86.255
 Electronic               0.000              0.000              0.000
 Translational            0.889              2.981             40.409
 Rotational               0.889              2.981             28.474
 Vibrational            104.081             24.571             17.373
 Vibration     1          0.605              1.947              3.407
 Vibration     2          0.610              1.930              3.049
 Vibration     3          0.651              1.797              1.889
 Vibration     4          0.689              1.684              1.449
 Vibration     5          0.699              1.654              1.361
 Vibration     6          0.723              1.588              1.194
 Vibration     7          0.785              1.420              0.882
 Vibration     8          0.812              1.354              0.787
 Vibration     9          0.896              1.159              0.563
 Vibration    10          0.958              1.033              0.450

 Optimization completed.
    -- Stationary point found.
 Normal termination of Gaussian 09 at Tue Jan 28 01:17:48 2020.
