 Gaussian 09, Revision D.01,
 Gaussian 09:  ES64L-G09RevD.01 24-Apr-2013

 -----------------------------
 # b3lyp 6-31G(2df,p) opt Freq
 -----------------------------

 -----
 titel
 -----
 Symbolic Z-matrix:
 Charge =  0 Multiplicity = 1

 SCF Done:  E(RB3LYP) =  -423.156153238     A.U. after   15 cycles
 Optimization completed.
    -- Stationary point found.
 Normal termination of Gaussian 09 at Mon Jan 27 14:17:28 2020.

 ----------------------------------------------------------------------
 #N Geom=AllCheck Guess=TCheck SCRF=Check GenChk RB3LYP/6-31G(2df,p) Fr
 eq
 ----------------------------------------------------------------------

 Structure from the checkpoint file:  "/scratch/puck/g09_724f123a-c860-4c1a-8c58-ec614ef11742/Gau-157974.chk"
 -----
 titel
 -----
 Charge =  0 Multiplicity = 1

                         Standard orientation:
 ---------------------------------------------------------------------
 Center     Atomic      Atomic             Coordinates (Angstroms)
 Number     Number       Type             X           Y           Z
 ---------------------------------------------------------------------
      1          6           0        0.703054   -2.000669   -0.450564
      2          6           0        0.782276   -0.546232    0.024165
      3          6           0        2.076071    0.114973   -0.470555
      4          8           0        0.705410   -0.482062    1.451455
      5          6           0       -0.460448    0.275903   -0.460489
      6          6           0       -0.476887    1.641355    0.251249
      7          8           0        0.027850    2.630120   -0.209471
      8          6           0       -1.734508   -0.391940   -0.227185
      9          6           0       -2.812973   -0.880744   -0.019624
     10          1           0        1.585170   -2.551844   -0.104355
     11          1           0       -0.190650   -2.485569   -0.054100
     12          1           0        0.681300   -2.063064   -1.543226
     13          1           0        2.939768   -0.416296   -0.054815
     14          1           0        2.152653    0.067436   -1.561326
     15          1           0        2.132738    1.161564   -0.166723
     16          1           0        1.458979   -0.961299    1.811681
     17          1           0       -0.329447    0.475326   -1.529571
     18          1           0       -0.995279    1.640253    1.229333
     19          1           0       -3.760821   -1.326843    0.155246
 ---------------------------------------------------------------------

 SCF Done:  E(RB3LYP) =  -423.156153238     A.U. after    1 cycles

 The electronic state is 1-A.
 Alpha  occ. eigenvalues --  -19.14635 -19.14357 -10.27450 -10.26009 -10.22055
 Alpha  occ. eigenvalues --  -10.18906 -10.18218 -10.18186 -10.18061  -1.05188
 Alpha  occ. eigenvalues --   -1.03095  -0.82437  -0.76342  -0.71661  -0.69843
 Alpha  occ. eigenvalues --   -0.60309  -0.58651  -0.54022  -0.49681  -0.49128
 Alpha  occ. eigenvalues --   -0.47557  -0.44458  -0.42530  -0.42392  -0.41332
 Alpha  occ. eigenvalues --   -0.39546  -0.38791  -0.36739  -0.36038  -0.33862
 Alpha  occ. eigenvalues --   -0.28820  -0.27959  -0.27205  -0.24696
 Alpha virt. eigenvalues --   -0.02762   0.04271   0.05527   0.06316   0.11879
 Alpha virt. eigenvalues --    0.11947   0.12414   0.14064   0.15080   0.15574
 Alpha virt. eigenvalues --    0.17055   0.18361   0.18964   0.20683   0.21642

 Mulliken charges:
               1
     1  C   -0.425790
     2  C    0.331617
     3  C   -0.424310
     4  O   -0.461354
     5  C   -0.267681
     6  C    0.173891
     7  O   -0.260357
     8  C    0.315557
     9  C   -0.437282
    10  H    0.105247
    11  H    0.142011
    12  H    0.119931
    13  H    0.103971
    14  H    0.120200
    15  H    0.148394
    16  H    0.281943
    17  H    0.122489
    18  H    0.111530
    19  H    0.199992
 Sum of Mulliken charges =   0.00000

 Dipole moment (field-independent basis, Debye):
    X=              0.7658    Y=             -2.8204    Z=              0.0279  Tot=              2.9227
 Quadrupole moment (field-independent basis, Debye-Ang):
   XX=            -46.4229   YY=            -59.5813   ZZ=            -52.8170
   XY=             -1.6258   XZ=              0.8540   YZ=              0.1277

  Exact polarizability:  92.505   8.044  78.762  -4.399  -1.114  63.028
 Approx polarizability: 134.656  19.639 114.713  -9.556  -6.860  98.200

                      1                      2                      3
                      A                      A                      A
 Frequencies --     49.5513                85.0755               145.6080
 Red. masses --      4.1076                 4.9503                 3.6508
 Frc consts  --      0.0059                 0.0211                 0.0456
 IR Inten    --      1.8660                 5.6538                 2.5262

                      4                      5                      6
                      A                      A                      A
 Frequencies --    169.0477               218.5509               243.2253
 Red. masses --      3.7667                 1.0728                 1.6261
 Frc consts  --      0.0634                 0.0302                 0.0567
 IR Inten    --      1.7352                 0.3337                 4.4106

                      7                      8                      9
                      A                      A                      A
 Frequencies --    252.8997               267.1678               308.0704
 Red. masses --      1.0932                 1.3846                 3.6114
 Frc consts  --      0.0412                 0.0582                 0.2019
 IR Inten    --     83.0910                 4.6000                 4.0870

                     10                     11                     12
                      A                      A                      A
 Frequencies --    337.3975               391.0067               396.5957
 Red. masses --      2.8838                 2.6974                 3.8771
 Frc consts  --      0.1934                 0.2430                 0.3593
 IR Inten    --      1.4701                 2.2485                 2.1001

                     13                     14                     15
                      A                      A                      A
 Frequencies --    462.9620               503.0856               520.8287
 Red. masses --      3.6078                 4.2062                 5.4145
 Frc consts  --      0.4556                 0.6272                 0.8654
 IR Inten    --     16.7039                 5.4342                14.0957

                     16                     17                     18
                      A                      A                      A
 Frequencies --    579.5476               633.2567               646.1511
 Red. masses --      3.3710                 1.2285                 1.2336
 Frc consts  --      0.6671                 0.2903                 0.3034
 IR Inten    --      7.9530                44.2685                43.7118

                     19                     20                     21
                      A                      A                      A
 Frequencies --    777.9387               879.4141               929.6160
 Red. masses --      4.1430                 2.4153                 1.5042
 Frc consts  --      1.4773                 1.1006                 0.7659
 IR Inten    --      7.2459                14.5810                 0.4170

                     22                     23                     24
                      A                      A                      A
 Frequencies --    953.5358               980.9109              1000.2741
 Red. masses --      2.5587                 2.0394                 1.6104
 Frc consts  --      1.3707                 1.1562                 0.9494
 IR Inten    --     20.3600                 1.8671                12.0031

                     25                     26                     27
                      A                      A                      A
 Frequencies --   1041.8121              1064.1833              1144.6691
 Red. masses --      2.5100                 2.3625                 1.6290
 Frc consts  --      1.6051                 1.5763                 1.2576
 IR Inten    --     19.1477                16.4954                69.5827

                     28                     29                     30
                      A                      A                      A
 Frequencies --   1178.7673              1215.9429              1255.9621
 Red. masses --      1.7453                 2.4915                 1.8464
 Frc consts  --      1.4288                 2.1704                 1.7161
 IR Inten    --     12.5377                20.3512                13.1434

                     31                     32                     33
                      A                      A                      A
 Frequencies --   1313.3860              1356.3270              1401.7621
 Red. masses --      1.4922                 1.6247                 1.2584
 Frc consts  --      1.5165                 1.7610                 1.4569
 IR Inten    --      2.9654                79.5991                 9.4033

                     34                     35                     36
                      A                      A                      A
 Frequencies --   1415.3332              1420.9712              1479.0333
 Red. masses --      1.1815                 1.2279                 1.0468
 Frc consts  --      1.3945                 1.4608                 1.3492
 IR Inten    --      2.1019                 9.7826                 0.6733

                     37                     38                     39
                      A                      A                      A
 Frequencies --   1481.3810              1498.3082              1506.5632
 Red. masses --      1.0493                 1.0571                 1.0703
 Frc consts  --      1.3566                 1.3981                 1.4313
 IR Inten    --      1.6612                 0.7598                 9.3183

                     40                     41                     42
                      A                      A                      A
 Frequencies --   1828.3545              2233.9982              2950.1525
 Red. masses --     10.2002                 5.9374                 1.0867
 Frc consts  --     20.0900                17.4587                 5.5725
 IR Inten    --    180.8692                 0.5242                57.2930

                     43                     44                     45
                      A                      A                      A
 Frequencies --   3031.0633              3037.6929              3057.8798
 Red. masses --      1.0390                 1.0394                 1.0827
 Frc consts  --      5.6241                 5.6512                 5.9646
 IR Inten    --      6.8146                28.6625                 7.0093

                     46                     47                     48
                      A                      A                      A
 Frequencies --   3094.6107              3103.2303              3140.0170
 Red. masses --      1.0996                 1.0987                 1.0997
 Frc consts  --      6.2042                 6.2337                 6.3886
 IR Inten    --      0.9612                43.2862                11.0007

                     49                     50                     51
                      A                      A                      A
 Frequencies --   3142.0084              3502.1172              3813.4353
 Red. masses --      1.0997                 1.1620                 1.0660
 Frc consts  --      6.3963                 8.3966                 9.1338
 IR Inten    --      8.9474                70.3917                18.8601

 - Thermochemistry -
 -------------------
 Temperature   298.150 Kelvin.  Pressure   1.00000 Atm.
 Atom     1 has atomic number  6 and mass  12.00000

 Molecular mass:   126.06808 amu.
 Principal axes and moments of inertia in atomic units:
                           1         2         3
     Eigenvalues --  1034.205511083.186331721.73757
           X            0.98893  -0.14702  -0.01988
           Y            0.14733   0.98897   0.01538
           Z            0.01740  -0.01814   0.99968
 This molecule is an asymmetric top.
 Rotational symmetry number  1.
 Warning -- assumption of classical behavior for rotation
           may cause significant error
 Rotational temperatures (Kelvin)      0.08375     0.07996     0.05031
 Rotational constants (GHZ):           1.74505     1.66614     1.04821
 Zero-point vibrational energy     403384.8 (Joules/Mol)
                                   96.41129 (Kcal/Mol)
 Warning -- explicit consideration of  16 degrees of freedom as
           vibrations may cause significant error
 Vibrational temperatures:     71.29   122.40   209.50   243.22   314.45
          (Kelvin)            349.95   363.87   384.39   443.24   485.44
                              562.57   570.61   666.10   723.83   749.36
                              833.84   911.11   929.67  1119.28  1265.28
                             1337.51  1371.92  1411.31  1439.17  1498.93
                             1531.12  1646.92  1695.98  1749.47  1807.05
                             1889.67  1951.45  2016.82  2036.35  2044.46
                             2128.00  2131.37  2155.73  2167.61  2630.59
                             3214.22  4244.61  4361.02  4370.56  4399.60
                             4452.45  4464.85  4517.78  4520.64  5038.76
                             5486.68

 Zero-point correction=                           0.153641 (Hartree/Particle)
 Thermal correction to Energy=                    0.164362
 Thermal correction to Enthalpy=                  0.165307
 Thermal correction to Gibbs Free Energy=         0.118063
 Sum of electronic and zero-point Energies=           -423.002512
 Sum of electronic and thermal Energies=              -422.991791
 Sum of electronic and thermal Enthalpies=            -422.990847
 Sum of electronic and thermal Free Energies=         -423.038091

                     E (Thermal)             CV                S
                      KCal/Mol        Cal/Mol-Kelvin    Cal/Mol-Kelvin
 Total                  103.139             39.008             99.433
 Electronic               0.000              0.000              0.000
 Translational            0.889              2.981             40.409
 Rotational               0.889              2.981             29.046
 Vibrational            101.361             33.047             29.978
 Vibration     1          0.595              1.978              4.835
 Vibration     2          0.601              1.960              3.770
 Vibration     3          0.617              1.907              2.729
 Vibration     4          0.625              1.881              2.446
 Vibration     5          0.646              1.813              1.971
 Vibration     6          0.659              1.774              1.779
 Vibration     7          0.664              1.758              1.710
 Vibration     8          0.672              1.733              1.614
 Vibration     9          0.698              1.658              1.373
 Vibration    10          0.718              1.601              1.224
 Vibration    11          0.759              1.489              0.996
 Vibration    12          0.763              1.477              0.975
 Vibration    13          0.821              1.332              0.758
 Vibration    14          0.858              1.243              0.650
 Vibration    15          0.876              1.204              0.608
 Vibration    16          0.936              1.076              0.486

 Normal termination of Gaussian 09 at Mon Jan 27 15:02:07 2020.
