 Gaussian 09, Revision D.01,
 Gaussian 09:  ES64L-G09RevD.01 24-Apr-2013

 -----------------------------
 # b3lyp 6-31G(2df,p) opt Freq
 -----------------------------

 -----
 titel
 -----
 Symbolic Z-matrix:
 Charge =  0 Multiplicity = 1

 SCF Done:  E(RB3LYP) =  -423.150178874     A.U. after   14 cycles
 SCF Done:  E(RB3LYP) =  -423.150178849     A.U. after    6 cycles
 Optimization completed.
    -- Stationary point found.
 Normal termination of Gaussian 09 at Tue Jan 28 08:17:57 2020.

 ----------------------------------------------------------------------
 #N Geom=AllCheck Guess=TCheck SCRF=Check GenChk RB3LYP/6-31G(2df,p) Fr
 eq
 ----------------------------------------------------------------------

 Structure from the checkpoint file:  "/scratch/puck/g09_5dcbe859-52e9-4459-8286-a69e8eccc2a2/Gau-14357.chk"
 -----
 titel
 -----
 Charge =  0 Multiplicity = 1

                         Standard orientation:
 ---------------------------------------------------------------------
 Center     Atomic      Atomic             Coordinates (Angstroms)
 Number     Number       Type             X           Y           Z
 ---------------------------------------------------------------------
      1          6           0       -0.397054    2.219054   -0.075222
      2          6           0       -0.528611    0.767180   -0.519724
      3          6           0       -1.889605    0.113026   -0.252781
      4          8           0       -1.669613   -1.297343   -0.270803
      5          6           0       -0.282608   -1.572525   -0.153987
      6          6           0        0.408001   -0.235208    0.201579
      7          8           0        0.295486    0.037502    1.599287
      8          6           0        1.802104   -0.178201   -0.233238
      9          6           0        2.957692   -0.147994   -0.564320
     10          1           0        0.607321    2.598826   -0.284898
     11          1           0       -1.113214    2.851230   -0.609859
     12          1           0       -0.580593    2.315644    0.996879
     13          1           0       -0.306717    0.685144   -1.589900
     14          1           0       -2.280946    0.420378    0.726938
     15          1           0       -2.632933    0.360903   -1.017949
     16          1           0       -0.115628   -2.316573    0.634360
     17          1           0        0.110440   -1.973213   -1.098748
     18          1           0        0.908818   -0.542106    2.063005
     19          1           0        3.976955   -0.113492   -0.861552
 ---------------------------------------------------------------------

 SCF Done:  E(RB3LYP) =  -423.150178849     A.U. after    1 cycles

 The electronic state is 1-A.
 Alpha  occ. eigenvalues --  -19.14878 -19.13322 -10.26410 -10.22913 -10.22242
 Alpha  occ. eigenvalues --  -10.19575 -10.18956 -10.18557 -10.17484  -1.04476
 Alpha  occ. eigenvalues --   -1.01909  -0.80858  -0.76650  -0.72763  -0.68223
 Alpha  occ. eigenvalues --   -0.61554  -0.58455  -0.56183  -0.51689  -0.49102
 Alpha  occ. eigenvalues --   -0.46251  -0.45705  -0.44200  -0.40603  -0.39538
 Alpha  occ. eigenvalues --   -0.38284  -0.37284  -0.34457  -0.34261  -0.32068
 Alpha  occ. eigenvalues --   -0.29548  -0.27929  -0.26510  -0.24492
 Alpha virt. eigenvalues --    0.03033   0.04261   0.07383   0.11102   0.11603
 Alpha virt. eigenvalues --    0.12234   0.13868   0.14455   0.15903   0.16074
 Alpha virt. eigenvalues --    0.17223   0.18432   0.19427   0.20445   0.23269

 Mulliken charges:
               1
     1  C   -0.420821
     2  C   -0.008140
     3  C   -0.091755
     4  O   -0.268607
     5  C   -0.096592
     6  C    0.160841
     7  O   -0.464036
     8  C    0.261669
     9  C   -0.431687
    10  H    0.126065
    11  H    0.113236
    12  H    0.139697
    13  H    0.091246
    14  H    0.104322
    15  H    0.101515
    16  H    0.098497
    17  H    0.100216
    18  H    0.286418
    19  H    0.197916
 Sum of Mulliken charges =   0.00000

 Dipole moment (field-independent basis, Debye):
    X=              1.6435    Y=              0.2764    Z=             -0.2349  Tot=              1.6830
 Quadrupole moment (field-independent basis, Debye-Ang):
   XX=            -50.1374   YY=            -54.0029   ZZ=            -52.0324
   XY=             -4.5983   XZ=              0.4910   YZ=             -2.8393

  Exact polarizability:  95.428  -4.033  71.403  -4.600  -1.024  64.138
 Approx polarizability: 141.022  -3.636  96.352 -11.445  -0.710  99.398

                      1                      2                      3
                      A                      A                      A
 Frequencies --     74.0606               117.9974               135.8654
 Red. masses --      3.5892                 3.1505                 2.5408
 Frc consts  --      0.0116                 0.0258                 0.0276
 IR Inten    --      3.8281                 0.6239                 0.7142

                      4                      5                      6
                      A                      A                      A
 Frequencies --    188.9715               207.2407               256.6378
 Red. masses --      3.0425                 1.1002                 2.1996
 Frc consts  --      0.0640                 0.0278                 0.0854
 IR Inten    --      2.1604                 0.0581                29.6032

                      7                      8                      9
                      A                      A                      A
 Frequencies --    270.2335               322.7408               378.6314
 Red. masses --      1.4922                 2.6358                 3.1257
 Frc consts  --      0.0642                 0.1618                 0.2640
 IR Inten    --     52.7024                21.1292                 0.9775

                     10                     11                     12
                      A                      A                      A
 Frequencies --    467.0474               503.0796               555.3931
 Red. masses --      4.2901                 4.7656                 4.0798
 Frc consts  --      0.5514                 0.7106                 0.7415
 IR Inten    --      7.1406                 0.7857                14.2038

                     13                     14                     15
                      A                      A                      A
 Frequencies --    581.0843               633.1005               658.8145
 Red. masses --      5.2446                 1.2408                 3.8909
 Frc consts  --      1.0434                 0.2930                 0.9950
 IR Inten    --      1.1333                38.3264                 7.3484

                     16                     17                     18
                      A                      A                      A
 Frequencies --    666.4524               761.9518               899.1175
 Red. masses --      1.2537                 3.8976                 2.4121
 Frc consts  --      0.3281                 1.3332                 1.1489
 IR Inten    --     34.5564                12.6654                27.2196

                     19                     20                     21
                      A                      A                      A
 Frequencies --    918.7787               951.5784               964.0938
 Red. masses --      1.6923                 3.7802                 1.5229
 Frc consts  --      0.8417                 2.0167                 0.8340
 IR Inten    --     10.8773                27.2670                10.8629

                     22                     23                     24
                      A                      A                      A
 Frequencies --   1018.3608              1049.0241              1089.5524
 Red. masses --      1.7338                 2.7481                 5.8305
 Frc consts  --      1.0594                 1.7817                 4.0780
 IR Inten    --     29.5092                18.9087                71.4600

                     25                     26                     27
                      A                      A                      A
 Frequencies --   1104.8718              1153.0816              1171.3816
 Red. masses --      3.1636                 2.6067                 2.2677
 Frc consts  --      2.2754                 2.0420                 1.8333
 IR Inten    --     34.9607                11.5941                31.8551

                     28                     29                     30
                      A                      A                      A
 Frequencies --   1180.0196              1206.3907              1258.8006
 Red. masses --      2.1665                 1.2658                 1.2864
 Frc consts  --      1.7774                 1.0854                 1.2010
 IR Inten    --      9.3552                12.0536                21.1614

                     31                     32                     33
                      A                      A                      A
 Frequencies --   1321.5477              1337.1637              1361.1461
 Red. masses --      1.3237                 1.3263                 1.3843
 Frc consts  --      1.3621                 1.3972                 1.5111
 IR Inten    --      8.4249                15.6751                18.4712

                     34                     35                     36
                      A                      A                      A
 Frequencies --   1377.3806              1409.5188              1419.9153
 Red. masses --      1.3974                 1.3265                 1.4235
 Frc consts  --      1.5620                 1.5527                 1.6909
 IR Inten    --      6.3397                 1.6381                10.0190

                     37                     38                     39
                      A                      A                      A
 Frequencies --   1493.3851              1502.1845              1508.0012
 Red. masses --      1.0458                 1.0527                 1.0834
 Frc consts  --      1.3742                 1.3996                 1.4516
 IR Inten    --      5.1982                 3.3051                 1.3938

                     40                     41                     42
                      A                      A                      A
 Frequencies --   1523.5644              2231.4129              3001.3993
 Red. masses --      1.0901                 5.9309                 1.0599
 Frc consts  --      1.4909                17.3994                 5.6255
 IR Inten    --      0.9821                 0.5680                89.8825

                     43                     44                     45
                      A                      A                      A
 Frequencies --   3009.4641              3042.5201              3044.8454
 Red. masses --      1.0655                 1.0693                 1.0508
 Frc consts  --      5.6858                 5.8322                 5.7398
 IR Inten    --      8.3155                30.6970                 9.4789

                     46                     47                     48
                      A                      A                      A
 Frequencies --   3051.2624              3069.7228              3107.2323
 Red. masses --      1.1032                 1.1002                 1.1011
 Frc consts  --      6.0512                 6.1081                 6.2634
 IR Inten    --     35.4663                46.9331                20.4325

                     49                     50                     51
                      A                      A                      A
 Frequencies --   3134.4478              3499.0241              3818.6549
 Red. masses --      1.1005                 1.1620                 1.0664
 Frc consts  --      6.3706                 8.3819                 9.1623
 IR Inten    --     15.5437                70.5161                28.0456

 - Thermochemistry -
 -------------------
 Temperature   298.150 Kelvin.  Pressure   1.00000 Atm.
 Atom     1 has atomic number  6 and mass  12.00000

 Molecular mass:   126.06808 amu.
 Principal axes and moments of inertia in atomic units:
                           1         2         3
     Eigenvalues --   779.403761199.723321524.82050
           X            0.99872  -0.05060  -0.00088
           Y            0.05058   0.99856  -0.01816
           Z            0.00179   0.01809   0.99983
 This molecule is an asymmetric top.
 Rotational symmetry number  1.
 Warning -- assumption of classical behavior for rotation
           may cause significant error
 Rotational temperatures (Kelvin)      0.11113     0.07219     0.05680
 Rotational constants (GHZ):           2.31554     1.50430     1.18358
 Zero-point vibrational energy     412760.4 (Joules/Mol)
                                   98.65210 (Kcal/Mol)
 Warning -- explicit consideration of  13 degrees of freedom as
           vibrations may cause significant error
 Vibrational temperatures:    106.56   169.77   195.48   271.89   298.17
          (Kelvin)            369.24   388.81   464.35   544.77   671.98
                              723.82   799.09   836.05   910.89   947.89
                              958.88  1096.28  1293.63  1321.92  1369.11
                             1387.11  1465.19  1509.31  1567.62  1589.66
                             1659.03  1685.35  1697.78  1735.72  1811.13
                             1901.41  1923.88  1958.38  1981.74  2027.98
                             2042.94  2148.65  2161.31  2169.67  2192.07
                             3210.50  4318.34  4329.94  4377.50  4380.85
                             4390.08  4416.64  4470.61  4509.77  5034.31
                             5494.19

 Zero-point correction=                           0.157212 (Hartree/Particle)
 Thermal correction to Energy=                    0.166768
 Thermal correction to Enthalpy=                  0.167712
 Thermal correction to Gibbs Free Energy=         0.123031
 Sum of electronic and zero-point Energies=           -422.992967
 Sum of electronic and thermal Energies=              -422.983411
 Sum of electronic and thermal Enthalpies=            -422.982467
 Sum of electronic and thermal Free Energies=         -423.027148

                     E (Thermal)             CV                S
                      KCal/Mol        Cal/Mol-Kelvin    Cal/Mol-Kelvin
 Total                  104.648             35.470             94.039
 Electronic               0.000              0.000              0.000
 Translational            0.889              2.981             40.409
 Rotational               0.889              2.981             28.746
 Vibrational            102.871             29.508             24.884
 Vibration     1          0.599              1.966              4.042
 Vibration     2          0.608              1.934              3.133
 Vibration     3          0.614              1.918              2.861
 Vibration     4          0.633              1.855              2.238
 Vibration     5          0.641              1.830              2.068
 Vibration     6          0.666              1.752              1.685
 Vibration     7          0.674              1.728              1.595
 Vibration     8          0.708              1.630              1.296
 Vibration     9          0.749              1.516              1.045
 Vibration    10          0.824              1.323              0.746
 Vibration    11          0.858              1.243              0.650
 Vibration    12          0.911              1.128              0.533
 Vibration    13          0.938              1.072              0.483

 Normal termination of Gaussian 09 at Tue Jan 28 09:00:26 2020.
