 Gaussian 09, Revision D.01,
 Gaussian 09:  ES64L-G09RevD.01 24-Apr-2013

 -----------------------------
 # b3lyp 6-31G(2df,p) opt Freq
 -----------------------------

 -----
 titel
 -----
 Symbolic Z-matrix:
 Charge =  0 Multiplicity = 1

 SCF Done:  E(RB3LYP) =  -423.110074550     A.U. after   13 cycles
 Optimization completed.
    -- Stationary point found.
 Normal termination of Gaussian 09 at Tue Jan 28 10:12:42 2020.

 ----------------------------------------------------------------------
 #N Geom=AllCheck Guess=TCheck SCRF=Check GenChk RB3LYP/6-31G(2df,p) Fr
 eq
 ----------------------------------------------------------------------

 Structure from the checkpoint file:  "/scratch/puck/g09_e5d65de5-cf59-47fe-8962-f1f171f97fb5/Gau-20188.chk"
 -----
 titel
 -----
 Charge =  0 Multiplicity = 1

                         Standard orientation:
 ---------------------------------------------------------------------
 Center     Atomic      Atomic             Coordinates (Angstroms)
 Number     Number       Type             X           Y           Z
 ---------------------------------------------------------------------
      1          6           0       -2.748264   -0.195086   -0.270965
      2          8           0       -1.689813    0.631001    0.188598
      3          6           0       -0.464685    0.014311    0.199520
      4          6           0        0.087015   -0.980890    1.217896
      5          6           0        1.481931   -0.672155    0.594455
      6          6           0        1.400778   -1.263371   -0.842201
      7          6           0        0.365154   -0.178919   -1.119551
      8          6           0        0.863418    0.686154    0.010935
      9          8           0        1.277027    1.989450   -0.013628
     10          1           0       -2.564190   -0.545774   -1.295355
     11          1           0       -2.889996   -1.069608    0.378768
     12          1           0       -3.656464    0.411383   -0.252838
     13          1           0       -0.003810   -0.594493    2.237506
     14          1           0       -0.245457   -2.024517    1.184101
     15          1           0        2.383068   -0.764597    1.196257
     16          1           0        2.321623   -1.097628   -1.408690
     17          1           0        1.101137   -2.314336   -0.927303
     18          1           0       -0.055236    0.159831   -2.058089
     19          1           0        0.999536    2.415874    0.805352
 ---------------------------------------------------------------------

 SCF Done:  E(RB3LYP) =  -423.110074549     A.U. after    1 cycles

 The electronic state is 1-A.
 Alpha  occ. eigenvalues --  -19.15468 -19.15019 -10.23221 -10.23180 -10.22564
 Alpha  occ. eigenvalues --  -10.19088 -10.18218 -10.18158 -10.18087  -1.04905
 Alpha  occ. eigenvalues --   -1.03447  -0.91341  -0.72322  -0.71625  -0.67624
 Alpha  occ. eigenvalues --   -0.61488  -0.56280  -0.53859  -0.52024  -0.47669
 Alpha  occ. eigenvalues --   -0.46627  -0.44259  -0.43729  -0.42509  -0.40892
 Alpha  occ. eigenvalues --   -0.38866  -0.36408  -0.35458  -0.33211  -0.32177
 Alpha  occ. eigenvalues --   -0.30319  -0.27285  -0.23419  -0.22690
 Alpha virt. eigenvalues --    0.07120   0.10313   0.10638   0.11888   0.12693
 Alpha virt. eigenvalues --    0.13803   0.14511   0.15315   0.16264   0.16483
 Alpha virt. eigenvalues --    0.17686   0.18658   0.19041   0.20734   0.22865

 Mulliken charges:
               1
     1  C   -0.256807
     2  O   -0.290458
     3  C    0.348991
     4  C   -0.299757
     5  C   -0.138146
     6  C   -0.225673
     7  C   -0.184493
     8  C    0.310309
     9  O   -0.452839
    10  H    0.113429
    11  H    0.113622
    12  H    0.127149
    13  H    0.096806
    14  H    0.088959
    15  H    0.074359
    16  H    0.104039
    17  H    0.085996
    18  H    0.090602
    19  H    0.293913
 Sum of Mulliken charges =   0.00000

 Dipole moment (field-independent basis, Debye):
    X=             -0.7016    Y=             -0.9472    Z=              0.8310  Tot=              1.4422
 Quadrupole moment (field-independent basis, Debye-Ang):
   XX=            -51.6632   YY=            -53.3680   ZZ=            -51.1775
   XY=              0.3155   XZ=              2.5852   YZ=              2.9681

  Exact polarizability:  83.083  -1.059  72.455  -0.210   0.960  70.981
 Approx polarizability: 111.869   0.897 109.403  -0.804   2.630 107.150

                      1                      2                      3
                      A                      A                      A
 Frequencies --     90.0072               134.4059               174.6035
 Red. masses --      2.6512                 3.0048                 1.1038
 Frc consts  --      0.0127                 0.0320                 0.0198
 IR Inten    --      2.8675                 7.4092                 0.6214

                      4                      5                      6
                      A                      A                      A
 Frequencies --    214.6451               288.3754               304.7750
 Red. masses --      2.3116                 3.1639                 1.4730
 Frc consts  --      0.0627                 0.1550                 0.0806
 IR Inten    --     14.4760                 0.1193                84.7457

                      7                      8                      9
                      A                      A                      A
 Frequencies --    368.9007               408.1571               432.3562
 Red. masses --      2.9925                 3.2495                 1.9664
 Frc consts  --      0.2399                 0.3190                 0.2166
 IR Inten    --      2.8078                 4.2225                 3.3446

                     10                     11                     12
                      A                      A                      A
 Frequencies --    559.1293               584.5301               663.6490
 Red. masses --      3.8637                 3.9435                 4.0774
 Frc consts  --      0.7117                 0.7939                 1.0581
 IR Inten    --      8.0782                 3.9325                 5.4291

                     13                     14                     15
                      A                      A                      A
 Frequencies --    727.6098               761.8387               839.8405
 Red. masses --      3.4787                 3.4702                 3.0121
 Frc consts  --      1.0851                 1.1867                 1.2517
 IR Inten    --      5.4694                 3.8118                21.1162

                     16                     17                     18
                      A                      A                      A
 Frequencies --    902.9938               923.7979               949.2514
 Red. masses --      1.5884                 2.2199                 1.7309
 Frc consts  --      0.7631                 1.1162                 0.9189
 IR Inten    --      1.5941                 6.6796                 9.8597

                     19                     20                     21
                      A                      A                      A
 Frequencies --    978.1838               992.8767              1014.6875
 Red. masses --      1.6730                 1.8089                 3.4134
 Frc consts  --      0.9432                 1.0506                 2.0706
 IR Inten    --      0.6942                 1.8022                 6.9076

                     22                     23                     24
                      A                      A                      A
 Frequencies --   1059.2710              1069.1729              1113.2418
 Red. masses --      1.9306                 3.4807                 1.4401
 Frc consts  --      1.2763                 2.3443                 1.0515
 IR Inten    --      7.5063                56.5680                 2.0805

                     25                     26                     27
                      A                      A                      A
 Frequencies --   1114.3803              1143.0255              1170.3848
 Red. masses --      1.4271                 3.1813                 1.6626
 Frc consts  --      1.0441                 2.4489                 1.3418
 IR Inten    --      1.0168                17.8943                10.7261

                     28                     29                     30
                      A                      A                      A
 Frequencies --   1180.4691              1198.3216              1216.0719
 Red. masses --      1.3010                 1.6082                 1.7793
 Frc consts  --      1.0682                 1.3607                 1.5503
 IR Inten    --      4.0222                 4.1124                45.3748

                     31                     32                     33
                      A                      A                      A
 Frequencies --   1229.9872              1265.3686              1282.4122
 Red. masses --      1.5826                 1.8768                 1.6064
 Frc consts  --      1.4107                 1.7705                 1.5565
 IR Inten    --      1.1323                37.4212                 3.3221

                     34                     35                     36
                      A                      A                      A
 Frequencies --   1293.9803              1371.2708              1473.5856
 Red. masses --      1.7046                 2.3349                 1.4060
 Frc consts  --      1.6817                 2.5868                 1.7988
 IR Inten    --    164.8818                87.9728                16.8864

                     37                     38                     39
                      A                      A                      A
 Frequencies --   1486.4471              1487.1478              1495.8801
 Red. masses --      1.3206                 1.0637                 1.2011
 Frc consts  --      1.7192                 1.3861                 1.5835
 IR Inten    --     10.2534                 5.7214                 6.2793

                     40                     41                     42
                      A                      A                      A
 Frequencies --   1505.8047              1526.5105              2997.6643
 Red. masses --      1.0532                 2.1705                 1.0341
 Frc consts  --      1.4070                 2.9799                 5.4751
 IR Inten    --     10.2408                41.0236                46.5675

                     43                     44                     45
                      A                      A                      A
 Frequencies --   3028.7131              3036.2148              3053.7400
 Red. masses --      1.0599                 1.0585                 1.1037
 Frc consts  --      5.7284                 5.7489                 6.0640
 IR Inten    --     40.6856                57.5637                47.6220

                     46                     47                     48
                      A                      A                      A
 Frequencies --   3091.7710              3094.6221              3122.4887
 Red. masses --      1.1036                 1.1070                 1.0993
 Frc consts  --      6.2157                 6.2461                 6.3150
 IR Inten    --     23.5830                31.9635                30.6887

                     49                     50                     51
                      A                      A                      A
 Frequencies --   3142.2886              3199.4514              3785.4788
 Red. masses --      1.0915                 1.0928                 1.0662
 Frc consts  --      6.3501                 6.5908                 9.0016
 IR Inten    --     31.8851                10.1642                25.1177

 - Thermochemistry -
 -------------------
 Temperature   298.150 Kelvin.  Pressure   1.00000 Atm.
 Atom     1 has atomic number  6 and mass  12.00000

 Molecular mass:   126.06808 amu.
 Principal axes and moments of inertia in atomic units:
                           1         2         3
     Eigenvalues --   701.220061187.532581423.96642
           X            0.99991  -0.00684   0.01137
           Y            0.00669   0.99989   0.01290
           Z           -0.01146  -0.01282   0.99985
 This molecule is an asymmetric top.
 Rotational symmetry number  1.
 Warning -- assumption of classical behavior for rotation
           may cause significant error
 Rotational temperatures (Kelvin)      0.12352     0.07294     0.06083
 Rotational constants (GHZ):           2.57372     1.51974     1.26740
 Zero-point vibrational energy     416000.1 (Joules/Mol)
                                   99.42640 (Kcal/Mol)
 Warning -- explicit consideration of  11 degrees of freedom as
           vibrations may cause significant error
 Vibrational temperatures:    129.50   193.38   251.22   308.83   414.91
          (Kelvin)            438.50   530.77   587.25   622.06   804.46
                              841.01   954.84  1046.87  1096.11  1208.34
                             1299.21  1329.14  1365.76  1407.39  1428.53
                             1459.91  1524.05  1538.30  1601.70  1603.34
                             1644.56  1683.92  1698.43  1724.12  1749.65
                             1769.67  1820.58  1845.10  1861.75  1972.95
                             2120.16  2138.66  2139.67  2152.24  2166.51
                             2196.31  4312.96  4357.64  4368.43  4393.65
                             4448.36  4452.47  4492.56  4521.05  4603.29
                             5446.45

 Zero-point correction=                           0.158446 (Hartree/Particle)
 Thermal correction to Energy=                    0.166900
 Thermal correction to Enthalpy=                  0.167844
 Thermal correction to Gibbs Free Energy=         0.125527
 Sum of electronic and zero-point Energies=           -422.951628
 Sum of electronic and thermal Energies=              -422.943175
 Sum of electronic and thermal Enthalpies=            -422.942231
 Sum of electronic and thermal Free Energies=         -422.984548

                     E (Thermal)             CV                S
                      KCal/Mol        Cal/Mol-Kelvin    Cal/Mol-Kelvin
 Total                  104.731             32.476             89.063
 Electronic               0.000              0.000              0.000
 Translational            0.889              2.981             40.409
 Rotational               0.889              2.981             28.563
 Vibrational            102.954             26.514             20.092
 Vibration     1          0.602              1.956              3.660
 Vibration     2          0.613              1.919              2.882
 Vibration     3          0.627              1.874              2.385
 Vibration     4          0.645              1.819              2.004
 Vibration     5          0.685              1.695              1.483
 Vibration     6          0.696              1.665              1.391
 Vibration     7          0.741              1.536              1.084
 Vibration     8          0.773              1.453              0.933
 Vibration     9          0.793              1.400              0.851
 Vibration    10          0.915              1.120              0.526
 Vibration    11          0.941              1.065              0.477

 Normal termination of Gaussian 09 at Tue Jan 28 10:55:59 2020.
