 Gaussian 09, Revision D.01,
 Gaussian 09:  ES64L-G09RevD.01 24-Apr-2013

 -----------------------------
 # b3lyp 6-31G(2df,p) opt Freq
 -----------------------------

 -----
 titel
 -----
 Symbolic Z-matrix:
 Charge =  0 Multiplicity = 1

 SCF Done:  E(RB3LYP) =  -423.184931685     A.U. after   14 cycles
 Optimization completed.
    -- Stationary point found.
 Normal termination of Gaussian 09 at Mon Jan 27 22:00:12 2020.

 ----------------------------------------------------------------------
 #N Geom=AllCheck Guess=TCheck SCRF=Check GenChk RB3LYP/6-31G(2df,p) Fr
 eq
 ----------------------------------------------------------------------

 Structure from the checkpoint file:  "/scratch/puck/g09_6e55d817-7fea-4208-ab9a-10346179a0fd/Gau-125550.chk"
 -----
 titel
 -----
 Charge =  0 Multiplicity = 1

                         Standard orientation:
 ---------------------------------------------------------------------
 Center     Atomic      Atomic             Coordinates (Angstroms)
 Number     Number       Type             X           Y           Z
 ---------------------------------------------------------------------
      1          6           0       -0.125698    1.621340    1.117240
      2          6           0        0.074130    0.624835   -0.029842
      3          6           0       -1.123411    0.624682   -0.999657
      4          8           0       -2.088381   -0.219918   -0.354554
      5          6           0       -1.416295   -1.240675    0.410594
      6          6           0        0.018621   -0.829971    0.376027
      7          6           0        1.219624   -1.378153    0.263012
      8          6           0        2.185398   -0.322966   -0.229834
      9          8           0        1.363529    0.787071   -0.611999
     10          1           0        0.602116    1.448042    1.915046
     11          1           0        0.006363    2.641618    0.744403
     12          1           0       -1.133110    1.533086    1.534907
     13          1           0       -1.597969    1.598712   -1.145207
     14          1           0       -0.810972    0.221454   -1.973572
     15          1           0       -1.853821   -1.251586    1.416989
     16          1           0       -1.577943   -2.228915   -0.039775
     17          1           0        1.497867   -2.414313    0.409925
     18          1           0        2.921074   -0.014980    0.531504
     19          1           0        2.750994   -0.664894   -1.107045
 ---------------------------------------------------------------------

 SCF Done:  E(RB3LYP) =  -423.184931685     A.U. after    1 cycles

 The electronic state is 1-A.
 Alpha  occ. eigenvalues --  -19.13827 -19.13721 -10.23758 -10.23634 -10.23502
 Alpha  occ. eigenvalues --  -10.22335 -10.19174 -10.19021 -10.17447  -1.04263
 Alpha  occ. eigenvalues --   -1.02347  -0.80349  -0.77518  -0.72197  -0.68554
 Alpha  occ. eigenvalues --   -0.62781  -0.57949  -0.54760  -0.49745  -0.48806
 Alpha  occ. eigenvalues --   -0.46978  -0.43957  -0.43485  -0.42694  -0.41225
 Alpha  occ. eigenvalues --   -0.39463  -0.38396  -0.36783  -0.35246  -0.32290
 Alpha  occ. eigenvalues --   -0.30764  -0.27409  -0.24886  -0.23773
 Alpha virt. eigenvalues --    0.00353   0.09085   0.09924   0.11910   0.12409
 Alpha virt. eigenvalues --    0.13651   0.14944   0.16006   0.16584   0.16958
 Alpha virt. eigenvalues --    0.17419   0.18626   0.19166   0.19187   0.22261

 Mulliken charges:
               1
     1  C   -0.432519
     2  C    0.323252
     3  C   -0.118032
     4  O   -0.277937
     5  C   -0.169244
     6  C    0.266468
     7  C   -0.272471
     8  C   -0.130230
     9  O   -0.320526
    10  H    0.115874
    11  H    0.125626
    12  H    0.127739
    13  H    0.106280
    14  H    0.097365
    15  H    0.116835
    16  H    0.114740
    17  H    0.108334
    18  H    0.104397
    19  H    0.114050
 Sum of Mulliken charges =   0.00000

 Dipole moment (field-independent basis, Debye):
    X=              0.9445    Y=             -1.2190    Z=              0.8826  Tot=              1.7768
 Quadrupole moment (field-independent basis, Debye-Ang):
   XX=            -55.8429   YY=            -50.3748   ZZ=            -53.1096
   XY=             -2.7782   XZ=             -0.2739   YZ=              0.1001

  Exact polarizability:  89.529  -6.032  77.381  -2.487  -0.894  63.242
 Approx polarizability: 132.906 -11.795 110.150  -5.700  -3.355  93.883

                      1                      2                      3
                      A                      A                      A
 Frequencies --    108.7848               166.9934               214.3782
 Red. masses --      2.9736                 3.2845                 2.4018
 Frc consts  --      0.0207                 0.0540                 0.0650
 IR Inten    --      0.2221                10.6199                 1.1687

                      4                      5                      6
                      A                      A                      A
 Frequencies --    246.7516               257.0730               334.5608
 Red. masses --      1.0341                 2.2460                 2.1228
 Frc consts  --      0.0371                 0.0875                 0.1400
 IR Inten    --      0.1684                 1.3404                 0.5101

                      7                      8                      9
                      A                      A                      A
 Frequencies --    380.2274               450.5706               587.4250
 Red. masses --      3.9635                 2.9978                 3.5238
 Frc consts  --      0.3376                 0.3586                 0.7164
 IR Inten    --      2.8284                 0.7170                 4.0338

                     10                     11                     12
                      A                      A                      A
 Frequencies --    601.9687               670.0160               759.3871
 Red. masses --      5.6986                 5.5810                 3.0795
 Frc consts  --      1.2167                 1.4762                 1.0463
 IR Inten    --      0.0308                 4.3410                 1.8625

                     13                     14                     15
                      A                      A                      A
 Frequencies --    786.8679               813.7593               904.6849
 Red. masses --      7.0246                 1.2000                 3.8159
 Frc consts  --      2.5626                 0.4682                 1.8401
 IR Inten    --      5.9908                19.7648                16.8554

                     16                     17                     18
                      A                      A                      A
 Frequencies --    913.3702               939.4507               958.2511
 Red. masses --      2.1750                 2.2846                 2.1241
 Frc consts  --      1.0691                 1.1880                 1.1492
 IR Inten    --      6.6089                 4.0616                10.6810

                     19                     20                     21
                      A                      A                      A
 Frequencies --    962.4301              1021.5606              1037.1218
 Red. masses --      1.6844                 1.8319                 1.8159
 Frc consts  --      0.9192                 1.1264                 1.1508
 IR Inten    --      6.4711                13.3438                17.3419

                     22                     23                     24
                      A                      A                      A
 Frequencies --   1055.3640              1062.5048              1125.4884
 Red. masses --      4.6513                 4.7256                 2.6667
 Frc consts  --      3.0523                 3.1432                 1.9903
 IR Inten    --     85.8825                52.3653                 0.2050

                     25                     26                     27
                      A                      A                      A
 Frequencies --   1161.7832              1193.4157              1196.5293
 Red. masses --      2.5465                 1.3589                 1.1125
 Frc consts  --      2.0251                 1.1403                 0.9384
 IR Inten    --     21.8671                 9.1470                 1.8555

                     28                     29                     30
                      A                      A                      A
 Frequencies --   1206.9518              1218.4954              1257.2039
 Red. masses --      1.5304                 2.0661                 1.6884
 Frc consts  --      1.3136                 1.8074                 1.5723
 IR Inten    --     19.0892                 7.8588                14.1860

                     31                     32                     33
                      A                      A                      A
 Frequencies --   1301.5883              1336.8072              1365.3952
 Red. masses --      2.2632                 1.3607                 1.4334
 Frc consts  --      2.2590                 1.4327                 1.5745
 IR Inten    --      6.8635                 7.3458                12.3958

                     34                     35                     36
                      A                      A                      A
 Frequencies --   1384.8880              1402.5583              1488.8085
 Red. masses --      1.4064                 1.2810                 1.0536
 Frc consts  --      1.5892                 1.4847                 1.3759
 IR Inten    --      3.8873                 4.8628                 1.6988

                     37                     38                     39
                      A                      A                      A
 Frequencies --   1490.7003              1508.1942              1517.9901
 Red. masses --      1.0571                 1.0841                 1.0944
 Frc consts  --      1.3840                 1.4528                 1.4859
 IR Inten    --      2.2210                 0.2821                 1.0715

                     40                     41                     42
                      A                      A                      A
 Frequencies --   1518.4390              1754.8051              2965.9366
 Red. masses --      1.0852                 8.7153                 1.0706
 Frc consts  --      1.4741                15.8122                 5.5488
 IR Inten    --      0.7145                 0.6631                79.3260

                     43                     44                     45
                      A                      A                      A
 Frequencies --   3002.4533              3011.4585              3024.9529
 Red. masses --      1.0645                 1.0582                 1.0907
 Frc consts  --      5.6537                 5.6543                 5.8803
 IR Inten    --     69.1357                39.3138                46.0649

                     46                     47                     48
                      A                      A                      A
 Frequencies --   3038.5025              3039.4321              3094.0149
 Red. masses --      1.0528                 1.0866                 1.0987
 Frc consts  --      5.7266                 5.9141                 6.1970
 IR Inten    --      0.6259                42.7026                30.0532

                     49                     50                     51
                      A                      A                      A
 Frequencies --   3114.3726              3118.2525              3212.2123
 Red. masses --      1.1022                 1.1022                 1.0960
 Frc consts  --      6.2985                 6.3142                 6.6631
 IR Inten    --     19.0911                18.5550                 6.8574

 - Thermochemistry -
 -------------------
 Temperature   298.150 Kelvin.  Pressure   1.00000 Atm.
 Atom     1 has atomic number  6 and mass  12.00000

 Molecular mass:   126.06808 amu.
 Principal axes and moments of inertia in atomic units:
                           1         2         3
     Eigenvalues --   660.794131068.383631332.06006
           X            0.99961  -0.02779  -0.00372
           Y            0.02792   0.99885   0.03900
           Z            0.00264  -0.03909   0.99923
 This molecule is an asymmetric top.
 Rotational symmetry number  1.
 Warning -- assumption of classical behavior for rotation
           may cause significant error
 Rotational temperatures (Kelvin)      0.13108     0.08107     0.06502
 Rotational constants (GHZ):           2.73117     1.68923     1.35485
 Zero-point vibrational energy     420398.4 (Joules/Mol)
                                  100.47764 (Kcal/Mol)
 Warning -- explicit consideration of  10 degrees of freedom as
           vibrations may cause significant error
 Vibrational temperatures:    156.52   240.27   308.44   355.02   369.87
          (Kelvin)            481.36   547.06   648.27   845.17   866.10
                              964.00  1092.59  1132.13  1170.82  1301.64
                             1314.13  1351.66  1378.71  1384.72  1469.80
                             1492.19  1518.43  1528.71  1619.32  1671.54
                             1717.06  1721.54  1736.53  1753.14  1808.83
                             1872.69  1923.37  1964.50  1992.54  2017.97
                             2142.06  2144.78  2169.95  2184.05  2184.69
                             2524.77  4267.32  4319.86  4332.81  4352.23
                             4371.72  4373.06  4451.59  4480.88  4486.46
                             4621.65

 Zero-point correction=                           0.160121 (Hartree/Particle)
 Thermal correction to Energy=                    0.168015
 Thermal correction to Enthalpy=                  0.168960
 Thermal correction to Gibbs Free Energy=         0.127944
 Sum of electronic and zero-point Energies=           -423.024810
 Sum of electronic and thermal Energies=              -423.016916
 Sum of electronic and thermal Enthalpies=            -423.015972
 Sum of electronic and thermal Free Energies=         -423.056987

                     E (Thermal)             CV                S
                      KCal/Mol        Cal/Mol-Kelvin    Cal/Mol-Kelvin
 Total                  105.431             30.678             86.324
 Electronic               0.000              0.000              0.000
 Translational            0.889              2.981             40.409
 Rotational               0.889              2.981             28.333
 Vibrational            103.654             24.717             17.583
 Vibration     1          0.606              1.942              3.290
 Vibration     2          0.624              1.883              2.469
 Vibration     3          0.644              1.819              2.006
 Vibration     4          0.661              1.768              1.754
 Vibration     5          0.667              1.751              1.682
 Vibration     6          0.716              1.606              1.238
 Vibration     7          0.750              1.512              1.038
 Vibration     8          0.809              1.360              0.794
 Vibration     9          0.945              1.059              0.472
 Vibration    10          0.960              1.028              0.446

 Optimization completed.
    -- Stationary point found.
 Normal termination of Gaussian 09 at Mon Jan 27 22:43:38 2020.
