 Gaussian 09, Revision D.01,
 Gaussian 09:  ES64L-G09RevD.01 24-Apr-2013

 -----------------------------
 # b3lyp 6-31G(2df,p) opt Freq
 -----------------------------

 -----
 titel
 -----
 Symbolic Z-matrix:
 Charge =  0 Multiplicity = 1

 SCF Done:  E(RB3LYP) =  -423.120815708     A.U. after   14 cycles
 Optimization completed.
    -- Stationary point found.
 Normal termination of Gaussian 09 at Tue Jan 28 14:02:44 2020.

 ----------------------------------------------------------------------
 #N Geom=AllCheck Guess=TCheck SCRF=Check GenChk RB3LYP/6-31G(2df,p) Fr
 eq
 ----------------------------------------------------------------------

 Structure from the checkpoint file:  "/scratch/puck/g09_c67451d6-336c-471c-ac7a-c68dbc838012/Gau-24645.chk"
 -----
 titel
 -----
 Charge =  0 Multiplicity = 1

                         Standard orientation:
 ---------------------------------------------------------------------
 Center     Atomic      Atomic             Coordinates (Angstroms)
 Number     Number       Type             X           Y           Z
 ---------------------------------------------------------------------
      1          6           0        3.118742   -0.583509   -0.096303
      2          6           0        2.086515    0.549772   -0.087495
      3          6           0        0.693318    0.084690   -0.489891
      4          6           0       -0.143492   -0.666750    0.601574
      5          8           0       -0.481643    0.622497    1.173194
      6          6           0       -0.484128    1.074500   -0.205620
      7          6           0       -1.686356    0.289251   -0.806683
      8          8           0       -2.566928   -0.244452    0.182626
      9          6           0       -1.429833   -1.018089   -0.201592
     10          1           0        3.199213   -1.042437   -1.088173
     11          1           0        4.110746   -0.214359    0.180434
     12          1           0        2.850732   -1.373780    0.613151
     13          1           0        2.035790    1.007201    0.905727
     14          1           0        2.406754    1.337917   -0.781452
     15          1           0        0.698252   -0.377634   -1.485282
     16          1           0        0.269774   -1.383255    1.310524
     17          1           0       -0.417457    2.155029   -0.329757
     18          1           0       -2.087893    0.472872   -1.796778
     19          1           0       -1.605939   -1.985103   -0.658884
 ---------------------------------------------------------------------

 SCF Done:  E(RB3LYP) =  -423.120815708     A.U. after    1 cycles

 The electronic state is 1-A.
 Alpha  occ. eigenvalues --  -19.15177 -19.14054 -10.24431 -10.24419 -10.23559
 Alpha  occ. eigenvalues --  -10.23524 -10.20193 -10.18596 -10.18006  -1.09364
 Alpha  occ. eigenvalues --   -1.03454  -0.79947  -0.75047  -0.70880  -0.67041
 Alpha  occ. eigenvalues --   -0.60187  -0.58328  -0.54982  -0.53971  -0.50004
 Alpha  occ. eigenvalues --   -0.46506  -0.44850  -0.43010  -0.41779  -0.38489
 Alpha  occ. eigenvalues --   -0.37880  -0.37092  -0.36131  -0.35732  -0.32740
 Alpha  occ. eigenvalues --   -0.31321  -0.29300  -0.26788  -0.24590
 Alpha virt. eigenvalues --    0.06971   0.08145   0.09419   0.11700   0.11893
 Alpha virt. eigenvalues --    0.12762   0.13879   0.14378   0.15976   0.16381
 Alpha virt. eigenvalues --    0.17236   0.17695   0.18621   0.20231   0.20772

 Mulliken charges:
               1
     1  C   -0.383735
     2  C   -0.212281
     3  C    0.024576
     4  C    0.006959
     5  O   -0.263724
     6  C   -0.004099
     7  C    0.021416
     8  O   -0.225771
     9  C    0.024921
    10  H    0.113945
    11  H    0.117804
    12  H    0.117556
    13  H    0.118482
    14  H    0.095731
    15  H    0.066573
    16  H    0.086512
    17  H    0.085098
    18  H    0.105050
    19  H    0.104986
 Sum of Mulliken charges =   0.00000

 Dipole moment (field-independent basis, Debye):
    X=              2.1025    Y=             -0.6565    Z=             -2.3319  Tot=              3.2077
 Quadrupole moment (field-independent basis, Debye-Ang):
   XX=            -58.6671   YY=            -49.7548   ZZ=            -53.7166
   XY=              0.3139   XZ=              3.7904   YZ=             -2.2317

  Exact polarizability:  85.376   0.276  71.792   2.674  -2.819  64.322
 Approx polarizability: 110.575  -1.031 112.065  -0.478  -4.621 104.972

                      1                      2                      3
                      A                      A                      A
 Frequencies --     89.0743               148.9143               187.7834
 Red. masses --      2.4672                 3.4226                 1.4161
 Frc consts  --      0.0115                 0.0447                 0.0294
 IR Inten    --      1.2711                 0.7628                 1.0340

                      4                      5                      6
                      A                      A                      A
 Frequencies --    272.1842               338.8237               416.8594
 Red. masses --      1.7060                 3.9208                 4.4898
 Frc consts  --      0.0745                 0.2652                 0.4597
 IR Inten    --      0.8918                 0.6904                 0.2224

                      7                      8                      9
                      A                      A                      A
 Frequencies --    446.5404               513.3293               694.8102
 Red. masses --      3.7940                 3.9853                 4.0953
 Frc consts  --      0.4457                 0.6187                 1.1648
 IR Inten    --      1.0309                 1.6252                28.6812

                     10                     11                     12
                      A                      A                      A
 Frequencies --    721.8600               766.9644               818.1544
 Red. masses --      5.1652                 1.4768                 2.8277
 Frc consts  --      1.5858                 0.5118                 1.1152
 IR Inten    --      2.3054                11.2172                 0.6644

                     13                     14                     15
                      A                      A                      A
 Frequencies --    828.9031               871.0211               882.4410
 Red. masses --      2.1536                 1.6202                 3.0065
 Frc consts  --      0.8718                 0.7242                 1.3794
 IR Inten    --      1.2004                11.2020                 2.8531

                     16                     17                     18
                      A                      A                      A
 Frequencies --    897.5237               910.1238               914.7074
 Red. masses --      2.3675                 3.6701                 4.3573
 Frc consts  --      1.1236                 1.7912                 2.1480
 IR Inten    --     34.8866                16.8478                15.2694

                     19                     20                     21
                      A                      A                      A
 Frequencies --    954.7943               965.5687               989.9038
 Red. masses --      1.8247                 5.7337                 2.6332
 Frc consts  --      0.9801                 3.1495                 1.5202
 IR Inten    --      7.2873                17.1081                 7.3978

                     22                     23                     24
                      A                      A                      A
 Frequencies --   1062.5972              1066.3537              1077.1922
 Red. masses --      1.4251                 2.5939                 2.1029
 Frc consts  --      0.9480                 1.7378                 1.4377
 IR Inten    --      1.7296                 1.0763                 1.1987

                     25                     26                     27
                      A                      A                      A
 Frequencies --   1093.2284              1146.4383              1163.7480
 Red. masses --      1.5362                 2.2292                 1.3600
 Frc consts  --      1.0817                 1.7262                 1.0852
 IR Inten    --      1.4765                 5.0143                 2.7430

                     28                     29                     30
                      A                      A                      A
 Frequencies --   1203.4305              1216.9937              1244.9595
 Red. masses --      1.4768                 1.5732                 1.3058
 Frc consts  --      1.2602                 1.3728                 1.1925
 IR Inten    --      2.7423                 4.7158                 0.0472

                     31                     32                     33
                      A                      A                      A
 Frequencies --   1263.1441              1267.5057              1291.2072
 Red. masses --      1.4587                 1.3660                 1.2872
 Frc consts  --      1.3713                 1.2930                 1.2644
 IR Inten    --      1.2723                 2.1078                 0.1277

                     34                     35                     36
                      A                      A                      A
 Frequencies --   1304.4247              1344.6687              1381.6012
 Red. masses --      1.5636                 1.3844                 2.3530
 Frc consts  --      1.5675                 1.4748                 2.6463
 IR Inten    --      3.5234                10.7960                12.4768

                     37                     38                     39
                      A                      A                      A
 Frequencies --   1409.2732              1415.7924              1488.7450
 Red. masses --      1.3809                 1.7291                 1.0615
 Frc consts  --      1.6158                 2.0421                 1.3862
 IR Inten    --      3.8119                 2.5418                 0.7512

                     40                     41                     42
                      A                      A                      A
 Frequencies --   1499.9565              1506.0190              3022.9270
 Red. masses --      1.0404                 1.0719                 1.0704
 Frc consts  --      1.3791                 1.4324                 5.7628
 IR Inten    --      5.5433                 3.2395                22.4816

                     43                     44                     45
                      A                      A                      A
 Frequencies --   3028.2677              3031.4854              3076.0817
 Red. masses --      1.0750                 1.0404                 1.0951
 Frc consts  --      5.8084                 5.6331                 6.1050
 IR Inten    --     24.5588                32.9469                 1.8819

                     46                     47                     48
                      A                      A                      A
 Frequencies --   3100.7016              3106.3234              3126.6029
 Red. masses --      1.1015                 1.1005                 1.0894
 Frc consts  --      6.2398                 6.2563                 6.2744
 IR Inten    --     42.8326                32.9047                48.8047

                     49                     50                     51
                      A                      A                      A
 Frequencies --   3129.9977              3176.2911              3188.9723
 Red. masses --      1.0923                 1.0875                 1.0989
 Frc consts  --      6.3049                 6.4641                 6.5843
 IR Inten    --     16.4573                15.9620                14.8224

 - Thermochemistry -
 -------------------
 Temperature   298.150 Kelvin.  Pressure   1.00000 Atm.
 Atom     1 has atomic number  6 and mass  12.00000

 Molecular mass:   126.06808 amu.
 Principal axes and moments of inertia in atomic units:
                           1         2         3
     Eigenvalues --   406.573351597.013111651.06846
           X            0.99994  -0.00610   0.00896
           Y            0.00688   0.99593  -0.08987
           Z           -0.00837   0.08993   0.99591
 This molecule is an asymmetric top.
 Rotational symmetry number  1.
 Rotational temperatures (Kelvin)      0.21303     0.05423     0.05246
 Rotational constants (GHZ):           4.43891     1.13007     1.09307
 Zero-point vibrational energy     419083.0 (Joules/Mol)
                                  100.16325 (Kcal/Mol)
 Warning -- explicit consideration of   8 degrees of freedom as
           vibrations may cause significant error
 Vibrational temperatures:    128.16   214.25   270.18   391.61   487.49
          (Kelvin)            599.77   642.47   738.57   999.68  1038.59
                             1103.49  1177.14  1192.61  1253.20  1269.63
                             1291.33  1309.46  1316.06  1373.73  1389.24
                             1424.25  1528.84  1534.24  1549.84  1572.91
                             1649.47  1674.37  1731.47  1750.98  1791.22
                             1817.38  1823.66  1857.76  1876.77  1934.68
                             1987.81  2027.63  2037.01  2141.97  2158.10
                             2166.82  4349.31  4357.00  4361.63  4425.79
                             4461.21  4469.30  4498.48  4503.36  4569.97
                             4588.21

 Zero-point correction=                           0.159620 (Hartree/Particle)
 Thermal correction to Energy=                    0.167181
 Thermal correction to Enthalpy=                  0.168125
 Thermal correction to Gibbs Free Energy=         0.127463
 Sum of electronic and zero-point Energies=           -422.961195
 Sum of electronic and thermal Energies=              -422.953635
 Sum of electronic and thermal Enthalpies=            -422.952691
 Sum of electronic and thermal Free Energies=         -422.993353

                     E (Thermal)             CV                S
                      KCal/Mol        Cal/Mol-Kelvin    Cal/Mol-Kelvin
 Total                  104.907             29.910             85.580
 Electronic               0.000              0.000              0.000
 Translational            0.889              2.981             40.409
 Rotational               0.889              2.981             28.463
 Vibrational            103.130             23.948             16.708
 Vibration     1          0.602              1.957              3.680
 Vibration     2          0.618              1.904              2.686
 Vibration     3          0.632              1.857              2.250
 Vibration     4          0.675              1.725              1.582
 Vibration     5          0.719              1.598              1.218
 Vibration     6          0.780              1.434              0.903
 Vibration     7          0.806              1.369              0.806
 Vibration     8          0.868              1.220              0.626

 Optimization completed.
    -- Stationary point found.
 Normal termination of Gaussian 09 at Tue Jan 28 14:48:04 2020.
