 Gaussian 09, Revision D.01,
 Gaussian 09:  ES64L-G09RevD.01 24-Apr-2013

 -----------------------------
 # b3lyp 6-31G(2df,p) opt Freq
 -----------------------------

 -----
 titel
 -----
 Symbolic Z-matrix:
 Charge =  0 Multiplicity = 1

 SCF Done:  E(RB3LYP) =  -423.200339932     A.U. after   14 cycles
 Optimization completed.
    -- Stationary point found.
 Normal termination of Gaussian 09 at Mon Jan 27 22:55:00 2020.

 ----------------------------------------------------------------------
 #N Geom=AllCheck Guess=TCheck SCRF=Check GenChk RB3LYP/6-31G(2df,p) Fr
 eq
 ----------------------------------------------------------------------

 Structure from the checkpoint file:  "/scratch/puck/g09_520cb59e-8251-4f98-8752-b34055128ddc/Gau-75173.chk"
 -----
 titel
 -----
 Charge =  0 Multiplicity = 1

                         Standard orientation:
 ---------------------------------------------------------------------
 Center     Atomic      Atomic             Coordinates (Angstroms)
 Number     Number       Type             X           Y           Z
 ---------------------------------------------------------------------
      1          6           0        1.862372   -1.645929   -0.251228
      2          6           0        0.462886   -1.110322    0.022061
      3          6           0        0.194512   -0.026770    1.101090
      4          8           0       -1.269266   -0.026840    1.121213
      5          6           0       -1.569773    0.001026   -0.227604
      6          8           0       -2.679454    0.008523   -0.665628
      7          6           0       -0.191980    0.019945   -0.874512
      8          6           0        0.457026    1.109280    0.070765
      9          6           0        1.842306    1.666741   -0.230753
     10          1           0        2.650394   -0.895408   -0.259662
     11          1           0        2.121792   -2.380685    0.518923
     12          1           0        1.883597   -2.165570   -1.214954
     13          1           0       -0.198749   -1.972762    0.154721
     14          1           0        0.570786   -0.049316    2.122989
     15          1           0       -0.157048    0.046073   -1.961115
     16          1           0       -0.205485    1.959484    0.264212
     17          1           0        1.754685    2.452122   -0.988810
     18          1           0        2.267056    2.129793    0.666994
     19          1           0        2.558638    0.938977   -0.606883
 ---------------------------------------------------------------------

 SCF Done:  E(RB3LYP) =  -423.200339932     A.U. after    1 cycles

 The electronic state is 1-A.
 Alpha  occ. eigenvalues --  -19.17129 -19.12247 -10.29798 -10.25530 -10.21404
 Alpha  occ. eigenvalues --  -10.21403 -10.21304 -10.19409 -10.19408  -1.09704
 Alpha  occ. eigenvalues --   -1.02164  -0.86132  -0.76196  -0.72971  -0.69541
 Alpha  occ. eigenvalues --   -0.62997  -0.57147  -0.53675  -0.52273  -0.49883
 Alpha  occ. eigenvalues --   -0.44922  -0.43945  -0.43176  -0.42103  -0.41289
 Alpha  occ. eigenvalues --   -0.41023  -0.38156  -0.37435  -0.36840  -0.35572
 Alpha  occ. eigenvalues --   -0.32490  -0.31619  -0.28027  -0.25638
 Alpha virt. eigenvalues --    0.01931   0.07142   0.09857   0.10334   0.10661
 Alpha virt. eigenvalues --    0.11812   0.13029   0.14393   0.15028   0.15479
 Alpha virt. eigenvalues --    0.16210   0.17921   0.18493   0.20694   0.22150

 Mulliken charges:
               1
     1  C   -0.455665
     2  C    0.042005
     3  C    0.048303
     4  O   -0.246157
     5  C    0.446404
     6  O   -0.353625
     7  C   -0.227854
     8  C    0.042869
     9  C   -0.455645
    10  H    0.128634
    11  H    0.128235
    12  H    0.130736
    13  H    0.100227
    14  H    0.090605
    15  H    0.092414
    16  H    0.100547
    17  H    0.131100
    18  H    0.126914
    19  H    0.129953
 Sum of Mulliken charges =   0.00000

 Dipole moment (field-independent basis, Debye):
    X=              4.6504    Y=              0.0089    Z=              0.0680  Tot=              4.6509
 Quadrupole moment (field-independent basis, Debye-Ang):
   XX=            -63.7423   YY=            -50.1813   ZZ=            -53.0016
   XY=             -0.0234   XZ=             -0.4515   YZ=              0.0329

  Exact polarizability:  85.471  -0.101  73.117   3.759  -0.162  67.898
 Approx polarizability: 123.230  -0.178 102.027   9.233  -0.382 108.965

                      1                      2                      3
                      A                      A                      A
 Frequencies --     72.7002               147.9680               155.7307
 Red. masses --      1.1551                 2.2512                 1.3609
 Frc consts  --      0.0036                 0.0290                 0.0194
 IR Inten    --      0.0092                 1.2048                 0.3578

                      4                      5                      6
                      A                      A                      A
 Frequencies --    248.5690               258.8593               297.8932
 Red. masses --      2.2973                 3.0193                 2.5906
 Frc consts  --      0.0836                 0.1192                 0.1354
 IR Inten    --      0.2986                 0.3530                 0.4593

                      7                      8                      9
                      A                      A                      A
 Frequencies --    315.9375               470.6442               474.7891
 Red. masses --      3.2847                 5.0687                 4.9933
 Frc consts  --      0.1932                 0.6615                 0.6632
 IR Inten    --      0.0301                 3.9534                 4.6598

                     10                     11                     12
                      A                      A                      A
 Frequencies --    560.6000               651.3141               716.9816
 Red. masses --      4.7871                 5.2246                 4.3436
 Frc consts  --      0.8864                 1.3058                 1.3156
 IR Inten    --      1.4858                 2.7119                 5.5364

                     13                     14                     15
                      A                      A                      A
 Frequencies --    765.9830               826.5106               830.6089
 Red. masses --      2.2617                 3.0894                 2.6654
 Frc consts  --      0.7819                 1.2434                 1.0834
 IR Inten    --      0.4508                10.7956                 0.1755

                     16                     17                     18
                      A                      A                      A
 Frequencies --    857.9253               909.6824               918.4994
 Red. masses --      2.3304                 2.8519                 6.2267
 Frc consts  --      1.0106                 1.3905                 3.0950
 IR Inten    --      9.0673                40.1729                45.8883

                     19                     20                     21
                      A                      A                      A
 Frequencies --    997.9821              1037.2071              1053.4412
 Red. masses --      3.4242                 1.4025                 1.7375
 Frc consts  --      2.0093                 0.8890                 1.1360
 IR Inten    --     26.8796                 4.2635                13.1781

                     22                     23                     24
                      A                      A                      A
 Frequencies --   1059.7002              1096.7023              1113.2635
 Red. masses --      1.2602                 2.1826                 1.8397
 Frc consts  --      0.8338                 1.5467                 1.3434
 IR Inten    --      2.5230                 2.1491                 8.0437

                     25                     26                     27
                      A                      A                      A
 Frequencies --   1128.6363              1135.8559              1158.1393
 Red. masses --      1.7921                 2.0445                 2.0930
 Frc consts  --      1.3450                 1.5541                 1.6540
 IR Inten    --      2.1183                 6.3167                 8.7554

                     28                     29                     30
                      A                      A                      A
 Frequencies --   1219.3876              1231.6829              1268.4674
 Red. masses --      2.1304                 1.4749                 1.6871
 Frc consts  --      1.8664                 1.3183                 1.5994
 IR Inten    --     23.4587                 0.2220                 6.2005

                     31                     32                     33
                      A                      A                      A
 Frequencies --   1279.6594              1305.5296              1394.5848
 Red. masses --      1.8345                 1.5162                 1.2558
 Frc consts  --      1.7700                 1.5226                 1.4390
 IR Inten    --      1.2742                34.1937                 4.3140

                     34                     35                     36
                      A                      A                      A
 Frequencies --   1408.7361              1424.4984              1437.3283
 Red. masses --      1.2505                 1.2234                 1.3321
 Frc consts  --      1.4621                 1.4627                 1.6215
 IR Inten    --      2.3956                 2.5237                 4.7363

                     37                     38                     39
                      A                      A                      A
 Frequencies --   1488.6106              1490.5481              1504.3817
 Red. masses --      1.0501                 1.0485                 1.0480
 Frc consts  --      1.3710                 1.3725                 1.3974
 IR Inten    --      2.1126                 2.2313                 5.6244

                     40                     41                     42
                      A                      A                      A
 Frequencies --   1517.3044              1911.1118              3040.2969
 Red. masses --      1.0571                12.6686                 1.0481
 Frc consts  --      1.4338                27.2615                 5.7081
 IR Inten    --      2.9456               443.8712                 8.8540

                     43                     44                     45
                      A                      A                      A
 Frequencies --   3042.1241              3049.4367              3053.0399
 Red. masses --      1.0539                 1.0768                 1.0751
 Frc consts  --      5.7463                 5.8998                 5.9042
 IR Inten    --     29.4397                48.1936                 1.4686

                     46                     47                     48
                      A                      A                      A
 Frequencies --   3095.3546              3096.4062              3133.6770
 Red. masses --      1.1001                 1.1002                 1.0919
 Frc consts  --      6.2103                 6.2152                 6.3173
 IR Inten    --      9.6342                22.3403                31.4629

                     49                     50                     51
                      A                      A                      A
 Frequencies --   3150.0156              3153.3395              3178.7326
 Red. masses --      1.0967                 1.0915                 1.0895
 Frc consts  --      6.4117                 6.3947                 6.4861
 IR Inten    --     26.1035                13.0642                18.8406

 - Thermochemistry -
 -------------------
 Temperature   298.150 Kelvin.  Pressure   1.00000 Atm.
 Atom     1 has atomic number  6 and mass  12.00000

 Molecular mass:   126.06808 amu.
 Principal axes and moments of inertia in atomic units:
                           1         2         3
     Eigenvalues --   682.449831259.787751477.20426
           X            0.99995  -0.00004  -0.01048
           Y            0.00005   1.00000   0.00116
           Z            0.01048  -0.00116   0.99994
 This molecule is an asymmetric top.
 Rotational symmetry number  1.
 Warning -- assumption of classical behavior for rotation
           may cause significant error
 Rotational temperatures (Kelvin)      0.12692     0.06875     0.05863
 Rotational constants (GHZ):           2.64450     1.43258     1.22173
 Zero-point vibrational energy     419508.7 (Joules/Mol)
                                  100.26499 (Kcal/Mol)
 Warning -- explicit consideration of  10 degrees of freedom as
           vibrations may cause significant error
 Vibrational temperatures:    104.60   212.89   224.06   357.63   372.44
          (Kelvin)            428.60   454.56   677.15   683.11   806.58
                              937.09  1031.58  1102.08  1189.16  1195.06
                             1234.36  1308.83  1321.51  1435.87  1492.31
                             1515.67  1524.67  1577.91  1601.74  1623.85
                             1634.24  1666.30  1754.42  1772.11  1825.04
                             1841.14  1878.36  2006.49  2026.85  2049.53
                             2067.99  2141.78  2144.56  2164.47  2183.06
                             2749.66  4374.30  4376.93  4387.45  4392.64
                             4453.52  4455.03  4508.66  4532.16  4536.95
                             4573.48

 Zero-point correction=                           0.159782 (Hartree/Particle)
 Thermal correction to Energy=                    0.168133
 Thermal correction to Enthalpy=                  0.169078
 Thermal correction to Gibbs Free Energy=         0.126722
 Sum of electronic and zero-point Energies=           -423.040558
 Sum of electronic and thermal Energies=              -423.032206
 Sum of electronic and thermal Enthalpies=            -423.031262
 Sum of electronic and thermal Free Energies=         -423.073618

                     E (Thermal)             CV                S
                      KCal/Mol        Cal/Mol-Kelvin    Cal/Mol-Kelvin
 Total                  105.505             31.677             89.145
 Electronic               0.000              0.000              0.000
 Translational            0.889              2.981             40.409
 Rotational               0.889              2.981             28.631
 Vibrational            103.728             25.715             20.106
 Vibration     1          0.599              1.967              4.079
 Vibration     2          0.617              1.905              2.698
 Vibration     3          0.620              1.896              2.601
 Vibration     4          0.662              1.765              1.741
 Vibration     5          0.668              1.748              1.669
 Vibration     6          0.691              1.678              1.429
 Vibration     7          0.703              1.643              1.331
 Vibration     8          0.828              1.315              0.736
 Vibration     9          0.832              1.306              0.724
 Vibration    10          0.916              1.117              0.523

 Optimization completed.
    -- Stationary point found.
 Normal termination of Gaussian 09 at Mon Jan 27 23:40:25 2020.
