 Gaussian 09, Revision D.01,
 Gaussian 09:  ES64L-G09RevD.01 24-Apr-2013

 -----------------------------
 # b3lyp 6-31G(2df,p) opt Freq
 -----------------------------

 -----
 titel
 -----
 Symbolic Z-matrix:
 Charge =  0 Multiplicity = 1

 SCF Done:  E(RB3LYP) =  -423.181076609     A.U. after   14 cycles
 Optimization completed.
    -- Stationary point found.
 Normal termination of Gaussian 09 at Mon Jan 27 16:17:07 2020.

 ----------------------------------------------------------------------
 #N Geom=AllCheck Guess=TCheck SCRF=Check GenChk RB3LYP/6-31G(2df,p) Fr
 eq
 ----------------------------------------------------------------------

 Structure from the checkpoint file:  "/scratch/puck/g09_cc3c7020-3fa2-4524-8ff7-b5deb17597fe/Gau-176491.chk"
 -----
 titel
 -----
 Charge =  0 Multiplicity = 1

                         Standard orientation:
 ---------------------------------------------------------------------
 Center     Atomic      Atomic             Coordinates (Angstroms)
 Number     Number       Type             X           Y           Z
 ---------------------------------------------------------------------
      1          6           0        2.385408   -0.458838   -0.622760
      2          6           0        1.071499   -0.150822    0.081321
      3          8           0        0.865752   -1.006909    1.191131
      4          6           0        0.864810    1.327326    0.519011
      5          6           0       -0.412618    1.429474   -0.347454
      6          6           0       -1.720660    0.952042    0.351021
      7          6           0       -1.469762   -0.458583   -0.214193
      8          8           0       -2.079458   -1.488684   -0.182598
      9          6           0       -0.168829   -0.030076   -0.892836
     10          1           0        2.560379    0.226223   -1.458083
     11          1           0        3.216969   -0.370364    0.083726
     12          1           0        2.380122   -1.480070   -1.022640
     13          1           0        0.760848   -1.909114    0.866536
     14          1           0        0.730030    1.456556    1.595365
     15          1           0        1.673277    1.980934    0.182627
     16          1           0       -0.509497    2.288661   -1.008802
     17          1           0       -1.758345    1.024419    1.441690
     18          1           0       -2.635071    1.394389   -0.058415
     19          1           0       -0.008151   -0.310037   -1.934926
 ---------------------------------------------------------------------

 SCF Done:  E(RB3LYP) =  -423.181076609     A.U. after    1 cycles

 The electronic state is 1-A.
 Alpha  occ. eigenvalues --  -19.14333 -19.13238 -10.26582 -10.25132 -10.19973
 Alpha  occ. eigenvalues --  -10.18943 -10.18866 -10.18548 -10.18409  -1.04229
 Alpha  occ. eigenvalues --   -1.02747  -0.87257  -0.76670  -0.70857  -0.67677
 Alpha  occ. eigenvalues --   -0.61018  -0.56103  -0.53072  -0.50522  -0.47774
 Alpha  occ. eigenvalues --   -0.45931  -0.44698  -0.42273  -0.41691  -0.40932
 Alpha  occ. eigenvalues --   -0.40078  -0.37873  -0.36613  -0.33885  -0.32258
 Alpha  occ. eigenvalues --   -0.32093  -0.30051  -0.26736  -0.23654
 Alpha virt. eigenvalues --   -0.01868   0.07091   0.09020   0.10112   0.11915
 Alpha virt. eigenvalues --    0.12504   0.14321   0.14965   0.15894   0.16017
 Alpha virt. eigenvalues --    0.17163   0.17640   0.20021   0.20943   0.22955

 Mulliken charges:
               1
     1  C   -0.448933
     2  C    0.407759
     3  O   -0.462109
     4  C   -0.261812
     5  C   -0.026606
     6  C   -0.361797
     7  C    0.437617
     8  O   -0.313989
     9  C   -0.247257
    10  H    0.118270
    11  H    0.128051
    12  H    0.113297
    13  H    0.284863
    14  H    0.111766
    15  H    0.102258
    16  H    0.076604
    17  H    0.132113
    18  H    0.130453
    19  H    0.079453
 Sum of Mulliken charges =   0.00000

 Dipole moment (field-independent basis, Debye):
    X=              1.7724    Y=              1.7817    Z=             -1.1733  Tot=              2.7735
 Quadrupole moment (field-independent basis, Debye-Ang):
   XX=            -55.9164   YY=            -52.5902   ZZ=            -53.9189
   XY=             -5.8377   XZ=             -1.5322   YZ=              0.0659

  Exact polarizability:  84.034   0.483  77.350  -2.533   1.948  65.191
 Approx polarizability: 111.657   7.040 119.496  -2.096   1.678 101.103

                      1                      2                      3
                      A                      A                      A
 Frequencies --     59.3714               107.9554               223.1830
 Red. masses --      3.1510                 5.1096                 2.8605
 Frc consts  --      0.0065                 0.0351                 0.0839
 IR Inten    --      3.1767                 7.6321                 0.1178

                      4                      5                      6
                      A                      A                      A
 Frequencies --    262.1564               304.5032               314.1219
 Red. masses --      1.0405                 1.5412                 1.7239
 Frc consts  --      0.0421                 0.0842                 0.1002
 IR Inten    --      0.2600                40.1318                60.5999

                      7                      8                      9
                      A                      A                      A
 Frequencies --    388.6490               406.0320               417.9524
 Red. masses --      3.3748                 1.9742                 3.3052
 Frc consts  --      0.3003                 0.1918                 0.3402
 IR Inten    --     14.7962                 2.3120                 8.8151

                     10                     11                     12
                      A                      A                      A
 Frequencies --    461.3706               543.0101               575.0860
 Red. masses --      3.1741                 2.4295                 4.2219
 Frc consts  --      0.3981                 0.4221                 0.8227
 IR Inten    --      6.7589                 1.5795                 1.6151

                     13                     14                     15
                      A                      A                      A
 Frequencies --    686.5228               763.2818               805.8686
 Red. masses --      3.5339                 2.6922                 2.2935
 Frc consts  --      0.9813                 0.9241                 0.8776
 IR Inten    --      1.5951                 0.9207                 1.7493

                     16                     17                     18
                      A                      A                      A
 Frequencies --    827.7333               882.6292               897.4260
 Red. masses --      1.9463                 2.3319                 1.8959
 Frc consts  --      0.7857                 1.0703                 0.8996
 IR Inten    --      2.0665                 1.6767                 1.1041

                     19                     20                     21
                      A                      A                      A
 Frequencies --    939.1611               952.4534               964.3288
 Red. masses --      3.5537                 1.9202                 1.8966
 Frc consts  --      1.8468                 1.0263                 1.0391
 IR Inten    --      2.1420                13.9798                18.6991

                     22                     23                     24
                      A                      A                      A
 Frequencies --   1016.4293              1054.2260              1070.0892
 Red. masses --      2.2530                 1.2979                 3.1852
 Frc consts  --      1.3714                 0.8499                 2.1489
 IR Inten    --      5.9810                20.2957                59.0547

                     25                     26                     27
                      A                      A                      A
 Frequencies --   1096.0621              1136.5209              1141.2828
 Red. masses --      1.8502                 1.9181                 1.4596
 Frc consts  --      1.3096                 1.4597                 1.1201
 IR Inten    --      9.5075                10.7812                42.3765

                     28                     29                     30
                      A                      A                      A
 Frequencies --   1150.3929              1196.7768              1234.3212
 Red. masses --      1.5839                 1.7562                 1.8348
 Frc consts  --      1.2350                 1.4820                 1.6470
 IR Inten    --      5.9699                39.9874                 6.6078

                     31                     32                     33
                      A                      A                      A
 Frequencies --   1235.5752              1267.6328              1287.5533
 Red. masses --      1.5967                 2.0134                 1.8888
 Frc consts  --      1.4362                 1.9062                 1.8449
 IR Inten    --     10.0395                34.8503                17.0431

                     34                     35                     36
                      A                      A                      A
 Frequencies --   1304.8650              1370.3997              1404.6722
 Red. masses --      1.4478                 1.7220                 1.2788
 Frc consts  --      1.4524                 1.9054                 1.4867
 IR Inten    --     11.0627                27.4816                 6.9467

                     37                     38                     39
                      A                      A                      A
 Frequencies --   1429.4610              1475.9789              1489.0896
 Red. masses --      1.1026                 1.0942                 1.0578
 Frc consts  --      1.3274                 1.4045                 1.3820
 IR Inten    --      6.8152                 5.0492                 3.6403

                     40                     41                     42
                      A                      A                      A
 Frequencies --   1489.6860              1882.8070              3024.5610
 Red. masses --      1.0671                12.6623                 1.0360
 Frc consts  --      1.3952                26.4468                 5.5839
 IR Inten    --      0.9845               279.4627                18.5647

                     43                     44                     45
                      A                      A                      A
 Frequencies --   3051.7272              3064.5896              3093.5528
 Red. masses --      1.0594                 1.0587                 1.0994
 Frc consts  --      5.8132                 5.8584                 6.1990
 IR Inten    --     11.1887                24.6827                23.4277

                     46                     47                     48
                      A                      A                      A
 Frequencies --   3102.7441              3106.9857              3111.5947
 Red. masses --      1.0929                 1.1007                 1.1012
 Frc consts  --      6.1992                 6.2603                 6.2818
 IR Inten    --     15.9551                 3.5188                16.0066

                     49                     50                     51
                      A                      A                      A
 Frequencies --   3117.9525              3128.3340              3792.7297
 Red. masses --      1.1038                 1.0947                 1.0658
 Frc consts  --      6.3225                 6.3122                 9.0334
 IR Inten    --      5.4384                42.2678                20.3148

 - Thermochemistry -
 -------------------
 Temperature   298.150 Kelvin.  Pressure   1.00000 Atm.
 Atom     1 has atomic number  6 and mass  12.00000

 Molecular mass:   126.06808 amu.
 Principal axes and moments of inertia in atomic units:
                           1         2         3
     Eigenvalues --   682.348001181.299741453.12577
           X            0.99822  -0.05311  -0.02707
           Y            0.05383   0.99820   0.02629
           Z            0.02563  -0.02770   0.99929
 This molecule is an asymmetric top.
 Rotational symmetry number  1.
 Warning -- assumption of classical behavior for rotation
           may cause significant error
 Rotational temperatures (Kelvin)      0.12693     0.07332     0.05961
 Rotational constants (GHZ):           2.64490     1.52776     1.24197
 Zero-point vibrational energy     413377.9 (Joules/Mol)
                                   98.79969 (Kcal/Mol)
 Warning -- explicit consideration of  12 degrees of freedom as
           vibrations may cause significant error
 Vibrational temperatures:     85.42   155.32   321.11   377.18   438.11
          (Kelvin)            451.95   559.18   584.19   601.34   663.81
                              781.27   827.42   987.75  1098.19  1159.46
                             1190.92  1269.90  1291.19  1351.24  1370.37
                             1387.45  1462.41  1516.79  1539.62  1576.99
                             1635.20  1642.05  1655.16  1721.89  1775.91
                             1777.71  1823.84  1852.50  1877.41  1971.70
                             2021.01  2056.67  2123.60  2142.47  2143.32
                             2708.94  4351.66  4390.75  4409.26  4450.93
                             4464.15  4470.25  4476.89  4486.03  4500.97
                             5456.89

 Zero-point correction=                           0.157447 (Hartree/Particle)
 Thermal correction to Energy=                    0.166068
 Thermal correction to Enthalpy=                  0.167012
 Thermal correction to Gibbs Free Energy=         0.124229
 Sum of electronic and zero-point Energies=           -423.023629
 Sum of electronic and thermal Energies=              -423.015008
 Sum of electronic and thermal Enthalpies=            -423.014064
 Sum of electronic and thermal Free Energies=         -423.056848

                     E (Thermal)             CV                S
                      KCal/Mol        Cal/Mol-Kelvin    Cal/Mol-Kelvin
 Total                  104.209             33.458             90.045
 Electronic               0.000              0.000              0.000
 Translational            0.889              2.981             40.409
 Rotational               0.889              2.981             28.551
 Vibrational            102.432             27.496             21.086
 Vibration     1          0.597              1.974              4.478
 Vibration     2          0.606              1.943              3.305
 Vibration     3          0.649              1.806              1.933
 Vibration     4          0.669              1.742              1.647
 Vibration     5          0.695              1.665              1.392
 Vibration     6          0.702              1.647              1.341
 Vibration     7          0.757              1.494              1.005
 Vibration     8          0.771              1.457              0.941
 Vibration     9          0.781              1.431              0.899
 Vibration    10          0.819              1.336              0.762
 Vibration    11          0.898              1.155              0.559
 Vibration    12          0.931              1.085              0.495

 Optimization completed.
    -- Stationary point found.
 Normal termination of Gaussian 09 at Mon Jan 27 17:00:07 2020.
