 Gaussian 09, Revision D.01,
 Gaussian 09:  ES64L-G09RevD.01 24-Apr-2013

 -----------------------------
 # b3lyp 6-31G(2df,p) opt Freq
 -----------------------------

 -----
 titel
 -----
 Symbolic Z-matrix:
 Charge =  0 Multiplicity = 1

 SCF Done:  E(RB3LYP) =  -423.128209014     A.U. after   13 cycles
 Optimization completed.
    -- Stationary point found.
 Normal termination of Gaussian 09 at Tue Jan 28 02:52:48 2020.

 ----------------------------------------------------------------------
 #N Geom=AllCheck Guess=TCheck SCRF=Check GenChk RB3LYP/6-31G(2df,p) Fr
 eq
 ----------------------------------------------------------------------

 Structure from the checkpoint file:  "/scratch/puck/g09_145d5e8b-afb2-4cae-bf75-e148c2998410/Gau-105046.chk"
 -----
 titel
 -----
 Charge =  0 Multiplicity = 1

                         Standard orientation:
 ---------------------------------------------------------------------
 Center     Atomic      Atomic             Coordinates (Angstroms)
 Number     Number       Type             X           Y           Z
 ---------------------------------------------------------------------
      1          8           0        3.003900   -0.054467   -0.034379
      2          6           0        1.659647   -0.008804   -0.461108
      3          6           0        0.978217    1.291156    0.047692
      4          6           0       -0.042433    0.455368    0.864588
      5          6           0        0.655370   -0.848765    0.382014
      6          8           0       -0.502932   -1.242163   -0.383184
      7          6           0       -1.221511   -0.083292    0.066283
      8          6           0       -2.221599    0.608424   -0.797350
      9          6           0       -2.663286   -0.168402    0.439400
     10          1           0        3.376090   -0.899084   -0.309665
     11          1           0        1.555264   -0.205553   -1.536155
     12          1           0        1.670926    1.848764    0.681427
     13          1           0        0.561450    1.958653   -0.709560
     14          1           0       -0.220327    0.721095    1.905589
     15          1           0        1.049815   -1.647175    1.016429
     16          1           0       -2.268812    1.692676   -0.776838
     17          1           0       -2.430472    0.162826   -1.764002
     18          1           0       -3.009977    0.387042    1.305133
     19          1           0       -3.158131   -1.120309    0.279032
 ---------------------------------------------------------------------

 SCF Done:  E(RB3LYP) =  -423.128209014     A.U. after    1 cycles

 The electronic state is 1-A.
 Alpha  occ. eigenvalues --  -19.14079 -19.13593 -10.23923 -10.22939 -10.22876
 Alpha  occ. eigenvalues --  -10.19140 -10.18331 -10.18281 -10.18131  -1.04622
 Alpha  occ. eigenvalues --   -1.02102  -0.84568  -0.81697  -0.67534  -0.64984
 Alpha  occ. eigenvalues --   -0.60448  -0.58077  -0.52711  -0.51366  -0.50548
 Alpha  occ. eigenvalues --   -0.48663  -0.46364  -0.42612  -0.40695  -0.39099
 Alpha  occ. eigenvalues --   -0.37278  -0.36010  -0.35474  -0.34088  -0.30874
 Alpha  occ. eigenvalues --   -0.29175  -0.28775  -0.26464  -0.22348
 Alpha virt. eigenvalues --    0.06660   0.07915   0.09943   0.10935   0.11913
 Alpha virt. eigenvalues --    0.12904   0.13845   0.14622   0.16777   0.17765
 Alpha virt. eigenvalues --    0.18272   0.18820   0.20183   0.21094   0.23007

 Mulliken charges:
               1
     1  O   -0.430441
     2  C    0.114904
     3  C   -0.253403
     4  C   -0.180738
     5  C    0.059623
     6  O   -0.321365
     7  C    0.472752
     8  C   -0.335515
     9  C   -0.343514
    10  H    0.283787
    11  H    0.075692
    12  H    0.118772
    13  H    0.103437
    14  H    0.080571
    15  H    0.076369
    16  H    0.115768
    17  H    0.124674
    18  H    0.114183
    19  H    0.124446
 Sum of Mulliken charges =   0.00000

 Dipole moment (field-independent basis, Debye):
    X=             -0.0821    Y=              0.1394    Z=              0.2551  Tot=              0.3021
 Quadrupole moment (field-independent basis, Debye-Ang):
   XX=            -53.2059   YY=            -52.3948   ZZ=            -51.9381
   XY=             -5.4717   XZ=             -1.9911   YZ=             -0.0740

  Exact polarizability:  90.771  -2.461  69.524  -0.037  -1.105  66.104
 Approx polarizability: 114.549  -3.503 105.194   1.045   0.105 100.319

                      1                      2                      3
                      A                      A                      A
 Frequencies --     57.7303               154.4109               221.3244
 Red. masses --      3.8173                 3.2506                 2.3273
 Frc consts  --      0.0075                 0.0457                 0.0672
 IR Inten    --      0.6911                 0.5725                 1.1309

                      4                      5                      6
                      A                      A                      A
 Frequencies --    269.9051               318.0512               338.9989
 Red. masses --      2.2850                 1.6834                 2.0944
 Frc consts  --      0.0981                 0.1003                 0.1418
 IR Inten    --      6.7302                46.7745                66.5847

                      7                      8                      9
                      A                      A                      A
 Frequencies --    376.9570               417.0768               517.7971
 Red. masses --      3.3565                 3.3177                 2.5825
 Frc consts  --      0.2810                 0.3400                 0.4080
 IR Inten    --      3.8558                 9.2403                 2.1854

                     10                     11                     12
                      A                      A                      A
 Frequencies --    585.3738               707.9354               755.3599
 Red. masses --      4.2996                 3.2582                 1.0580
 Frc consts  --      0.8680                 0.9621                 0.3557
 IR Inten    --      3.9367                 1.3853                 2.0386

                     13                     14                     15
                      A                      A                      A
 Frequencies --    823.7995               836.2747               866.0627
 Red. masses --      1.8768                 1.8764                 1.3808
 Frc consts  --      0.7504                 0.7732                 0.6102
 IR Inten    --      2.2225                 7.2936                 2.5437

                     16                     17                     18
                      A                      A                      A
 Frequencies --    884.5467               896.8487               940.9780
 Red. masses --      2.4269                 2.8718                 2.5936
 Frc consts  --      1.1188                 1.3609                 1.3530
 IR Inten    --      2.3100                21.9838                15.7021

                     19                     20                     21
                      A                      A                      A
 Frequencies --    961.4264               987.4155               995.0036
 Red. masses --      2.0367                 2.8166                 2.8584
 Frc consts  --      1.1092                 1.6180                 1.6674
 IR Inten    --      0.7162                15.4654                 7.4958

                     22                     23                     24
                      A                      A                      A
 Frequencies --   1020.6703              1040.3733              1045.9020
 Red. masses --      3.9002                 2.9194                 1.5404
 Frc consts  --      2.3939                 1.8618                 0.9928
 IR Inten    --    104.7164                 7.4961                40.1230

                     25                     26                     27
                      A                      A                      A
 Frequencies --   1066.5670              1117.9864              1150.6965
 Red. masses --      1.4983                 2.5789                 1.5044
 Frc consts  --      1.0042                 1.8991                 1.1736
 IR Inten    --      0.0246                65.5236                 4.4139

                     28                     29                     30
                      A                      A                      A
 Frequencies --   1171.3461              1186.8433              1192.0061
 Red. masses --      1.9123                 1.2656                 1.5461
 Frc consts  --      1.5459                 1.0503                 1.2944
 IR Inten    --      8.4803                 0.2229                 4.2424

                     31                     32                     33
                      A                      A                      A
 Frequencies --   1218.7863              1244.6802              1269.1865
 Red. masses --      1.6476                 1.3703                 1.4150
 Frc consts  --      1.4420                 1.2508                 1.3429
 IR Inten    --     52.2270                 8.4412                13.4993

                     34                     35                     36
                      A                      A                      A
 Frequencies --   1275.5869              1283.9495              1320.0915
 Red. masses --      1.4116                 1.7087                 1.6965
 Frc consts  --      1.3533                 1.6596                 1.7418
 IR Inten    --     11.4099                 8.5554                33.4707

                     37                     38                     39
                      A                      A                      A
 Frequencies --   1388.6272              1418.2277              1448.1754
 Red. masses --      2.0021                 1.4944                 1.0905
 Frc consts  --      2.2746                 1.7709                 1.3475
 IR Inten    --     13.9930                 6.3123                 1.6909

                     40                     41                     42
                      A                      A                      A
 Frequencies --   1465.6858              1499.7957              3017.5134
 Red. masses --      1.1225                 1.7954                 1.0857
 Frc consts  --      1.4208                 2.3794                 5.8246
 IR Inten    --      5.7660                21.9587                42.8266

                     43                     44                     45
                      A                      A                      A
 Frequencies --   3069.8504              3074.3802              3118.5704
 Red. masses --      1.0612                 1.0864                 1.0927
 Frc consts  --      5.8924                 6.0501                 6.2612
 IR Inten    --     40.0386                38.5215                15.5422

                     46                     47                     48
                      A                      A                      A
 Frequencies --   3125.9390              3128.6530              3131.4589
 Red. masses --      1.0509                 1.0579                 1.1057
 Frc consts  --      6.0504                 6.1012                 6.3880
 IR Inten    --     13.1440                 4.2537                23.0731

                     49                     50                     51
                      A                      A                      A
 Frequencies --   3209.4996              3223.5524              3808.0226
 Red. masses --      1.1179                 1.1151                 1.0659
 Frc consts  --      6.7846                 6.8271                 9.1072
 IR Inten    --      0.1570                 9.6857                22.5103

 - Thermochemistry -
 -------------------
 Temperature   298.150 Kelvin.  Pressure   1.00000 Atm.
 Atom     1 has atomic number  8 and mass  15.99491

 Molecular mass:   126.06808 amu.
 Principal axes and moments of inertia in atomic units:
                           1         2         3
     Eigenvalues --   413.358931600.384671732.95322
           X            0.99996  -0.00897  -0.00191
           Y            0.00890   0.99942  -0.03301
           Z            0.00220   0.03299   0.99945
 This molecule is an asymmetric top.
 Rotational symmetry number  1.
 Rotational temperatures (Kelvin)      0.20954     0.05412     0.04998
 Rotational constants (GHZ):           4.36604     1.12769     1.04143
 Zero-point vibrational energy     416575.0 (Joules/Mol)
                                   99.56381 (Kcal/Mol)
 Warning -- explicit consideration of  10 degrees of freedom as
           vibrations may cause significant error
 Vibrational temperatures:     83.06   222.16   318.44   388.33   457.60
          (Kelvin)            487.74   542.36   600.08   744.99   842.22
                             1018.56  1086.79  1185.26  1203.21  1246.07
                             1272.66  1290.36  1353.86  1383.28  1420.67
                             1431.59  1468.52  1496.86  1504.82  1534.55
                             1608.53  1655.59  1685.30  1707.60  1715.03
                             1753.56  1790.81  1826.07  1835.28  1847.31
                             1899.31  1997.92  2040.51  2083.60  2108.79
                             2157.87  4341.52  4416.82  4423.34  4486.92
                             4497.52  4501.43  4505.47  4617.75  4637.97
                             5478.89

 Zero-point correction=                           0.158665 (Hartree/Particle)
 Thermal correction to Energy=                    0.166727
 Thermal correction to Enthalpy=                  0.167671
 Thermal correction to Gibbs Free Energy=         0.125946
 Sum of electronic and zero-point Energies=           -422.969544
 Sum of electronic and thermal Energies=              -422.961482
 Sum of electronic and thermal Enthalpies=            -422.960538
 Sum of electronic and thermal Free Energies=         -423.002263

                     E (Thermal)             CV                S
                      KCal/Mol        Cal/Mol-Kelvin    Cal/Mol-Kelvin
 Total                  104.623             31.727             87.818
 Electronic               0.000              0.000              0.000
 Translational            0.889              2.981             40.409
 Rotational               0.889              2.981             28.529
 Vibrational            102.845             25.765             18.880
 Vibration     1          0.596              1.974              4.533
 Vibration     2          0.620              1.898              2.617
 Vibration     3          0.648              1.809              1.948
 Vibration     4          0.674              1.729              1.597
 Vibration     5          0.704              1.639              1.320
 Vibration     6          0.719              1.598              1.217
 Vibration     7          0.748              1.519              1.051
 Vibration     8          0.780              1.433              0.902
 Vibration     9          0.873              1.211              0.615
 Vibration    10          0.942              1.063              0.476

 Normal termination of Gaussian 09 at Tue Jan 28 03:45:55 2020.
