 Gaussian 09, Revision D.01,
 Gaussian 09:  ES64L-G09RevD.01 24-Apr-2013

 -----------------------------
 # b3lyp 6-31G(2df,p) opt Freq
 -----------------------------

 -----
 titel
 -----
 Symbolic Z-matrix:
 Charge =  0 Multiplicity = 1

 SCF Done:  E(RB3LYP) =  -423.226746970     A.U. after   14 cycles
 Optimization completed.
    -- Stationary point found.
 Normal termination of Gaussian 09 at Mon Jan 27 17:11:03 2020.

 ----------------------------------------------------------------------
 #N Geom=AllCheck Guess=TCheck SCRF=Check GenChk RB3LYP/6-31G(2df,p) Fr
 eq
 ----------------------------------------------------------------------

 Structure from the checkpoint file:  "/scratch/puck/g09_2ba6175f-5692-47af-ac70-fa30c063155c/Gau-86257.chk"
 -----
 titel
 -----
 Charge =  0 Multiplicity = 1

                         Standard orientation:
 ---------------------------------------------------------------------
 Center     Atomic      Atomic             Coordinates (Angstroms)
 Number     Number       Type             X           Y           Z
 ---------------------------------------------------------------------
      1          6           0       -2.136790   -0.879871    0.000016
      2          6           0       -0.672007   -0.493203   -0.000012
      3          6           0        0.299994   -1.083933    1.072911
      4          6           0        1.407204   -0.934559   -0.000005
      5          6           0        0.300009   -1.083916   -1.072939
      6          6           0        1.899901    0.503418    0.000016
      7          8           0        0.814737    1.451795    0.000028
      8          6           0       -0.476217    1.018980   -0.000011
      9          8           0       -1.366274    1.823918   -0.000020
     10          1           0       -2.647678   -0.481446    0.880895
     11          1           0       -2.647947   -0.480637   -0.880334
     12          1           0       -2.239572   -1.969696   -0.000445
     13          1           0        0.416433   -0.547609    2.018961
     14          1           0        0.059336   -2.131245    1.272652
     15          1           0        2.250939   -1.628201   -0.000007
     16          1           0        0.416468   -0.547579   -2.018981
     17          1           0        0.059351   -2.131223   -1.272700
     18          1           0        2.506199    0.715203    0.888363
     19          1           0        2.506204    0.715230   -0.888320
 ---------------------------------------------------------------------

 SCF Done:  E(RB3LYP) =  -423.226746970     A.U. after    1 cycles

 The electronic state is 1-A.
 Alpha  occ. eigenvalues --  -19.17484 -19.11527 -10.29791 -10.24902 -10.21321
 Alpha  occ. eigenvalues --  -10.20994 -10.19959 -10.19959 -10.17735  -1.09087
 Alpha  occ. eigenvalues --   -1.01130  -0.87829  -0.76576  -0.71315  -0.67967
 Alpha  occ. eigenvalues --   -0.62647  -0.61174  -0.52434  -0.49822  -0.48840
 Alpha  occ. eigenvalues --   -0.48572  -0.44205  -0.43881  -0.41452  -0.41061
 Alpha  occ. eigenvalues --   -0.39666  -0.38960  -0.38236  -0.33787  -0.32236
 Alpha  occ. eigenvalues --   -0.32028  -0.31460  -0.28764  -0.25800
 Alpha virt. eigenvalues --    0.01865   0.07473   0.09128   0.10400   0.13358
 Alpha virt. eigenvalues --    0.13620   0.14317   0.14463   0.15835   0.16553
 Alpha virt. eigenvalues --    0.16841   0.17543   0.18348   0.20539   0.21175

 Mulliken charges:
               1
     1  C   -0.471935
     2  C    0.150872
     3  C   -0.261927
     4  C   -0.041991
     5  C   -0.261928
     6  C   -0.073406
     7  O   -0.242783
     8  C    0.427816
     9  O   -0.340821
    10  H    0.133473
    11  H    0.133496
    12  H    0.104659
    13  H    0.109261
    14  H    0.106411
    15  H    0.076782
    16  H    0.109261
    17  H    0.106411
    18  H    0.118176
    19  H    0.118175
 Sum of Mulliken charges =   0.00000

 Dipole moment (field-independent basis, Debye):
    X=              2.3211    Y=             -3.6437    Z=              0.0000  Tot=              4.3202
 Quadrupole moment (field-independent basis, Debye-Ang):
   XX=            -52.3674   YY=            -59.4217   ZZ=            -51.3365
   XY=              3.4679   XZ=             -0.0001   YZ=             -0.0001

  Exact polarizability:  86.064  -1.810  73.499   0.000   0.000  64.872
 Approx polarizability: 122.333  -8.532 110.056   0.000   0.000  98.681

                      1                      2                      3
                      A                      A                      A
 Frequencies --    122.3829               188.1030               208.5260
 Red. masses --      6.2680                 1.7681                 1.2913
 Frc consts  --      0.0553                 0.0369                 0.0331
 IR Inten    --      0.4428                 2.1787                 0.8567

                      4                      5                      6
                      A                      A                      A
 Frequencies --    278.3685               318.2546               378.3461
 Red. masses --      2.8616                 2.7272                 1.8362
 Frc consts  --      0.1306                 0.1627                 0.1549
 IR Inten    --      4.1669                 0.5300                 0.0612

                      7                      8                      9
                      A                      A                      A
 Frequencies --    394.9467               454.2551               493.4397
 Red. masses --      2.3612                 4.5834                 5.6299
 Frc consts  --      0.2170                 0.5572                 0.8076
 IR Inten    --      0.8542                 3.2142                 2.6477

                     10                     11                     12
                      A                      A                      A
 Frequencies --    617.3132               659.7313               750.1576
 Red. masses --      3.7431                 4.2914                 5.7217
 Frc consts  --      0.8404                 1.1005                 1.8971
 IR Inten    --      2.5125                 1.2259                 4.7682

                     13                     14                     15
                      A                      A                      A
 Frequencies --    795.1832               849.9363               853.0462
 Red. masses --      3.2797                 1.7667                 2.7298
 Frc consts  --      1.2219                 0.7520                 1.1704
 IR Inten    --      1.4680                 0.4609                 1.2870

                     16                     17                     18
                      A                      A                      A
 Frequencies --    883.8507               924.3352               932.0232
 Red. masses --      2.4166                 3.1389                 1.5056
 Frc consts  --      1.1123                 1.5801                 0.7706
 IR Inten    --      1.1851                 6.3903                 0.2258

                     19                     20                     21
                      A                      A                      A
 Frequencies --    994.0888              1017.7356              1038.7868
 Red. masses --      2.3092                 1.5605                 1.3024
 Frc consts  --      1.3445                 0.9523                 0.8280
 IR Inten    --     19.5228                 2.3749                 0.0053

                     22                     23                     24
                      A                      A                      A
 Frequencies --   1051.4450              1103.7940              1109.2989
 Red. masses --      2.2360                 1.9507                 1.1801
 Frc consts  --      1.4565                 1.4003                 0.8556
 IR Inten    --     44.3417               111.6080                 0.0028

                     25                     26                     27
                      A                      A                      A
 Frequencies --   1132.0438              1165.7569              1207.5572
 Red. masses --      2.0804                 3.0100                 1.5035
 Frc consts  --      1.5708                 2.4101                 1.2917
 IR Inten    --      1.2477               127.9758                 0.6707

                     28                     29                     30
                      A                      A                      A
 Frequencies --   1226.1572              1235.9949              1273.1036
 Red. masses --      2.5537                 1.2693                 2.0862
 Frc consts  --      2.2621                 1.1425                 1.9922
 IR Inten    --      8.7490                 0.8737                12.7194

                     31                     32                     33
                      A                      A                      A
 Frequencies --   1294.1760              1333.0493              1352.4986
 Red. masses --      1.3637                 2.6214                 1.8526
 Frc consts  --      1.3457                 2.7446                 1.9967
 IR Inten    --      0.0422                14.2525                 0.6998

                     34                     35                     36
                      A                      A                      A
 Frequencies --   1416.3559              1420.3257              1481.0119
 Red. masses --      1.2746                 1.4526                 1.0885
 Frc consts  --      1.5065                 1.7266                 1.4066
 IR Inten    --     12.2038                12.4407                 1.8636

                     37                     38                     39
                      A                      A                      A
 Frequencies --   1484.5314              1488.7111              1509.8039
 Red. masses --      1.0460                 1.0537                 1.1303
 Frc consts  --      1.3582                 1.3759                 1.5181
 IR Inten    --      4.0393                 4.7189                 9.5267

                     40                     41                     42
                      A                      A                      A
 Frequencies --   1518.1226              1846.1679              3030.2308
 Red. masses --      1.1000                12.7462                 1.0572
 Frc consts  --      1.4936                25.5961                 5.7194
 IR Inten    --      0.0130               330.8007                48.2099

                     43                     44                     45
                      A                      A                      A
 Frequencies --   3041.1049              3051.2748              3055.3098
 Red. masses --      1.0365                 1.0562                 1.0580
 Frc consts  --      5.6481                 5.7936                 5.8190
 IR Inten    --     16.3827                48.2213                 9.1574

                     46                     47                     48
                      A                      A                      A
 Frequencies --   3071.3239              3087.7371              3110.1597
 Red. masses --      1.1088                 1.0883                 1.1099
 Frc consts  --      6.1625                 6.1131                 6.3258
 IR Inten    --     26.3457                44.5216                10.1775

                     49                     50                     51
                      A                      A                      A
 Frequencies --   3110.1772              3114.4827              3120.7407
 Red. masses --      1.1058                 1.1035                 1.1011
 Frc consts  --      6.3020                 6.3068                 6.3182
 IR Inten    --      5.9431                44.7967                11.5067

 - Thermochemistry -
 -------------------
 Temperature   298.150 Kelvin.  Pressure   1.00000 Atm.
 Atom     1 has atomic number  6 and mass  12.00000

 Molecular mass:   126.06808 amu.
 Principal axes and moments of inertia in atomic units:
                           1         2         3
     Eigenvalues --   756.84353 903.937401358.93438
           X            0.98883   0.14903   0.00000
           Y           -0.14903   0.98883   0.00000
           Z            0.00000   0.00000   1.00000
 This molecule is an asymmetric top.
 Rotational symmetry number  1.
 Warning -- assumption of classical behavior for rotation
           may cause significant error
 Rotational temperatures (Kelvin)      0.11444     0.09582     0.06374
 Rotational constants (GHZ):           2.38456     1.99653     1.32806
 Zero-point vibrational energy     422253.4 (Joules/Mol)
                                  100.92099 (Kcal/Mol)
 Warning -- explicit consideration of  10 degrees of freedom as
           vibrations may cause significant error
 Vibrational temperatures:    176.08   270.64   300.02   400.51   457.90
          (Kelvin)            544.36   568.24   653.57   709.95   888.17
                              949.21  1079.31  1144.09  1222.87  1227.34
                             1271.66  1329.91  1340.97  1430.27  1464.29
                             1494.58  1512.79  1588.11  1596.03  1628.76
                             1677.26  1737.40  1764.16  1778.32  1831.71
                             1862.03  1917.96  1945.94  2037.82  2043.53
                             2130.84  2135.91  2141.92  2172.27  2184.24
                             2656.22  4359.82  4375.47  4390.10  4395.90
                             4418.94  4442.56  4474.82  4474.85  4481.04
                             4490.04

 Zero-point correction=                           0.160828 (Hartree/Particle)
 Thermal correction to Energy=                    0.168551
 Thermal correction to Enthalpy=                  0.169495
 Thermal correction to Gibbs Free Energy=         0.128968
 Sum of electronic and zero-point Energies=           -423.065919
 Sum of electronic and thermal Energies=              -423.058196
 Sum of electronic and thermal Enthalpies=            -423.057252
 Sum of electronic and thermal Free Energies=         -423.097779

                     E (Thermal)             CV                S
                      KCal/Mol        Cal/Mol-Kelvin    Cal/Mol-Kelvin
 Total                  105.767             30.603             85.297
 Electronic               0.000              0.000              0.000
 Translational            0.889              2.981             40.409
 Rotational               0.889              2.981             28.321
 Vibrational            103.990             24.641             16.567
 Vibration     1          0.610              1.930              3.062
 Vibration     2          0.633              1.856              2.246
 Vibration     3          0.642              1.828              2.057
 Vibration     4          0.679              1.714              1.544
 Vibration     5          0.705              1.639              1.319
 Vibration     6          0.749              1.516              1.046
 Vibration     7          0.762              1.481              0.981
 Vibration     8          0.813              1.351              0.783
 Vibration     9          0.849              1.265              0.675
 Vibration    10          0.977              0.995              0.421

 Optimization completed.
    -- Stationary point found.
 Normal termination of Gaussian 09 at Mon Jan 27 17:57:25 2020.
