 Gaussian 09, Revision D.01,
 Gaussian 09:  ES64L-G09RevD.01 24-Apr-2013

 -----------------------------
 # b3lyp 6-31G(2df,p) opt Freq
 -----------------------------

 -----
 titel
 -----
 Symbolic Z-matrix:
 Charge =  0 Multiplicity = 1

 SCF Done:  E(RB3LYP) =  -423.159059512     A.U. after   14 cycles
 Optimization completed.
    -- Stationary point found.
 Normal termination of Gaussian 09 at Tue Jan 28 02:58:29 2020.

 ----------------------------------------------------------------------
 #N Geom=AllCheck Guess=TCheck SCRF=Check GenChk RB3LYP/6-31G(2df,p) Fr
 eq
 ----------------------------------------------------------------------

 Structure from the checkpoint file:  "/scratch/puck/g09_20db5895-3f52-424f-9687-460c6ec27130/Gau-44414.chk"
 -----
 titel
 -----
 Charge =  0 Multiplicity = 1

                         Standard orientation:
 ---------------------------------------------------------------------
 Center     Atomic      Atomic             Coordinates (Angstroms)
 Number     Number       Type             X           Y           Z
 ---------------------------------------------------------------------
      1          6           0        3.007952   -0.843333    0.429155
      2          6           0        2.006350   -0.056427   -0.406369
      3          6           0        0.674885   -0.827722   -0.735729
      4          6           0       -0.089527    0.224154    0.088443
      5          6           0       -1.385525    0.081405    0.830907
      6          6           0       -2.576554    0.029419   -0.113191
      7          8           0       -3.440411   -0.807027   -0.072092
      8          8           0        0.186704    1.498416   -0.521631
      9          6           0        1.156268    0.955190    0.383682
     10          1           0        3.431766   -1.671621   -0.147524
     11          1           0        3.835713   -0.206506    0.759741
     12          1           0        2.535350   -1.266713    1.323015
     13          1           0        2.492170    0.393692   -1.276998
     14          1           0        0.383545   -0.897252   -1.786400
     15          1           0        0.656542   -1.823376   -0.283987
     16          1           0       -1.395161   -0.815525    1.456848
     17          1           0       -1.514132    0.963072    1.473116
     18          1           0       -2.596412    0.849508   -0.864338
     19          1           0        1.437185    1.567492    1.234928
 ---------------------------------------------------------------------

 SCF Done:  E(RB3LYP) =  -423.159059513     A.U. after    1 cycles

 The electronic state is 1-A.
 Alpha  occ. eigenvalues --  -19.15587 -19.14314 -10.27515 -10.25171 -10.24017
 Alpha  occ. eigenvalues --  -10.20519 -10.20150 -10.19340 -10.18670  -1.08278
 Alpha  occ. eigenvalues --   -1.04982  -0.82070  -0.78144  -0.71404  -0.65510
 Alpha  occ. eigenvalues --   -0.61493  -0.57416  -0.55265  -0.50964  -0.48057
 Alpha  occ. eigenvalues --   -0.46709  -0.45278  -0.44450  -0.42912  -0.40656
 Alpha  occ. eigenvalues --   -0.39884  -0.38650  -0.37385  -0.35081  -0.34589
 Alpha  occ. eigenvalues --   -0.32666  -0.29881  -0.26485  -0.24695
 Alpha virt. eigenvalues --   -0.02693   0.08505   0.09287   0.10672   0.11513
 Alpha virt. eigenvalues --    0.11910   0.13252   0.13499   0.14937   0.15546
 Alpha virt. eigenvalues --    0.16272   0.17274   0.17769   0.19197   0.20582

 Mulliken charges:
               1
     1  C   -0.409961
     2  C    0.010855
     3  C   -0.313407
     4  C    0.408322
     5  C   -0.394150
     6  C    0.157988
     7  O   -0.235695
     8  O   -0.293580
     9  C   -0.055686
    10  H    0.124587
    11  H    0.119666
    12  H    0.115558
    13  H    0.086418
    14  H    0.111434
    15  H    0.110012
    16  H    0.125306
    17  H    0.133977
    18  H    0.097859
    19  H    0.100496
 Sum of Mulliken charges =   0.00000

 Dipole moment (field-independent basis, Debye):
    X=              2.7242    Y=              0.1076    Z=              1.2406  Tot=              2.9953
 Quadrupole moment (field-independent basis, Debye-Ang):
   XX=            -60.7549   YY=            -55.7161   ZZ=            -51.7890
   XY=             -4.9520   XZ=             -0.3943   YZ=              2.1882

  Exact polarizability:  93.651   3.425  70.715   2.376   0.850  65.154
 Approx polarizability: 120.966  11.847 113.522   4.146  -1.572  98.745

                      1                      2                      3
                      A                      A                      A
 Frequencies --     47.4344                65.8961               109.6854
 Red. masses --      5.1783                 3.8457                 2.4949
 Frc consts  --      0.0069                 0.0098                 0.0177
 IR Inten    --      3.2437                 5.1785                 0.6220

                      4                      5                      6
                      A                      A                      A
 Frequencies --    186.7066               234.4085               294.5965
 Red. masses --      2.7330                 1.1179                 2.4176
 Frc consts  --      0.0561                 0.0362                 0.1236
 IR Inten    --      3.0088                 0.1728                 0.9417

                      7                      8                      9
                      A                      A                      A
 Frequencies --    314.1995               393.7128               419.0302
 Red. masses --      2.5177                 3.2956                 2.3291
 Frc consts  --      0.1464                 0.3010                 0.2409
 IR Inten    --      1.1342                 2.6232                 4.0405

                     10                     11                     12
                      A                      A                      A
 Frequencies --    472.6385               505.6475               654.4706
 Red. masses --      2.6937                 5.4591                 2.3154
 Frc consts  --      0.3545                 0.8224                 0.5843
 IR Inten    --     15.8592                 9.2216                 3.9144

                     13                     14                     15
                      A                      A                      A
 Frequencies --    731.9986               799.3272               832.8105
 Red. masses --      3.3891                 2.8043                 2.2147
 Frc consts  --      1.0699                 1.0557                 0.9050
 IR Inten    --      2.8130                 5.7682                 1.9339

                     16                     17                     18
                      A                      A                      A
 Frequencies --    860.7353               907.4976               925.4838
 Red. masses --      2.0120                 2.3208                 2.1032
 Frc consts  --      0.8783                 1.1261                 1.0614
 IR Inten    --      4.6948                 8.8410                10.9276

                     19                     20                     21
                      A                      A                      A
 Frequencies --    933.5097               990.8049              1009.4104
 Red. masses --      2.0082                 1.3872                 2.3933
 Frc consts  --      1.0311                 0.8023                 1.4367
 IR Inten    --      4.7572                 0.8812                 5.4829

                     22                     23                     24
                      A                      A                      A
 Frequencies --   1045.7888              1074.8723              1107.2014
 Red. masses --      2.1090                 1.9277                 2.1351
 Frc consts  --      1.3590                 1.3122                 1.5421
 IR Inten    --     36.0014                 6.6969                15.9706

                     25                     26                     27
                      A                      A                      A
 Frequencies --   1120.5425              1157.7782              1198.9093
 Red. masses --      1.7636                 2.0053                 1.5131
 Frc consts  --      1.3047                 1.5837                 1.2814
 IR Inten    --      0.9040                10.8486                 3.6365

                     28                     29                     30
                      A                      A                      A
 Frequencies --   1222.4852              1230.4288              1255.7566
 Red. masses --      1.3556                 1.3551                 1.4397
 Frc consts  --      1.1936                 1.2087                 1.3376
 IR Inten    --      7.8588                 3.5306                 4.3015

                     31                     32                     33
                      A                      A                      A
 Frequencies --   1292.1823              1298.8289              1352.9231
 Red. masses --      1.5662                 1.8184                 1.6425
 Frc consts  --      1.5408                 1.8073                 1.7713
 IR Inten    --      1.2885                13.9008                 2.2355

                     34                     35                     36
                      A                      A                      A
 Frequencies --   1409.5908              1421.4626              1433.3429
 Red. masses --      1.2790                 1.1903                 1.5013
 Frc consts  --      1.4973                 1.4170                 1.8173
 IR Inten    --      1.5321                 8.0771                 9.0664

                     37                     38                     39
                      A                      A                      A
 Frequencies --   1449.2796              1477.8538              1495.3551
 Red. masses --      1.7407                 1.3310                 1.0513
 Frc consts  --      2.1541                 1.7128                 1.3850
 IR Inten    --     19.5732                 2.2560                 4.0609

                     40                     41                     42
                      A                      A                      A
 Frequencies --   1500.2448              1835.0967              2895.6500
 Red. masses --      1.0506                10.0014                 1.0838
 Frc consts  --      1.3932                19.8440                 5.3540
 IR Inten    --      3.9280               184.7946                75.4455

                     43                     44                     45
                      A                      A                      A
 Frequencies --   3027.4013              3027.6644              3060.6668
 Red. masses --      1.0433                 1.0539                 1.0644
 Frc consts  --      5.6340                 5.6921                 5.8745
 IR Inten    --     21.4167                 9.3579                18.5371

                     46                     47                     48
                      A                      A                      A
 Frequencies --   3065.0307              3094.4450              3102.1096
 Red. masses --      1.0797                 1.1003                 1.0990
 Frc consts  --      5.9760                 6.2078                 6.2313
 IR Inten    --     12.6635                37.6595                 9.3140

                     49                     50                     51
                      A                      A                      A
 Frequencies --   3102.1915              3120.2416              3168.5274
 Red. masses --      1.1011                 1.1079                 1.0938
 Frc consts  --      6.2433                 6.3554                 6.4699
 IR Inten    --     20.7623                22.0536                17.8100

 - Thermochemistry -
 -------------------
 Temperature   298.150 Kelvin.  Pressure   1.00000 Atm.
 Atom     1 has atomic number  6 and mass  12.00000

 Molecular mass:   126.06808 amu.
 Principal axes and moments of inertia in atomic units:
                           1         2         3
     Eigenvalues --   454.789302010.879232185.16263
           X            0.99969  -0.02462   0.00266
           Y            0.02454   0.99930   0.02809
           Z           -0.00335  -0.02801   0.99960
 This molecule is an asymmetric top.
 Rotational symmetry number  1.
 Warning -- assumption of classical behavior for rotation
           may cause significant error
 Rotational temperatures (Kelvin)      0.19045     0.04307     0.03964
 Rotational constants (GHZ):           3.96830     0.89749     0.82591
 Zero-point vibrational energy     411119.8 (Joules/Mol)
                                   98.25998 (Kcal/Mol)
 Warning -- explicit consideration of  11 degrees of freedom as
           vibrations may cause significant error
 Vibrational temperatures:     68.25    94.81   157.81   268.63   337.26
          (Kelvin)            423.86   452.06   566.46   602.89   680.02
                              727.51   941.64  1053.18  1150.05  1198.23
                             1238.40  1305.69  1331.56  1343.11  1425.55
                             1452.31  1504.66  1546.50  1593.01  1612.21
                             1665.78  1724.96  1758.88  1770.31  1806.75
                             1859.16  1868.72  1946.55  2028.08  2045.17
                             2062.26  2085.19  2126.30  2151.48  2158.52
                             2640.29  4166.19  4355.75  4356.13  4403.61
                             4409.89  4452.21  4463.24  4463.36  4489.33
                             4558.80

 Zero-point correction=                           0.156587 (Hartree/Particle)
 Thermal correction to Energy=                    0.165697
 Thermal correction to Enthalpy=                  0.166642
 Thermal correction to Gibbs Free Energy=         0.121737
 Sum of electronic and zero-point Energies=           -423.002472
 Sum of electronic and thermal Energies=              -422.993362
 Sum of electronic and thermal Enthalpies=            -422.992418
 Sum of electronic and thermal Free Energies=         -423.037323

                     E (Thermal)             CV                S
                      KCal/Mol        Cal/Mol-Kelvin    Cal/Mol-Kelvin
 Total                  103.977             33.171             94.510
 Electronic               0.000              0.000              0.000
 Translational            0.889              2.981             40.409
 Rotational               0.889              2.981             29.082
 Vibrational            102.199             27.209             25.020
 Vibration     1          0.595              1.979              4.922
 Vibration     2          0.597              1.971              4.272
 Vibration     3          0.606              1.941              3.274
 Vibration     4          0.632              1.858              2.260
 Vibration     5          0.654              1.788              1.845
 Vibration     6          0.689              1.684              1.447
 Vibration     7          0.702              1.647              1.340
 Vibration     8          0.761              1.484              0.986
 Vibration     9          0.782              1.429              0.895
 Vibration    10          0.830              1.311              0.730
 Vibration    11          0.861              1.237              0.644

 Optimization completed.
    -- Stationary point found.
 Normal termination of Gaussian 09 at Tue Jan 28 04:39:54 2020.
