 Gaussian 09, Revision D.01,
 Gaussian 09:  ES64L-G09RevD.01 24-Apr-2013

 -----------------------------
 # b3lyp 6-31G(2df,p) opt Freq
 -----------------------------

 -----
 titel
 -----
 Symbolic Z-matrix:
 Charge =  0 Multiplicity = 1

 SCF Done:  E(RB3LYP) =  -423.163089555     A.U. after   14 cycles
 Optimization completed.
    -- Stationary point found.
 Normal termination of Gaussian 09 at Tue Jan 28 03:13:47 2020.

 ----------------------------------------------------------------------
 #N Geom=AllCheck Guess=TCheck SCRF=Check GenChk RB3LYP/6-31G(2df,p) Fr
 eq
 ----------------------------------------------------------------------

 Structure from the checkpoint file:  "/scratch/puck/g09_cfe3bc8e-57d6-4235-93b4-13b2aaf46cfc/Gau-45536.chk"
 -----
 titel
 -----
 Charge =  0 Multiplicity = 1

                         Standard orientation:
 ---------------------------------------------------------------------
 Center     Atomic      Atomic             Coordinates (Angstroms)
 Number     Number       Type             X           Y           Z
 ---------------------------------------------------------------------
      1          8           0        2.071191   -1.537130   -0.391122
      2          6           0        1.727251   -0.445262    0.422638
      3          6           0        1.854885    1.005927   -0.130015
      4          6           0        0.435333    1.339898    0.412451
      5          6           0       -0.688757    1.233343   -0.643518
      6          6           0       -0.776476   -0.295445   -0.398396
      7          6           0       -2.115277   -0.828713    0.037468
      8          8           0       -3.125391   -0.178654    0.132919
      9          6           0        0.241384   -0.177082    0.787315
     10          1           0        1.750753   -1.365861   -1.282492
     11          1           0        2.311768   -0.570563    1.339011
     12          1           0        2.680683    1.585527    0.288039
     13          1           0        1.927776    1.056597   -1.222713
     14          1           0        0.372274    2.141375    1.147562
     15          1           0       -1.620555    1.716567   -0.341130
     16          1           0       -0.434031    1.558284   -1.656112
     17          1           0       -0.411719   -0.949422   -1.201182
     18          1           0       -2.102813   -1.909526    0.309390
     19          1           0       -0.110593   -0.532697    1.757591
 ---------------------------------------------------------------------

 SCF Done:  E(RB3LYP) =  -423.163089555     A.U. after    1 cycles

 The electronic state is 1-A.
 Alpha  occ. eigenvalues --  -19.14676 -19.14151 -10.27156 -10.23960 -10.20370
 Alpha  occ. eigenvalues --  -10.19699 -10.19636 -10.18852 -10.18674  -1.04794
 Alpha  occ. eigenvalues --   -1.02976  -0.87871  -0.76741  -0.69996  -0.65423
 Alpha  occ. eigenvalues --   -0.62264  -0.57633  -0.52457  -0.51821  -0.49804
 Alpha  occ. eigenvalues --   -0.48213  -0.44854  -0.43887  -0.41684  -0.40149
 Alpha  occ. eigenvalues --   -0.39257  -0.38325  -0.36052  -0.34392  -0.32074
 Alpha  occ. eigenvalues --   -0.30568  -0.28366  -0.26902  -0.25154
 Alpha virt. eigenvalues --   -0.02255   0.05989   0.07591   0.08929   0.10312
 Alpha virt. eigenvalues --    0.12283   0.13598   0.14593   0.15655   0.15875
 Alpha virt. eigenvalues --    0.18150   0.19372   0.20451   0.20849   0.22023

 Mulliken charges:
               1
     1  O   -0.429183
     2  C    0.149313
     3  C   -0.289610
     4  C   -0.009242
     5  C   -0.252753
     6  C   -0.093336
     7  C    0.135793
     8  O   -0.242103
     9  C   -0.077134
    10  H    0.282706
    11  H    0.096377
    12  H    0.110828
    13  H    0.092275
    14  H    0.074387
    15  H    0.130414
    16  H    0.096863
    17  H    0.070960
    18  H    0.080692
    19  H    0.072753
 Sum of Mulliken charges =   0.00000

 Dipole moment (field-independent basis, Debye):
    X=              1.8172    Y=              0.4358    Z=             -0.6267  Tot=              1.9710
 Quadrupole moment (field-independent basis, Debye-Ang):
   XX=            -66.0633   YY=            -54.2902   ZZ=            -49.0954
   XY=              4.8464   XZ=              0.4772   YZ=              1.1904

  Exact polarizability:  88.510   1.465  74.743   0.584  -1.303  64.972
 Approx polarizability: 123.448  -5.287 110.518   0.223  -0.195 101.453

                      1                      2                      3
                      A                      A                      A
 Frequencies --     59.9553                79.9368               141.5062
 Red. masses --      2.8571                 4.9508                 5.5022
 Frc consts  --      0.0061                 0.0186                 0.0649
 IR Inten    --      0.7779                 7.7769                11.2528

                      4                      5                      6
                      A                      A                      A
 Frequencies --    228.3787               263.0732               285.6065
 Red. masses --      3.2411                 1.1511                 2.6440
 Frc consts  --      0.0996                 0.0469                 0.1271
 IR Inten    --      1.0001                84.9823                11.0523

                      7                      8                      9
                      A                      A                      A
 Frequencies --    384.3611               400.1717               517.9163
 Red. masses --      1.9615                 2.9325                 3.7790
 Frc consts  --      0.1707                 0.2767                 0.5972
 IR Inten    --      3.3919                16.9102                 0.5728

                     10                     11                     12
                      A                      A                      A
 Frequencies --    604.4814               666.2818               717.8952
 Red. masses --      3.9004                 2.5380                 2.6328
 Frc consts  --      0.8397                 0.6638                 0.7994
 IR Inten    --      8.9101                 4.8722                12.6890

                     13                     14                     15
                      A                      A                      A
 Frequencies --    784.0459               835.2713               852.2643
 Red. masses --      2.2309                 2.1773                 2.0465
 Frc consts  --      0.8080                 0.8950                 0.8758
 IR Inten    --      1.7289                 9.1600                 3.7149

                     16                     17                     18
                      A                      A                      A
 Frequencies --    882.4118               907.1374               950.7387
 Red. masses --      2.2103                 2.3772                 2.3811
 Frc consts  --      1.0140                 1.1525                 1.2681
 IR Inten    --      4.2245                 0.2687                13.1235

                     19                     20                     21
                      A                      A                      A
 Frequencies --    979.9176              1002.5570              1036.7985
 Red. masses --      1.6982                 1.7350                 1.8383
 Frc consts  --      0.9608                 1.0275                 1.1643
 IR Inten    --      5.3886                 2.7413                20.2442

                     22                     23                     24
                      A                      A                      A
 Frequencies --   1052.7774              1076.6306              1102.7740
 Red. masses --      2.2702                 1.8982                 2.1715
 Frc consts  --      1.4825                 1.2963                 1.5559
 IR Inten    --      3.3370                11.0982                13.2615

                     25                     26                     27
                      A                      A                      A
 Frequencies --   1125.2039              1143.6000              1174.8921
 Red. masses --      2.2182                 1.6650                 1.2466
 Frc consts  --      1.6547                 1.2830                 1.0138
 IR Inten    --     96.7663                36.2847                20.6147

                     28                     29                     30
                      A                      A                      A
 Frequencies --   1198.5742              1217.6006              1234.5352
 Red. masses --      1.5188                 1.4667                 1.5335
 Frc consts  --      1.2855                 1.2811                 1.3770
 IR Inten    --      7.5649                 2.3501                 0.8743

                     31                     32                     33
                      A                      A                      A
 Frequencies --   1262.6616              1280.4047              1291.2450
 Red. masses --      1.4905                 1.5324                 1.3998
 Frc consts  --      1.4000                 1.4802                 1.3751
 IR Inten    --      2.3903                 6.8684                 0.3155

                     34                     35                     36
                      A                      A                      A
 Frequencies --   1307.2409              1318.1995              1354.6679
 Red. masses --      1.5263                 1.5197                 1.6871
 Frc consts  --      1.5368                 1.5558                 1.8241
 IR Inten    --      0.5179                 4.2323                18.7867

                     37                     38                     39
                      A                      A                      A
 Frequencies --   1419.6297              1428.2143              1475.6310
 Red. masses --      1.1975                 1.2367                 1.1023
 Frc consts  --      1.4219                 1.4863                 1.4142
 IR Inten    --      8.8578                60.7326                 1.1694

                     40                     41                     42
                      A                      A                      A
 Frequencies --   1491.0593              1823.2964              2867.5263
 Red. masses --      1.1012                10.2340                 1.0825
 Frc consts  --      1.4425                20.0451                 5.2442
 IR Inten    --      5.7960               179.3573               115.7935

                     43                     44                     45
                      A                      A                      A
 Frequencies --   3023.2184              3037.3342              3059.8706
 Red. masses --      1.0827                 1.0655                 1.0603
 Frc consts  --      5.8305                 5.7916                 5.8492
 IR Inten    --     24.9661                28.5956                38.0315

                     46                     47                     48
                      A                      A                      A
 Frequencies --   3062.6006              3088.5410              3103.2003
 Red. masses --      1.0861                 1.0880                 1.0978
 Frc consts  --      6.0019                 6.1149                 6.2286
 IR Inten    --     12.6538                31.8044                11.2604

                     49                     50                     51
                      A                      A                      A
 Frequencies --   3115.1895              3122.8528              3814.4648
 Red. masses --      1.0995                 1.0990                 1.0658
 Frc consts  --      6.2867                 6.3145                 9.1366
 IR Inten    --     19.8938                40.9595                10.1554

 - Thermochemistry -
 -------------------
 Temperature   298.150 Kelvin.  Pressure   1.00000 Atm.
 Atom     1 has atomic number  8 and mass  15.99491

 Molecular mass:   126.06808 amu.
 Principal axes and moments of inertia in atomic units:
                           1         2         3
     Eigenvalues --   565.298821549.471351862.24568
           X            0.99987   0.01608   0.00145
           Y           -0.01607   0.99981  -0.01078
           Z           -0.00162   0.01075   0.99994
 This molecule is an asymmetric top.
 Rotational symmetry number  1.
 Warning -- assumption of classical behavior for rotation
           may cause significant error
 Rotational temperatures (Kelvin)      0.15322     0.05590     0.04651
 Rotational constants (GHZ):           3.19254     1.16475     0.96912
 Zero-point vibrational energy     416625.5 (Joules/Mol)
                                   99.57588 (Kcal/Mol)
 Warning -- explicit consideration of  10 degrees of freedom as
           vibrations may cause significant error
 Vibrational temperatures:     86.26   115.01   203.60   328.59   378.50
          (Kelvin)            410.92   553.01   575.76   745.17   869.71
                              958.63  1032.89  1128.07  1201.77  1226.22
                             1269.59  1305.17  1367.90  1409.88  1442.45
                             1491.72  1514.71  1549.03  1586.64  1618.92
                             1645.38  1690.41  1724.48  1751.85  1776.22
                             1816.69  1842.21  1857.81  1880.83  1896.59
                             1949.06  2042.53  2054.88  2123.10  2145.30
                             2623.31  4125.73  4349.73  4370.04  4402.47
                             4406.39  4443.72  4464.81  4482.06  4493.08
                             5488.16

 Zero-point correction=                           0.158684 (Hartree/Particle)
 Thermal correction to Energy=                    0.167186
 Thermal correction to Enthalpy=                  0.168130
 Thermal correction to Gibbs Free Energy=         0.124857
 Sum of electronic and zero-point Energies=           -423.004405
 Sum of electronic and thermal Energies=              -422.995904
 Sum of electronic and thermal Enthalpies=            -422.994960
 Sum of electronic and thermal Free Energies=         -423.038232

                     E (Thermal)             CV                S
                      KCal/Mol        Cal/Mol-Kelvin    Cal/Mol-Kelvin
 Total                  104.911             31.820             91.075
 Electronic               0.000              0.000              0.000
 Translational            0.889              2.981             40.409
 Rotational               0.889              2.981             28.880
 Vibrational            103.133             25.858             21.786
 Vibration     1          0.597              1.973              4.459
 Vibration     2          0.600              1.963              3.892
 Vibration     3          0.615              1.912              2.783
 Vibration     4          0.651              1.798              1.892
 Vibration     5          0.670              1.741              1.641
 Vibration     6          0.683              1.700              1.500
 Vibration     7          0.753              1.504              1.022
 Vibration     8          0.766              1.470              0.962
 Vibration     9          0.873              1.210              0.615
 Vibration    10          0.963              1.022              0.442

 Optimization completed.
    -- Stationary point found.
 Normal termination of Gaussian 09 at Tue Jan 28 05:13:50 2020.
