 Gaussian 09, Revision D.01,
 Gaussian 09:  ES64L-G09RevD.01 24-Apr-2013

 -----------------------------
 # b3lyp 6-31G(2df,p) opt Freq
 -----------------------------

 -----
 titel
 -----
 Symbolic Z-matrix:
 Charge =  0 Multiplicity = 1

 SCF Done:  E(RB3LYP) =  -423.138700828     A.U. after   14 cycles
 Optimization completed.
    -- Stationary point found.
 Normal termination of Gaussian 09 at Mon Jan 27 12:05:59 2020.

 ----------------------------------------------------------------------
 #N Geom=AllCheck Guess=TCheck SCRF=Check GenChk RB3LYP/6-31G(2df,p) Fr
 eq
 ----------------------------------------------------------------------

 Structure from the checkpoint file:  "/scratch/puck/g09_32e13831-36ce-4492-a967-fbaabc4c15a6/Gau-71337.chk"
 -----
 titel
 -----
 Charge =  0 Multiplicity = 1

                         Standard orientation:
 ---------------------------------------------------------------------
 Center     Atomic      Atomic             Coordinates (Angstroms)
 Number     Number       Type             X           Y           Z
 ---------------------------------------------------------------------
      1          6           0       -2.439758   -0.532060    0.500340
      2          8           0       -2.336498    0.702530   -0.213701
      3          6           0       -1.407964   -0.338554   -0.524601
      4          6           0        0.015545   -0.054786   -0.178500
      5          6           0        0.510735    0.573548    1.149676
      6          6           0        1.818122    0.707952    0.305808
      7          6           0        0.886951    1.003548   -0.909994
      8          6           0        2.126746   -0.772237    0.050741
      9          8           0        0.805465   -1.256229   -0.289995
     10          1           0       -2.165815   -0.486444    1.552612
     11          1           0       -3.317812   -1.133370    0.270467
     12          1           0       -1.553648   -0.804533   -1.499872
     13          1           0        0.041830    1.532796    1.369838
     14          1           0        0.528342   -0.074413    2.029779
     15          1           0        2.641780    1.359546    0.593278
     16          1           0        0.452546    2.003370   -0.884176
     17          1           0        1.241407    0.748840   -1.911987
     18          1           0        2.815476   -0.939177   -0.785670
     19          1           0        2.501905   -1.301494    0.934475
 ---------------------------------------------------------------------

 SCF Done:  E(RB3LYP) =  -423.138700828     A.U. after    1 cycles

 The electronic state is 1-A.
 Alpha  occ. eigenvalues --  -19.15267 -19.13463 -10.24190 -10.23757 -10.23425
 Alpha  occ. eigenvalues --  -10.22665 -10.20094 -10.18590 -10.18466  -1.07280
 Alpha  occ. eigenvalues --   -1.03965  -0.83602  -0.74400  -0.67286  -0.66705
 Alpha  occ. eigenvalues --   -0.63840  -0.57270  -0.55125  -0.52209  -0.49797
 Alpha  occ. eigenvalues --   -0.47676  -0.46290  -0.44256  -0.39964  -0.38911
 Alpha  occ. eigenvalues --   -0.37935  -0.36554  -0.36122  -0.34204  -0.32140
 Alpha  occ. eigenvalues --   -0.31478  -0.29768  -0.26927  -0.24122
 Alpha virt. eigenvalues --    0.08291   0.09762   0.10343   0.10723   0.12641
 Alpha virt. eigenvalues --    0.13168   0.13590   0.14901   0.15660   0.16776
 Alpha virt. eigenvalues --    0.17499   0.18873   0.19959   0.20034   0.21014

 Mulliken charges:
               1
     1  C   -0.174441
     2  O   -0.238911
     3  C   -0.055982
     4  C    0.481893
     5  C   -0.280481
     6  C   -0.088210
     7  C   -0.276560
     8  C   -0.074292
     9  O   -0.328810
    10  H    0.116018
    11  H    0.118255
    12  H    0.098300
    13  H    0.116816
    14  H    0.096488
    15  H    0.075975
    16  H    0.115334
    17  H    0.097372
    18  H    0.100824
    19  H    0.100412
 Sum of Mulliken charges =   0.00000

 Dipole moment (field-independent basis, Debye):
    X=              1.1003    Y=             -0.0031    Z=              0.6877  Tot=              1.2976
 Quadrupole moment (field-independent basis, Debye-Ang):
   XX=            -51.3070   YY=            -55.8322   ZZ=            -51.1790
   XY=              4.6752   XZ=             -0.8072   YZ=             -0.2938

  Exact polarizability:  87.079   1.281  66.176  -3.020  -1.117  70.835
 Approx polarizability: 113.490  -0.988 105.154  -4.559  -1.430 107.166

                      1                      2                      3
                      A                      A                      A
 Frequencies --     58.3857               168.1050               176.6758
 Red. masses --      3.4918                 4.3993                 3.0294
 Frc consts  --      0.0070                 0.0732                 0.0557
 IR Inten    --      3.0373                 4.2833                 3.5501

                      4                      5                      6
                      A                      A                      A
 Frequencies --    332.0485               383.4343               428.8290
 Red. masses --      3.1635                 2.9546                 2.7929
 Frc consts  --      0.2055                 0.2559                 0.3026
 IR Inten    --      4.4150                 0.9390                 1.5421

                      7                      8                      9
                      A                      A                      A
 Frequencies --    499.6376               534.5936               632.0667
 Red. masses --      2.5267                 2.0798                 2.7181
 Frc consts  --      0.3716                 0.3502                 0.6398
 IR Inten    --      1.7053                 0.1635                 4.0081

                     10                     11                     12
                      A                      A                      A
 Frequencies --    662.5159               827.4703               858.8839
 Red. masses --      3.6672                 2.6074                 6.3466
 Frc consts  --      0.9484                 1.0519                 2.7584
 IR Inten    --      0.4401                 0.0762                 3.2950

                     13                     14                     15
                      A                      A                      A
 Frequencies --    868.6389               883.2295               892.7702
 Red. masses --      4.3140                 1.6972                 2.7441
 Frc consts  --      1.9178                 0.7801                 1.2886
 IR Inten    --     12.9493                 0.2688                13.5876

                     16                     17                     18
                      A                      A                      A
 Frequencies --    919.5856               950.3837               959.4330
 Red. masses --      2.9081                 2.4939                 1.3883
 Frc consts  --      1.4489                 1.3272                 0.7529
 IR Inten    --     34.6987                32.6406                 8.5950

                     19                     20                     21
                      A                      A                      A
 Frequencies --    968.1246               987.9250              1009.8365
 Red. masses --      2.3850                 4.5431                 1.3079
 Frc consts  --      1.3170                 2.6124                 0.7858
 IR Inten    --     13.4396                59.3103                 4.1370

                     22                     23                     24
                      A                      A                      A
 Frequencies --   1063.2595              1088.3795              1097.0019
 Red. masses --      1.5289                 1.2855                 1.5043
 Frc consts  --      1.0184                 0.8972                 1.0666
 IR Inten    --      3.8027                 3.9391                 9.0447

                     25                     26                     27
                      A                      A                      A
 Frequencies --   1109.8635              1148.0590              1153.4607
 Red. masses --      1.6909                 1.5661                 1.3993
 Frc consts  --      1.2272                 1.2162                 1.0969
 IR Inten    --      5.8129                 3.0960                 0.0771

                     28                     29                     30
                      A                      A                      A
 Frequencies --   1165.9057              1171.1142              1187.3835
 Red. masses --      1.6362                 1.3945                 1.2020
 Frc consts  --      1.3104                 1.1268                 0.9985
 IR Inten    --     18.3651                 1.9777                 0.2155

                     31                     32                     33
                      A                      A                      A
 Frequencies --   1212.1483              1247.5615              1277.5139
 Red. masses --      1.6345                 1.5466                 1.8662
 Frc consts  --      1.4149                 1.4182                 1.7945
 IR Inten    --      9.7662                 1.4015                 9.2257

                     34                     35                     36
                      A                      A                      A
 Frequencies --   1291.8865              1328.7451              1362.2370
 Red. masses --      1.7928                 2.0203                 1.4756
 Frc consts  --      1.7629                 2.1016                 1.6134
 IR Inten    --      0.4336                27.5060                 2.0471

                     37                     38                     39
                      A                      A                      A
 Frequencies --   1454.1699              1474.7588              1508.9875
 Red. masses --      2.1229                 1.1022                 1.1560
 Frc consts  --      2.6448                 1.4124                 1.5509
 IR Inten    --      0.8196                 2.1251                 2.5337

                     40                     41                     42
                      A                      A                      A
 Frequencies --   1526.8003              1533.2599              3023.7880
 Red. masses --      1.4004                 1.1577                 1.0557
 Frc consts  --      1.9233                 1.6035                 5.6871
 IR Inten    --      1.7918                 1.0954                72.1102

                     43                     44                     45
                      A                      A                      A
 Frequencies --   3063.0536              3066.8490              3070.5472
 Red. masses --      1.0866                 1.0807                 1.0601
 Frc consts  --      6.0065                 5.9891                 5.8886
 IR Inten    --      0.0822                80.0808                 3.1515

                     46                     47                     48
                      A                      A                      A
 Frequencies --   3089.2627              3106.8991              3131.1031
 Red. masses --      1.0500                 1.0879                 1.0913
 Frc consts  --      5.9042                 6.1872                 6.3035
 IR Inten    --     27.2209                19.7737                37.2329

                     49                     50                     51
                      A                      A                      A
 Frequencies --   3140.8423              3148.0010              3178.2176
 Red. masses --      1.1090                 1.1056                 1.1197
 Frc consts  --      6.4456                 6.4555                 6.6639
 IR Inten    --      9.2954                25.9928                24.9017

 - Thermochemistry -
 -------------------
 Temperature   298.150 Kelvin.  Pressure   1.00000 Atm.
 Atom     1 has atomic number  6 and mass  12.00000

 Molecular mass:   126.06808 amu.
 Principal axes and moments of inertia in atomic units:
                           1         2         3
     Eigenvalues --   476.648871406.690671506.21666
           X            0.99975   0.02122  -0.00688
           Y           -0.02141   0.99936  -0.02862
           Z            0.00627   0.02876   0.99957
 This molecule is an asymmetric top.
 Rotational symmetry number  1.
 Warning -- assumption of classical behavior for rotation
           may cause significant error
 Rotational temperatures (Kelvin)      0.18171     0.06157     0.05750
 Rotational constants (GHZ):           3.78631     1.28297     1.19819
 Zero-point vibrational energy     421226.9 (Joules/Mol)
                                  100.67564 (Kcal/Mol)
 Warning -- explicit consideration of   8 degrees of freedom as
           vibrations may cause significant error
 Vibrational temperatures:     84.00   241.87   254.20   477.74   551.68
          (Kelvin)            616.99   718.87   769.16   909.40   953.21
                             1190.54  1235.74  1249.78  1270.77  1284.50
                             1323.08  1367.39  1380.41  1392.91  1421.40
                             1452.93  1529.79  1565.93  1578.34  1596.84
                             1651.80  1659.57  1677.48  1684.97  1708.38
                             1744.01  1794.96  1838.06  1858.73  1911.77
                             1959.95  2092.22  2121.85  2171.09  2196.72
                             2206.02  4350.55  4407.05  4412.51  4417.83
                             4444.75  4470.13  4504.95  4518.97  4529.27
                             4572.74

 Zero-point correction=                           0.160437 (Hartree/Particle)
 Thermal correction to Energy=                    0.167842
 Thermal correction to Enthalpy=                  0.168786
 Thermal correction to Gibbs Free Energy=         0.128184
 Sum of electronic and zero-point Energies=           -422.978264
 Sum of electronic and thermal Energies=              -422.970859
 Sum of electronic and thermal Enthalpies=            -422.969915
 Sum of electronic and thermal Free Energies=         -423.010517

                     E (Thermal)             CV                S
                      KCal/Mol        Cal/Mol-Kelvin    Cal/Mol-Kelvin
 Total                  105.322             29.370             85.454
 Electronic               0.000              0.000              0.000
 Translational            0.889              2.981             40.409
 Rotational               0.889              2.981             28.403
 Vibrational            103.545             23.408             16.642
 Vibration     1          0.596              1.974              4.511
 Vibration     2          0.625              1.882              2.457
 Vibration     3          0.628              1.871              2.363
 Vibration     4          0.714              1.612              1.250
 Vibration     5          0.753              1.506              1.026
 Vibration     6          0.790              1.407              0.862
 Vibration     7          0.855              1.251              0.659
 Vibration     8          0.890              1.174              0.577

 Optimization completed.
    -- Stationary point found.
 Normal termination of Gaussian 09 at Mon Jan 27 12:50:57 2020.
