 Gaussian 09, Revision D.01,
 Gaussian 09:  ES64L-G09RevD.01 24-Apr-2013

 -----------------------------
 # b3lyp 6-31G(2df,p) opt Freq
 -----------------------------

 -----
 titel
 -----
 Symbolic Z-matrix:
 Charge =  0 Multiplicity = 1

 SCF Done:  E(RB3LYP) =  -423.206969792     A.U. after   14 cycles
 SCF Done:  E(RB3LYP) =  -423.206969632     A.U. after    8 cycles
 SCF Done:  E(RB3LYP) =  -423.206969387     A.U. after    8 cycles
 SCF Done:  E(RB3LYP) =  -423.206970017     A.U. after    7 cycles
 Optimization completed.
    -- Stationary point found.
 Normal termination of Gaussian 09 at Mon Jan 27 16:38:55 2020.

 ----------------------------------------------------------------------
 #N Geom=AllCheck Guess=TCheck SCRF=Check GenChk RB3LYP/6-31G(2df,p) Fr
 eq
 ----------------------------------------------------------------------

 Structure from the checkpoint file:  "/scratch/puck/g09_d6eb3c39-cfe5-47f2-af82-4624cdeb1d8c/Gau-57237.chk"
 -----
 titel
 -----
 Charge =  0 Multiplicity = 1

                         Standard orientation:
 ---------------------------------------------------------------------
 Center     Atomic      Atomic             Coordinates (Angstroms)
 Number     Number       Type             X           Y           Z
 ---------------------------------------------------------------------
      1          6           0        1.026373   -1.314529    1.266107
      2          6           0        0.763802   -0.487790   -0.000001
      3          6           0        1.026370   -1.314569   -1.266082
      4          8           0        1.665450    0.641728   -0.000025
      5          6           0        0.951177    1.869683    0.000001
      6          6           0       -0.493325    1.488683   -0.000004
      7          6           0       -0.613063    0.158288   -0.000006
      8          6           0       -1.890962   -0.575909   -0.000005
      9          8           0       -2.981669   -0.050044   -0.000001
     10          1           0        0.858292   -0.709172    2.160702
     11          1           0        0.370860   -2.190750    1.311016
     12          1           0        2.063114   -1.663381    1.273470
     13          1           0        0.858282   -0.709242   -2.160697
     14          1           0        2.063115   -1.663413   -1.273440
     15          1           0        0.370864   -2.190796   -1.310959
     16          1           0        1.219319    2.470727    0.884040
     17          1           0        1.219324    2.470759   -0.884015
     18          1           0       -1.315567    2.193132   -0.000002
     19          1           0       -1.800088   -1.684474    0.000039
 ---------------------------------------------------------------------

 SCF Done:  E(RB3LYP) =  -423.206970017     A.U. after    1 cycles

 The electronic state is 1-A.
 Alpha  occ. eigenvalues --  -19.14116 -19.13835 -10.27414 -10.25215 -10.24366
 Alpha  occ. eigenvalues --  -10.21154 -10.19901 -10.18154 -10.18154  -1.04493
 Alpha  occ. eigenvalues --   -1.04032  -0.81769  -0.79223  -0.69722  -0.69425
 Alpha  occ. eigenvalues --   -0.64144  -0.57955  -0.54213  -0.50801  -0.47814
 Alpha  occ. eigenvalues --   -0.46503  -0.44338  -0.42955  -0.41906  -0.41175
 Alpha  occ. eigenvalues --   -0.40362  -0.38854  -0.38735  -0.36013  -0.34898
 Alpha  occ. eigenvalues --   -0.33020  -0.28489  -0.25634  -0.24655
 Alpha virt. eigenvalues --   -0.06660   0.06541   0.08005   0.10229   0.10714
 Alpha virt. eigenvalues --    0.13441   0.14787   0.15015   0.15196   0.16592
 Alpha virt. eigenvalues --    0.17737   0.18368   0.19444   0.19853   0.20809

 Mulliken charges:
               1
     1  C   -0.409981
     2  C    0.269287
     3  C   -0.409981
     4  O   -0.309922
     5  C   -0.133412
     6  C   -0.176207
     7  C    0.187892
     8  C    0.074157
     9  O   -0.264185
    10  H    0.121318
    11  H    0.114675
    12  H    0.127932
    13  H    0.121318
    14  H    0.127932
    15  H    0.114675
    16  H    0.117257
    17  H    0.117258
    18  H    0.138749
    19  H    0.071238
 Sum of Mulliken charges =   0.00000

 Dipole moment (field-independent basis, Debye):
    X=              1.5895    Y=              0.0148    Z=              0.0000  Tot=              1.5896
 Quadrupole moment (field-independent basis, Debye-Ang):
   XX=            -66.4822   YY=            -46.9174   ZZ=            -52.6246
   XY=             -0.0510   XZ=              0.0001   YZ=              0.0000

  Exact polarizability:  84.413   4.420  94.225   0.000   0.000  60.187
 Approx polarizability: 128.003  10.588 144.341   0.000   0.000  86.355

                      1                      2                      3
                      A                      A                      A
 Frequencies --     73.3318               107.0900               179.7612
 Red. masses --      3.3472                 3.5564                 3.9891
 Frc consts  --      0.0106                 0.0240                 0.0759
 IR Inten    --      5.6934                 4.2982                 3.7972

                      4                      5                      6
                      A                      A                      A
 Frequencies --    202.8850               215.8963               252.9582
 Red. masses --      1.7432                 1.1770                 1.0723
 Frc consts  --      0.0423                 0.0323                 0.0404
 IR Inten    --      5.2660                 0.8420                 0.7902

                      7                      8                      9
                      A                      A                      A
 Frequencies --    255.2223               336.0652               339.4465
 Red. masses --      2.2692                 3.1261                 2.7825
 Frc consts  --      0.0871                 0.2080                 0.1889
 IR Inten    --      0.0101                 5.1534                 1.1889

                     10                     11                     12
                      A                      A                      A
 Frequencies --    396.0557               502.5590               581.9421
 Red. masses --      3.4063                 4.1272                 3.6368
 Frc consts  --      0.3148                 0.6142                 0.7256
 IR Inten    --      2.2950                 2.5292                 3.6286

                     13                     14                     15
                      A                      A                      A
 Frequencies --    617.5186               766.1137               802.2904
 Red. masses --      3.9188                 5.3962                 5.2374
 Frc consts  --      0.8805                 1.8661                 1.9862
 IR Inten    --      8.6580                15.6057                37.9740

                     16                     17                     18
                      A                      A                      A
 Frequencies --    838.6982               854.8965               925.4506
 Red. masses --      1.1493                 2.6867                 1.5077
 Frc consts  --      0.4763                 1.1569                 0.7608
 IR Inten    --      7.6667                 4.2488                 0.1815

                     19                     20                     21
                      A                      A                      A
 Frequencies --    939.3022               977.7638              1008.3433
 Red. masses --      2.0838                 1.8865                 1.3026
 Frc consts  --      1.0832                 1.0626                 0.7803
 IR Inten    --      2.6406                 3.4342                 0.0028

                     22                     23                     24
                      A                      A                      A
 Frequencies --   1042.4547              1046.8728              1089.1007
 Red. masses --      1.7044                 1.8288                 5.0662
 Frc consts  --      1.0913                 1.1809                 3.5406
 IR Inten    --      4.2382                 4.0787                56.2394

                     25                     26                     27
                      A                      A                      A
 Frequencies --   1130.5661              1182.4839              1200.3924
 Red. masses --      2.7041                 1.5664                 3.0236
 Frc consts  --      2.0364                 1.2904                 2.5670
 IR Inten    --     28.7850                 5.9200                75.5112

                     28                     29                     30
                      A                      A                      A
 Frequencies --   1213.4283              1243.9736              1319.5984
 Red. masses --      1.7275                 2.0082                 2.8274
 Frc consts  --      1.4986                 1.8310                 2.9008
 IR Inten    --     15.3400                24.5942                10.9915

                     31                     32                     33
                      A                      A                      A
 Frequencies --   1372.6492              1396.9417              1416.2167
 Red. masses --      1.4717                 1.2603                 1.2437
 Frc consts  --      1.6338                 1.4490                 1.4696
 IR Inten    --      5.8089                 9.8940                 6.9447

                     34                     35                     36
                      A                      A                      A
 Frequencies --   1449.7640              1475.1976              1482.2286
 Red. masses --      1.2812                 1.0477                 1.0468
 Frc consts  --      1.5866                 1.3433                 1.3550
 IR Inten    --      5.8545                 0.3422                 0.8037

                     37                     38                     39
                      A                      A                      A
 Frequencies --   1495.2620              1503.6783              1510.6370
 Red. masses --      1.0635                 1.0669                 1.0825
 Frc consts  --      1.4009                 1.4213                 1.4554
 IR Inten    --      2.4151                 6.4998                 1.4584

                     40                     41                     42
                      A                      A                      A
 Frequencies --   1676.8345              1789.6795              2885.6027
 Red. masses --      8.4217                 9.6111                 1.0812
 Frc consts  --     13.9517                18.1374                 5.3043
 IR Inten    --    111.6324               145.6217               111.9554

                     43                     44                     45
                      A                      A                      A
 Frequencies --   2971.0836              2984.7771              3035.9789
 Red. masses --      1.0559                 1.1043                 1.0347
 Frc consts  --      5.4916                 5.7965                 5.6192
 IR Inten    --     67.7986                32.9015                14.1350

                     46                     47                     48
                      A                      A                      A
 Frequencies --   3041.0073              3107.2956              3113.3830
 Red. masses --      1.0351                 1.1007                 1.1006
 Frc consts  --      5.6400                 6.2618                 6.2857
 IR Inten    --     14.9023                 1.9237                33.4391

                     49                     50                     51
                      A                      A                      A
 Frequencies --   3121.2933              3123.8179              3225.8477
 Red. masses --      1.1030                 1.1026                 1.0950
 Frc consts  --      6.3312                 6.3393                 6.7137
 IR Inten    --     13.6668                26.2771                 0.5735

 - Thermochemistry -
 -------------------
 Temperature   298.150 Kelvin.  Pressure   1.00000 Atm.
 Atom     1 has atomic number  6 and mass  12.00000

 Molecular mass:   126.06808 amu.
 Principal axes and moments of inertia in atomic units:
                           1         2         3
     Eigenvalues --   771.503901265.619651635.80402
           X            0.99965  -0.02653   0.00000
           Y            0.02653   0.99965   0.00000
           Z            0.00000   0.00000   1.00000
 This molecule is an asymmetric top.
 Rotational symmetry number  1.
 Warning -- assumption of classical behavior for rotation
           may cause significant error
 Rotational temperatures (Kelvin)      0.11227     0.06844     0.05295
 Rotational constants (GHZ):           2.33925     1.42597     1.10327
 Zero-point vibrational energy     411644.8 (Joules/Mol)
                                   98.38547 (Kcal/Mol)
 Warning -- explicit consideration of  13 degrees of freedom as
           vibrations may cause significant error
 Vibrational temperatures:    105.51   154.08   258.64   291.91   310.63
          (Kelvin)            363.95   367.21   483.52   488.39   569.84
                              723.07   837.28   888.47  1102.27  1154.32
                             1206.70  1230.00  1331.52  1351.44  1406.78
                             1450.78  1499.86  1506.21  1566.97  1626.63
                             1701.33  1727.09  1745.85  1789.80  1898.61
                             1974.93  2009.89  2037.62  2085.88  2122.48
                             2132.59  2151.35  2163.46  2173.47  2412.59
                             2574.95  4151.73  4274.72  4294.42  4368.09
                             4375.33  4470.70  4479.46  4490.84  4494.47
                             4641.27

 Zero-point correction=                           0.156787 (Hartree/Particle)
 Thermal correction to Energy=                    0.166094
 Thermal correction to Enthalpy=                  0.167038
 Thermal correction to Gibbs Free Energy=         0.122714
 Sum of electronic and zero-point Energies=           -423.050183
 Sum of electronic and thermal Energies=              -423.040876
 Sum of electronic and thermal Enthalpies=            -423.039932
 Sum of electronic and thermal Free Energies=         -423.084256

                     E (Thermal)             CV                S
                      KCal/Mol        Cal/Mol-Kelvin    Cal/Mol-Kelvin
 Total                  104.226             34.089             93.288
 Electronic               0.000              0.000              0.000
 Translational            0.889              2.981             40.409
 Rotational               0.889              2.981             28.859
 Vibrational            102.448             28.128             24.020
 Vibration     1          0.599              1.967              4.062
 Vibration     2          0.606              1.944              3.321
 Vibration     3          0.629              1.867              2.331
 Vibration     4          0.639              1.836              2.107
 Vibration     5          0.645              1.817              1.993
 Vibration     6          0.664              1.758              1.710
 Vibration     7          0.666              1.754              1.694
 Vibration     8          0.717              1.603              1.231
 Vibration     9          0.719              1.597              1.215
 Vibration    10          0.763              1.479              0.977
 Vibration    11          0.858              1.244              0.652
 Vibration    12          0.939              1.070              0.482
 Vibration    13          0.977              0.995              0.420

 Optimization completed.
    -- Stationary point found.
 Normal termination of Gaussian 09 at Mon Jan 27 17:20:49 2020.
