 Gaussian 09, Revision D.01,
 Gaussian 09:  ES64L-G09RevD.01 24-Apr-2013

 -----------------------------
 # b3lyp 6-31G(2df,p) opt Freq
 -----------------------------

 -----
 titel
 -----
 Symbolic Z-matrix:
 Charge =  0 Multiplicity = 1

 SCF Done:  E(RB3LYP) =  -423.161858323     A.U. after   13 cycles
 Optimization completed.
    -- Stationary point found.
 Normal termination of Gaussian 09 at Tue Jan 28 14:05:50 2020.

 ----------------------------------------------------------------------
 #N Geom=AllCheck Guess=TCheck SCRF=Check GenChk RB3LYP/6-31G(2df,p) Fr
 eq
 ----------------------------------------------------------------------

 Structure from the checkpoint file:  "/scratch/puck/g09_d35f9783-73fa-4865-a339-d1ac660df78b/Gau-15518.chk"
 -----
 titel
 -----
 Charge =  0 Multiplicity = 1

                         Standard orientation:
 ---------------------------------------------------------------------
 Center     Atomic      Atomic             Coordinates (Angstroms)
 Number     Number       Type             X           Y           Z
 ---------------------------------------------------------------------
      1          6           0       -3.023756   -0.738887    0.312082
      2          8           0       -2.285847    0.326612   -0.256083
      3          6           0       -0.991208    0.414017    0.239416
      4          6           0        0.022047    1.059676   -0.673551
      5          6           0        1.216116    1.607293    0.026110
      6          6           0        1.913301    0.650883    0.650311
      7          6           0        1.355253   -0.732728    0.380747
      8          8           0        2.268776   -1.567493   -0.326656
      9          6           0        0.072082   -0.442511   -0.402455
     10          1           0       -3.121173   -0.625923    1.402270
     11          1           0       -4.019300   -0.714966   -0.136583
     12          1           0       -2.556570   -1.712033    0.104802
     13          1           0       -0.921300    0.627307    1.308947
     14          1           0       -0.338542    1.478748   -1.605743
     15          1           0        1.441403    2.667671    0.054824
     16          1           0        2.791548    0.801530    1.267061
     17          1           0        1.147828   -1.282353    1.306670
     18          1           0        2.578024   -1.060790   -1.086330
     19          1           0       -0.248362   -1.158600   -1.149968
 ---------------------------------------------------------------------

 SCF Done:  E(RB3LYP) =  -423.161858323     A.U. after    1 cycles

 The electronic state is 1-A.
 Alpha  occ. eigenvalues --  -19.14767 -19.13201 -10.23863 -10.23428 -10.22661
 Alpha  occ. eigenvalues --  -10.19346 -10.19167 -10.18573 -10.17981  -1.04351
 Alpha  occ. eigenvalues --   -1.01393  -0.88134  -0.76407  -0.69761  -0.68585
 Alpha  occ. eigenvalues --   -0.59598  -0.57445  -0.54971  -0.53032  -0.49396
 Alpha  occ. eigenvalues --   -0.46513  -0.45290  -0.44789  -0.42329  -0.41510
 Alpha  occ. eigenvalues --   -0.38392  -0.37758  -0.34928  -0.33213  -0.30998
 Alpha  occ. eigenvalues --   -0.30504  -0.26903  -0.24840  -0.24096
 Alpha virt. eigenvalues --    0.00587   0.09511   0.10472   0.10638   0.12998
 Alpha virt. eigenvalues --    0.13179   0.14743   0.15395   0.15534   0.16455
 Alpha virt. eigenvalues --    0.17077   0.17649   0.18764   0.20915   0.22784

 Mulliken charges:
               1
     1  C   -0.237519
     2  O   -0.244460
     3  C    0.113501
     4  C   -0.135679
     5  C   -0.080729
     6  C   -0.146140
     7  C    0.094512
     8  O   -0.430550
     9  C   -0.141742
    10  H    0.108180
    11  H    0.129054
    12  H    0.112076
    13  H    0.086102
    14  H    0.099949
    15  H    0.104382
    16  H    0.100649
    17  H    0.093346
    18  H    0.275633
    19  H    0.099435
 Sum of Mulliken charges =   0.00000

 Dipole moment (field-independent basis, Debye):
    X=             -0.3547    Y=              0.6601    Z=              0.1527  Tot=              0.7648
 Quadrupole moment (field-independent basis, Debye-Ang):
   XX=            -52.7656   YY=            -55.2349   ZZ=            -50.6099
   XY=              6.8215   XZ=             -2.5115   YZ=             -0.1258

  Exact polarizability:  92.247   1.270  76.522   3.619  -2.390  63.850
 Approx polarizability: 121.340  -7.792 120.804   7.572  -8.468 101.022

                      1                      2                      3
                      A                      A                      A
 Frequencies --     87.6236               152.9404               173.2374
 Red. masses --      3.0088                 3.1182                 2.1077
 Frc consts  --      0.0136                 0.0430                 0.0373
 IR Inten    --      4.2740                 1.4974                 0.0789

                      4                      5                      6
                      A                      A                      A
 Frequencies --    179.6537               237.7906               343.2319
 Red. masses --      2.0087                 2.0090                 1.4364
 Frc consts  --      0.0382                 0.0669                 0.0997
 IR Inten    --      0.9982                 1.8463                45.0217

                      7                      8                      9
                      A                      A                      A
 Frequencies --    372.8366               385.2522               413.5771
 Red. masses --      3.0252                 2.6997                 3.6773
 Frc consts  --      0.2478                 0.2361                 0.3706
 IR Inten    --     11.4418                26.3379                 9.8023

                     10                     11                     12
                      A                      A                      A
 Frequencies --    466.3555               584.7183               729.7286
 Red. masses --      3.0680                 3.3636                 2.7547
 Frc consts  --      0.3931                 0.6776                 0.8643
 IR Inten    --      6.8221                 0.6577                 5.4977

                     13                     14                     15
                      A                      A                      A
 Frequencies --    769.6707               799.0161               846.1337
 Red. masses --      4.3145                 1.6320                 2.3434
 Frc consts  --      1.5059                 0.6139                 0.9885
 IR Inten    --      0.4676                29.4487                 2.2598

                     16                     17                     18
                      A                      A                      A
 Frequencies --    911.2960               917.7136               959.9734
 Red. masses --      2.4112                 2.0465                 3.0712
 Frc consts  --      1.1798                 1.0155                 1.6675
 IR Inten    --     39.3723                 9.7622                 2.7208

                     19                     20                     21
                      A                      A                      A
 Frequencies --    972.9718               996.2209              1029.1872
 Red. masses --      1.7085                 2.3874                 2.5328
 Frc consts  --      0.9529                 1.3960                 1.5806
 IR Inten    --      2.3654                13.8736                60.8711

                     22                     23                     24
                      A                      A                      A
 Frequencies --   1050.5971              1058.8102              1069.2066
 Red. masses --      1.6065                 3.0718                 1.4608
 Frc consts  --      1.0447                 2.0290                 0.9839
 IR Inten    --      2.8257                86.4630                11.6562

                     25                     26                     27
                      A                      A                      A
 Frequencies --   1100.2867              1128.5392              1164.4734
 Red. masses --      1.3425                 1.2257                 1.9963
 Frc consts  --      0.9576                 0.9197                 1.5949
 IR Inten    --      9.8019                 8.2765                39.2505

                     28                     29                     30
                      A                      A                      A
 Frequencies --   1178.4654              1183.6585              1236.2478
 Red. masses --      2.2484                 1.3396                 1.6948
 Frc consts  --      1.8398                 1.1058                 1.5261
 IR Inten    --     59.0644                 5.7694                20.6968

                     31                     32                     33
                      A                      A                      A
 Frequencies --   1247.5704              1268.8205              1292.6882
 Red. masses --      1.5264                 1.3624                 1.6643
 Frc consts  --      1.3998                 1.2923                 1.6386
 IR Inten    --     56.4438                 2.2597                 2.3791

                     34                     35                     36
                      A                      A                      A
 Frequencies --   1309.0469              1370.7506              1410.4248
 Red. masses --      1.4827                 1.7775                 2.0020
 Frc consts  --      1.4970                 1.9678                 2.3465
 IR Inten    --      1.4257                10.1212                80.9062

                     37                     38                     39
                      A                      A                      A
 Frequencies --   1423.8351              1485.1749              1487.0033
 Red. masses --      1.2384                 1.2055                 1.0589
 Frc consts  --      1.4792                 1.5667                 1.3796
 IR Inten    --     86.9457                 4.3469                 5.5569

                     40                     41                     42
                      A                      A                      A
 Frequencies --   1508.6495              1651.8419              2985.5440
 Red. masses --      1.0637                 6.2658                 1.0363
 Frc consts  --      1.4264                10.0731                 5.4425
 IR Inten    --      4.7091                 4.2989                53.2989

                     43                     44                     45
                      A                      A                      A
 Frequencies --   3037.9917              3042.6191              3071.0637
 Red. masses --      1.1026                 1.0839                 1.0872
 Frc consts  --      5.9957                 5.9122                 6.0412
 IR Inten    --     49.7645                27.9995                25.4163

                     46                     47                     48
                      A                      A                      A
 Frequencies --   3121.7249              3180.1795              3189.0187
 Red. masses --      1.0978                 1.0880                 1.0870
 Frc consts  --      6.3032                 6.4829                 6.5132
 IR Inten    --     30.0892                 3.7088                10.8561

                     49                     50                     51
                      A                      A                      A
 Frequencies --   3192.6736              3214.5329              3795.9676
 Red. masses --      1.0914                 1.1034                 1.0660
 Frc consts  --      6.5543                 6.7174                 9.0497
 IR Inten    --      6.8410                14.3700                15.8578

 - Thermochemistry -
 -------------------
 Temperature   298.150 Kelvin.  Pressure   1.00000 Atm.
 Atom     1 has atomic number  6 and mass  12.00000

 Molecular mass:   126.06808 amu.
 Principal axes and moments of inertia in atomic units:
                           1         2         3
     Eigenvalues --   560.766941621.845011961.27181
           X            0.99939   0.03434  -0.00572
           Y           -0.03438   0.99939  -0.00634
           Z            0.00550   0.00654   0.99996
 This molecule is an asymmetric top.
 Rotational symmetry number  1.
 Warning -- assumption of classical behavior for rotation
           may cause significant error
 Rotational temperatures (Kelvin)      0.15446     0.05340     0.04416
 Rotational constants (GHZ):           3.21834     1.11277     0.92019
 Zero-point vibrational energy     417416.2 (Joules/Mol)
                                   99.76486 (Kcal/Mol)
 Warning -- explicit consideration of  11 degrees of freedom as
           vibrations may cause significant error
 Vibrational temperatures:    126.07   220.05   249.25   258.48   342.13
          (Kelvin)            493.83   536.43   554.29   595.04   670.98
                              841.28  1049.92  1107.38  1149.60  1217.40
                             1311.15  1320.38  1381.19  1399.89  1433.34
                             1480.77  1511.57  1523.39  1538.35  1583.07
                             1623.71  1675.42  1695.55  1703.02  1778.68
                             1794.97  1825.55  1859.89  1883.42  1972.20
                             2029.28  2048.58  2136.83  2139.46  2170.61
                             2376.63  4295.53  4370.99  4377.64  4418.57
                             4491.46  4575.56  4588.28  4593.54  4624.99
                             5461.54

 Zero-point correction=                           0.158985 (Hartree/Particle)
 Thermal correction to Energy=                    0.167544
 Thermal correction to Enthalpy=                  0.168489
 Thermal correction to Gibbs Free Energy=         0.125741
 Sum of electronic and zero-point Energies=           -423.002873
 Sum of electronic and thermal Energies=              -422.994314
 Sum of electronic and thermal Enthalpies=            -422.993370
 Sum of electronic and thermal Free Energies=         -423.036117

                     E (Thermal)             CV                S
                      KCal/Mol        Cal/Mol-Kelvin    Cal/Mol-Kelvin
 Total                  105.136             32.577             89.969
 Electronic               0.000              0.000              0.000
 Translational            0.889              2.981             40.409
 Rotational               0.889              2.981             28.969
 Vibrational            103.358             26.615             20.592
 Vibration     1          0.601              1.958              3.712
 Vibration     2          0.619              1.899              2.635
 Vibration     3          0.627              1.875              2.400
 Vibration     4          0.629              1.867              2.332
 Vibration     5          0.656              1.783              1.819
 Vibration     6          0.722              1.589              1.197
 Vibration     7          0.744              1.528              1.068
 Vibration     8          0.754              1.502              1.018
 Vibration     9          0.777              1.441              0.914
 Vibration    10          0.824              1.325              0.748
 Vibration    11          0.942              1.064              0.477

 Optimization completed.
    -- Stationary point found.
 Normal termination of Gaussian 09 at Tue Jan 28 15:26:07 2020.
