 Gaussian 09, Revision D.01,
 Gaussian 09:  ES64L-G09RevD.01 24-Apr-2013

 -----------------------------
 # b3lyp 6-31G(2df,p) opt Freq
 -----------------------------

 -----
 titel
 -----
 Symbolic Z-matrix:
 Charge =  0 Multiplicity = 1

 SCF Done:  E(RB3LYP) =  -423.197161804     A.U. after   14 cycles
 Optimization completed.
    -- Stationary point found.
 Normal termination of Gaussian 09 at Tue Jan 28 00:43:27 2020.

 ----------------------------------------------------------------------
 #N Geom=AllCheck Guess=TCheck SCRF=Check GenChk RB3LYP/6-31G(2df,p) Fr
 eq
 ----------------------------------------------------------------------

 Structure from the checkpoint file:  "/scratch/puck/g09_f0fab139-7e3f-4509-b62b-83c62d1db333/Gau-167057.chk"
 -----
 titel
 -----
 Charge =  0 Multiplicity = 1

                         Standard orientation:
 ---------------------------------------------------------------------
 Center     Atomic      Atomic             Coordinates (Angstroms)
 Number     Number       Type             X           Y           Z
 ---------------------------------------------------------------------
      1          6           0        1.655519    1.826211   -0.789003
      2          6           0        1.003833    0.896015    0.221448
      3          6           0       -0.308712    1.359566    0.915769
      4          6           0       -0.896497   -0.080894    0.705321
      5          6           0       -2.303941   -0.139517    0.183868
      6          8           0       -2.601056   -0.385963   -0.958585
      7          6           0        0.263370   -0.360476   -0.300249
      8          6           0        0.935453   -1.697798   -0.173031
      9          8           0        2.038715   -1.869063    0.283577
     10          1           0        2.499184    1.334391   -1.284395
     11          1           0        0.943212    2.134588   -1.562786
     12          1           0        2.035335    2.731854   -0.303595
     13          1           0        1.737950    0.579280    0.968347
     14          1           0       -0.241776    1.713847    1.945903
     15          1           0       -0.846578    2.103151    0.319421
     16          1           0       -0.824375   -0.667365    1.627811
     17          1           0       -3.086976    0.102921    0.938205
     18          1           0       -0.130156   -0.250776   -1.318122
     19          1           0        0.318760   -2.560328   -0.515465
 ---------------------------------------------------------------------

 SCF Done:  E(RB3LYP) =  -423.197161804     A.U. after    1 cycles

 The electronic state is 1-A.
 Alpha  occ. eigenvalues --  -19.15109 -19.14302 -10.28082 -10.27254 -10.21656
 Alpha  occ. eigenvalues --  -10.20489 -10.20108 -10.19940 -10.18112  -1.05719
 Alpha  occ. eigenvalues --   -1.04882  -0.87091  -0.74895  -0.71547  -0.67589
 Alpha  occ. eigenvalues --   -0.60180  -0.57586  -0.54846  -0.50601  -0.48792
 Alpha  occ. eigenvalues --   -0.46015  -0.45461  -0.43342  -0.42807  -0.41367
 Alpha  occ. eigenvalues --   -0.39760  -0.39190  -0.38704  -0.34410  -0.33955
 Alpha  occ. eigenvalues --   -0.32368  -0.32127  -0.26170  -0.25346
 Alpha virt. eigenvalues --   -0.03528  -0.02257   0.08093   0.08882   0.11604
 Alpha virt. eigenvalues --    0.12211   0.13252   0.13737   0.15277   0.15681
 Alpha virt. eigenvalues --    0.16613   0.16873   0.17823   0.19260   0.19961

 Mulliken charges:
               1
     1  C   -0.416211
     2  C    0.033005
     3  C   -0.265304
     4  C   -0.107342
     5  C    0.139264
     6  O   -0.243270
     7  C   -0.093274
     8  C    0.127724
     9  O   -0.248970
    10  H    0.129639
    11  H    0.115325
    12  H    0.118842
    13  H    0.098407
    14  H    0.114370
    15  H    0.114446
    16  H    0.102062
    17  H    0.083821
    18  H    0.111595
    19  H    0.085872
 Sum of Mulliken charges =   0.00000

 Dipole moment (field-independent basis, Debye):
    X=             -0.8928    Y=              1.6642    Z=              1.4112  Tot=              2.3576
 Quadrupole moment (field-independent basis, Debye-Ang):
   XX=            -62.3705   YY=            -53.9859   ZZ=            -52.9141
   XY=              3.5548   XZ=             -6.6786   YZ=              0.7176

  Exact polarizability:  87.416   0.972  76.532   0.156   3.435  68.805
 Approx polarizability: 124.906  -1.847 104.615   9.677   6.188 113.094

                      1                      2                      3
                      A                      A                      A
 Frequencies --     48.2822                69.0850                94.7466
 Red. masses --      4.2635                 4.1651                 2.9797
 Frc consts  --      0.0059                 0.0117                 0.0158
 IR Inten    --      3.4093                 7.3581                 5.8949

                      4                      5                      6
                      A                      A                      A
 Frequencies --    145.5671               192.2926               218.4582
 Red. masses --      4.3525                 2.4306                 1.2955
 Frc consts  --      0.0543                 0.0530                 0.0364
 IR Inten    --      4.7743                 3.5110                 0.4836

                      7                      8                      9
                      A                      A                      A
 Frequencies --    254.4667               294.9208               380.3220
 Red. masses --      2.1623                 2.8174                 2.4300
 Frc consts  --      0.0825                 0.1444                 0.2071
 IR Inten    --      4.1112                 2.5686                 1.7473

                     10                     11                     12
                      A                      A                      A
 Frequencies --    417.0836               549.5064               648.1504
 Red. masses --      2.5471                 3.7236                 4.4192
 Frc consts  --      0.2611                 0.6625                 1.0938
 IR Inten    --      1.6186                 0.9704                30.5148

                     13                     14                     15
                      A                      A                      A
 Frequencies --    685.3567               791.9043               837.5603
 Red. masses --      3.6248                 2.2768                 2.1829
 Frc consts  --      1.0032                 0.8412                 0.9022
 IR Inten    --     11.3060                 8.2869                 2.2612

                     16                     17                     18
                      A                      A                      A
 Frequencies --    880.4751               916.3017               925.5537
 Red. masses --      1.6129                 1.6900                 2.3105
 Frc consts  --      0.7367                 0.8360                 1.1662
 IR Inten    --      1.6475                 0.9249                 1.7925

                     19                     20                     21
                      A                      A                      A
 Frequencies --    967.1427               984.0450              1036.6845
 Red. masses --      1.1962                 2.0374                 2.0890
 Frc consts  --      0.6592                 1.1624                 1.3228
 IR Inten    --      0.5074                14.5687                 6.4090

                     22                     23                     24
                      A                      A                      A
 Frequencies --   1087.3094              1108.0048              1130.9573
 Red. masses --      2.1203                 2.4808                 2.1444
 Frc consts  --      1.4769                 1.7944                 1.6160
 IR Inten    --     17.2932                 5.4020                 2.4822

                     25                     26                     27
                      A                      A                      A
 Frequencies --   1144.7334              1160.4412              1201.2541
 Red. masses --      1.9426                 2.0118                 1.4263
 Frc consts  --      1.4998                 1.5961                 1.2126
 IR Inten    --     15.2420                 5.0509                18.0039

                     28                     29                     30
                      A                      A                      A
 Frequencies --   1239.0085              1254.9679              1262.6168
 Red. masses --      1.2171                 1.3688                 1.4027
 Frc consts  --      1.1008                 1.2701                 1.3176
 IR Inten    --      2.2612                 1.0656                 5.3694

                     31                     32                     33
                      A                      A                      A
 Frequencies --   1325.6444              1348.3462              1402.4797
 Red. masses --      1.6277                 1.4748                 1.3834
 Frc consts  --      1.6853                 1.5797                 1.6032
 IR Inten    --      6.6477                 6.9592                 7.4539

                     34                     35                     36
                      A                      A                      A
 Frequencies --   1412.1901              1417.5092              1421.1057
 Red. masses --      1.4558                 1.2325                 1.2176
 Frc consts  --      1.7105                 1.4591                 1.4488
 IR Inten    --      6.1586                13.3118                10.2345

                     37                     38                     39
                      A                      A                      A
 Frequencies --   1487.6462              1493.8948              1496.4881
 Red. masses --      1.1126                 1.0496                 1.0486
 Frc consts  --      1.4507                 1.3800                 1.3835
 IR Inten    --      0.2592                 4.0534                 6.2710

                     40                     41                     42
                      A                      A                      A
 Frequencies --   1816.6440              1822.4339              2871.2541
 Red. masses --     10.5271                10.1031                 1.0828
 Frc consts  --     20.4690                19.7700                 5.2595
 IR Inten    --    237.6800                64.2666               119.0464

                     43                     44                     45
                      A                      A                      A
 Frequencies --   2873.4491              3026.2039              3046.6930
 Red. masses --      1.0827                 1.0355                 1.0825
 Frc consts  --      5.2671                 5.5874                 5.9202
 IR Inten    --    130.4815                21.7287                 3.6580

                     46                     47                     48
                      A                      A                      A
 Frequencies --   3054.8484              3056.9265              3068.2961
 Red. masses --      1.0742                 1.0716                 1.0833
 Frc consts  --      5.9060                 5.9002                 6.0088
 IR Inten    --     19.2940                15.0628                 4.1116

                     49                     50                     51
                      A                      A                      A
 Frequencies --   3095.5042              3100.9392              3120.9528
 Red. masses --      1.1002                 1.1009                 1.1061
 Frc consts  --      6.2112                 6.2373                 6.3480
 IR Inten    --     25.0223                21.0271                27.9206

 - Thermochemistry -
 -------------------
 Temperature   298.150 Kelvin.  Pressure   1.00000 Atm.
 Atom     1 has atomic number  6 and mass  12.00000

 Molecular mass:   126.06808 amu.
 Principal axes and moments of inertia in atomic units:
                           1         2         3
     Eigenvalues --   895.050121386.414891879.31590
           X            0.99728   0.06675  -0.03111
           Y           -0.06698   0.99773  -0.00640
           Z            0.03061   0.00847   0.99950
 This molecule is an asymmetric top.
 Rotational symmetry number  1.
 Warning -- assumption of classical behavior for rotation
           may cause significant error
 Rotational temperatures (Kelvin)      0.09677     0.06247     0.04609
 Rotational constants (GHZ):           2.01636     1.30173     0.96032
 Zero-point vibrational energy     410837.4 (Joules/Mol)
                                   98.19249 (Kcal/Mol)
 Warning -- explicit consideration of  11 degrees of freedom as
           vibrations may cause significant error
 Vibrational temperatures:     69.47    99.40   136.32   209.44   276.67
          (Kelvin)            314.31   366.12   424.32   547.20   600.09
                              790.62   932.54   986.07  1139.37  1205.06
                             1266.81  1318.35  1331.66  1391.50  1415.82
                             1491.56  1564.39  1594.17  1627.19  1647.01
                             1669.61  1728.33  1782.65  1805.62  1816.62
                             1907.30  1939.97  2017.85  2031.82  2039.48
                             2044.65  2140.39  2149.38  2153.11  2613.74
                             2622.07  4131.09  4134.25  4354.03  4383.51
                             4395.24  4398.23  4414.59  4453.73  4461.55
                             4490.35

 Zero-point correction=                           0.156480 (Hartree/Particle)
 Thermal correction to Energy=                    0.166076
 Thermal correction to Enthalpy=                  0.167020
 Thermal correction to Gibbs Free Energy=         0.120851
 Sum of electronic and zero-point Energies=           -423.040682
 Sum of electronic and thermal Energies=              -423.031086
 Sum of electronic and thermal Enthalpies=            -423.030142
 Sum of electronic and thermal Free Energies=         -423.076311

                     E (Thermal)             CV                S
                      KCal/Mol        Cal/Mol-Kelvin    Cal/Mol-Kelvin
 Total                  104.214             33.586             97.171
 Electronic               0.000              0.000              0.000
 Translational            0.889              2.981             40.409
 Rotational               0.889              2.981             29.235
 Vibrational            102.437             27.624             27.528
 Vibration     1          0.595              1.978              4.887
 Vibration     2          0.598              1.969              4.179
 Vibration     3          0.603              1.953              3.560
 Vibration     4          0.617              1.907              2.729
 Vibration     5          0.634              1.851              2.206
 Vibration     6          0.646              1.813              1.972
 Vibration     7          0.665              1.755              1.699
 Vibration     8          0.689              1.683              1.446
 Vibration     9          0.750              1.512              1.038
 Vibration    10          0.780              1.433              0.902
 Vibration    11          0.905              1.141              0.545

 Normal termination of Gaussian 09 at Tue Jan 28 01:16:44 2020.
