 Gaussian 09, Revision D.01,
 Gaussian 09:  ES64L-G09RevD.01 24-Apr-2013

 -----------------------------
 # b3lyp 6-31G(2df,p) opt Freq
 -----------------------------

 -----
 titel
 -----
 Symbolic Z-matrix:
 Charge =  0 Multiplicity = 1

 SCF Done:  E(RB3LYP) =  -423.142513772     A.U. after   14 cycles
 SCF Done:  E(RB3LYP) =  -423.142513477     A.U. after    7 cycles
 SCF Done:  E(RB3LYP) =  -423.142513692     A.U. after    7 cycles
 SCF Done:  E(RB3LYP) =  -423.142513819     A.U. after    6 cycles
 Optimization completed.
    -- Stationary point found.
 Normal termination of Gaussian 09 at Mon Jan 27 14:22:55 2020.

 ----------------------------------------------------------------------
 #N Geom=AllCheck Guess=TCheck SCRF=Check GenChk RB3LYP/6-31G(2df,p) Fr
 eq
 ----------------------------------------------------------------------

 Structure from the checkpoint file:  "/scratch/puck/g09_e7e6814c-a556-424f-a2e9-d7b84eff1414/Gau-4097.chk"
 -----
 titel
 -----
 Charge =  0 Multiplicity = 1

                         Standard orientation:
 ---------------------------------------------------------------------
 Center     Atomic      Atomic             Coordinates (Angstroms)
 Number     Number       Type             X           Y           Z
 ---------------------------------------------------------------------
      1          8           0        4.600934   -0.306924    0.000371
      2          6           0        3.430061   -0.577712    0.000023
      3          6           0        2.325179    0.464986   -0.000120
      4          8           0        1.091496   -0.202879   -0.000452
      5          6           0       -0.024136    0.664519   -0.000059
      6          6           0       -1.290469   -0.180282   -0.000153
      7          6           0       -2.561640    0.690863    0.000171
      8          6           0       -3.786439   -0.099108    0.000147
      9          6           0       -4.782700   -0.771095    0.000072
     10          1           0        3.053250   -1.624162   -0.000115
     11          1           0        2.448509    1.111021    0.886132
     12          1           0        2.448907    1.111189   -0.886196
     13          1           0        0.004146    1.320770    0.886984
     14          1           0        0.003927    1.321307   -0.886712
     15          1           0       -1.288758   -0.831468   -0.879767
     16          1           0       -1.288601   -0.831920    0.879125
     17          1           0       -2.555233    1.351775    0.877219
     18          1           0       -2.555409    1.352143   -0.876599
     19          1           0       -5.669311   -1.355254    0.000094
 ---------------------------------------------------------------------

 SCF Done:  E(RB3LYP) =  -423.142513819     A.U. after    1 cycles

 The electronic state is 1-A.
 Alpha  occ. eigenvalues --  -19.15964 -19.14645 -10.27757 -10.24733 -10.24434
 Alpha  occ. eigenvalues --  -10.21789 -10.19749 -10.18412 -10.17292  -1.06052
 Alpha  occ. eigenvalues --   -1.04920  -0.81992  -0.76646  -0.72503  -0.67583
 Alpha  occ. eigenvalues --   -0.61468  -0.58667  -0.53278  -0.51138  -0.50879
 Alpha  occ. eigenvalues --   -0.47797  -0.47214  -0.45327  -0.44132  -0.42546
 Alpha  occ. eigenvalues --   -0.39684  -0.38364  -0.37737  -0.35416  -0.33937
 Alpha  occ. eigenvalues --   -0.27582  -0.26792  -0.26603  -0.25875
 Alpha virt. eigenvalues --   -0.02976   0.05011   0.05525   0.07707   0.08981
 Alpha virt. eigenvalues --    0.12345   0.12757   0.12862   0.13819   0.14300
 Alpha virt. eigenvalues --    0.16030   0.16896   0.18729   0.20248   0.20880

 Mulliken charges:
               1
     1  O   -0.236874
     2  C    0.139287
     3  C   -0.146521
     4  O   -0.249011
     5  C   -0.053301
     6  C   -0.192999
     7  C   -0.356992
     8  C    0.290058
     9  C   -0.428603
    10  H    0.098266
    11  H    0.122059
    12  H    0.122059
    13  H    0.091780
    14  H    0.091780
    15  H    0.123839
    16  H    0.123835
    17  H    0.132493
    18  H    0.132495
    19  H    0.196348
 Sum of Mulliken charges =   0.00000

 Dipole moment (field-independent basis, Debye):
    X=             -2.0969    Y=              1.1465    Z=              0.0000  Tot=              2.3899
 Quadrupole moment (field-independent basis, Debye-Ang):
   XX=            -70.3400   YY=            -51.1238   ZZ=            -52.5242
   XY=              2.4732   XZ=             -0.0025   YZ=             -0.0003

  Exact polarizability: 113.269  10.869  70.535   0.002   0.001  56.095
 Approx polarizability: 141.714  23.077 108.027   0.007   0.004  85.355

                      1                      2                      3
                      A                      A                      A
 Frequencies --     42.3361                64.8283                66.4562
 Red. masses --      4.9584                 2.0901                 5.5660
 Frc consts  --      0.0052                 0.0052                 0.0145
 IR Inten    --      2.3347                 1.8588                 1.0094

                      4                      5                      6
                      A                      A                      A
 Frequencies --     71.2112               132.0326               137.3695
 Red. masses --      2.7858                 2.5491                 2.4170
 Frc consts  --      0.0083                 0.0262                 0.0269
 IR Inten    --      8.9621                 4.0624                 1.4435

                      7                      8                      9
                      A                      A                      A
 Frequencies --    156.6964               255.9963               324.5782
 Red. masses --      4.8818                 4.5889                 5.8284
 Frc consts  --      0.0706                 0.1772                 0.3618
 IR Inten    --      1.7740                 0.2511                 1.5814

                     10                     11                     12
                      A                      A                      A
 Frequencies --    345.7790               442.9461               520.1384
 Red. masses --      3.2578                 4.0179                 6.1936
 Frc consts  --      0.2295                 0.4645                 0.9873
 IR Inten    --      3.7121                16.5215                 5.3858

                     13                     14                     15
                      A                      A                      A
 Frequencies --    582.6402               620.4626               641.0091
 Red. masses --      4.4843                 1.1980                 1.2161
 Frc consts  --      0.8969                 0.2717                 0.2944
 IR Inten    --      5.5114                44.4276                42.5038

                     16                     17                     18
                      A                      A                      A
 Frequencies --    740.4891               758.2704               870.5677
 Red. masses --      1.2474                 1.1133                 1.2353
 Frc consts  --      0.4030                 0.3772                 0.5516
 IR Inten    --      0.2054                 0.5414                 0.0388

                     19                     20                     21
                      A                      A                      A
 Frequencies --    949.1329              1015.9373              1033.9604
 Red. masses --      5.0026                 3.5130                 4.2211
 Frc consts  --      2.6552                 2.1363                 2.6588
 IR Inten    --      7.3623                38.8130                22.3845

                     22                     23                     24
                      A                      A                      A
 Frequencies --   1057.3406              1106.8730              1110.2508
 Red. masses --      2.8389                 4.6588                 1.7122
 Frc consts  --      1.8700                 3.3629                 1.2435
 IR Inten    --      2.4714                 4.7632                 0.1566

                     25                     26                     27
                      A                      A                      A
 Frequencies --   1123.2633              1177.4238              1218.3817
 Red. masses --      1.6027                 7.7258                 1.2048
 Frc consts  --      1.1914                 6.3104                 1.0537
 IR Inten    --      1.9270               231.7673                 1.2341

                     28                     29                     30
                      A                      A                      A
 Frequencies --   1239.1188              1275.8309              1303.1646
 Red. masses --      1.1688                 1.3042                 1.1547
 Frc consts  --      1.0574                 1.2508                 1.1553
 IR Inten    --      6.3556                10.8215                 0.1531

                     31                     32                     33
                      A                      A                      A
 Frequencies --   1313.3904              1344.8971              1374.0760
 Red. masses --      1.0603                 1.2795                 1.4685
 Frc consts  --      1.0777                 1.3635                 1.6336
 IR Inten    --      0.1958                24.0140                 0.7304

                     34                     35                     36
                      A                      A                      A
 Frequencies --   1402.0338              1438.6749              1476.1034
 Red. masses --      1.2752                 1.3936                 1.0825
 Frc consts  --      1.4769                 1.6995                 1.3897
 IR Inten    --     21.8490                22.7104                 3.4529

                     37                     38                     39
                      A                      A                      A
 Frequencies --   1482.1813              1500.2646              1529.6536
 Red. masses --      1.1337                 1.0878                 1.0934
 Frc consts  --      1.4675                 1.4425                 1.5074
 IR Inten    --     12.3664                 1.3040                 2.3186

                     40                     41                     42
                      A                      A                      A
 Frequencies --   1845.7701              2241.8862              2900.9521
 Red. masses --     10.6592                 5.9224                 1.0846
 Frc consts  --     21.3959                17.5377                 5.3776
 IR Inten    --    168.5006                 3.1594                77.5854

                     43                     44                     45
                      A                      A                      A
 Frequencies --   2948.0300              2960.5914              2976.3078
 Red. masses --      1.0540                 1.0546                 1.1044
 Frc consts  --      5.3971                 5.4461                 5.7641
 IR Inten    --     32.4002                51.9592                65.7859

                     46                     47                     48
                      A                      A                      A
 Frequencies --   2986.7607              3014.3144              3042.5748
 Red. masses --      1.1038                 1.0581                 1.1008
 Frc consts  --      5.8014                 5.6644                 6.0041
 IR Inten    --     13.1214                18.4607                 8.2412

                     49                     50                     51
                      A                      A                      A
 Frequencies --   3058.5230              3105.0031              3506.2711
 Red. masses --      1.0589                 1.1055                 1.1626
 Frc consts  --      5.8364                 6.2796                 8.4214
 IR Inten    --     18.0561                25.7845                69.4006

 - Thermochemistry -
 -------------------
 Temperature   298.150 Kelvin.  Pressure   1.00000 Atm.
 Atom     1 has atomic number  8 and mass  15.99491

 Molecular mass:   126.06808 amu.
 Principal axes and moments of inertia in atomic units:
                           1         2         3
     Eigenvalues --   175.801114233.218674364.18785
           X            1.00000   0.00286   0.00000
           Y           -0.00286   1.00000   0.00001
           Z            0.00000  -0.00001   1.00000
 This molecule is an asymmetric top.
 Rotational symmetry number  1.
 Rotational temperatures (Kelvin)      0.49268     0.02046     0.01985
 Rotational constants (GHZ):          10.26581     0.42633     0.41353
 Zero-point vibrational energy     405729.9 (Joules/Mol)
                                   96.97178 (Kcal/Mol)
 Warning -- explicit consideration of  14 degrees of freedom as
           vibrations may cause significant error
 Vibrational temperatures:     60.91    93.27    95.62   102.46   189.97
          (Kelvin)            197.64   225.45   368.32   467.00   497.50
                              637.30   748.36   838.29   892.71   922.27
                             1065.40  1090.98  1252.55  1365.59  1461.71
                             1487.64  1521.28  1592.54  1597.40  1616.12
                             1694.05  1752.98  1782.81  1835.63  1874.96
                             1889.67  1935.00  1976.99  2017.21  2069.93
                             2123.78  2132.53  2158.54  2200.83  2655.65
                             3225.57  4173.82  4241.55  4259.63  4282.24
                             4297.28  4336.92  4377.58  4400.53  4467.40
                             5044.74

 Zero-point correction=                           0.154534 (Hartree/Particle)
 Thermal correction to Energy=                    0.165354
 Thermal correction to Enthalpy=                  0.166298
 Thermal correction to Gibbs Free Energy=         0.116628
 Sum of electronic and zero-point Energies=           -422.987979
 Sum of electronic and thermal Energies=              -422.977160
 Sum of electronic and thermal Enthalpies=            -422.976215
 Sum of electronic and thermal Free Energies=         -423.025886

                     E (Thermal)             CV                S
                      KCal/Mol        Cal/Mol-Kelvin    Cal/Mol-Kelvin
 Total                  103.761             36.226            104.540
 Electronic               0.000              0.000              0.000
 Translational            0.889              2.981             40.409
 Rotational               0.889              2.981             29.564
 Vibrational            101.984             30.265             34.568
 Vibration     1          0.595              1.980              5.147
 Vibration     2          0.597              1.971              4.305
 Vibration     3          0.598              1.970              4.256
 Vibration     4          0.598              1.968              4.120
 Vibration     5          0.612              1.921              2.916
 Vibration     6          0.614              1.916              2.840
 Vibration     7          0.620              1.895              2.589
 Vibration     8          0.666              1.753              1.689
 Vibration     9          0.709              1.626              1.287
 Vibration    10          0.724              1.584              1.185
 Vibration    11          0.803              1.376              0.817
 Vibration    12          0.875              1.205              0.610
 Vibration    13          0.939              1.069              0.480
 Vibration    14          0.981              0.989              0.416

 Optimization completed.
    -- Stationary point found.
 Normal termination of Gaussian 09 at Mon Jan 27 15:41:56 2020.
