 Gaussian 09, Revision D.01,
 Gaussian 09:  ES64L-G09RevD.01 24-Apr-2013

 -----------------------------
 # b3lyp 6-31G(2df,p) opt Freq
 -----------------------------

 -----
 titel
 -----
 Symbolic Z-matrix:
 Charge =  0 Multiplicity = 1

 SCF Done:  E(RB3LYP) =  -423.124970496     A.U. after   14 cycles
 Optimization completed.
    -- Stationary point found.
 Normal termination of Gaussian 09 at Tue Jan 28 14:06:10 2020.

 ----------------------------------------------------------------------
 #N Geom=AllCheck Guess=TCheck SCRF=Check GenChk RB3LYP/6-31G(2df,p) Fr
 eq
 ----------------------------------------------------------------------

 Structure from the checkpoint file:  "/scratch/puck/g09_643f29fe-aae4-4d50-821a-2a640edcf18f/Gau-98268.chk"
 -----
 titel
 -----
 Charge =  0 Multiplicity = 1

                         Standard orientation:
 ---------------------------------------------------------------------
 Center     Atomic      Atomic             Coordinates (Angstroms)
 Number     Number       Type             X           Y           Z
 ---------------------------------------------------------------------
      1          6           0       -2.623875    0.111238    0.203753
      2          8           0       -1.396736    0.230419   -0.488903
      3          6           0       -0.565942   -0.884027   -0.354115
      4          6           0        0.872798   -0.708311   -0.888727
      5          6           0        1.249911   -1.918369    0.014072
      6          6           0        0.351453   -1.018001    0.909828
      7          6           0        1.161919    0.196026    0.358225
      8          6           0        0.627846    1.611339    0.415668
      9          8           0        1.025970    2.489382   -0.307565
     10          1           0       -2.475945    0.035309    1.290553
     11          1           0       -3.205797    1.008857   -0.014459
     12          1           0       -3.187444   -0.771421   -0.132920
     13          1           0       -1.089904   -1.801398   -0.658789
     14          1           0        1.174637   -0.514967   -1.917049
     15          1           0        0.842416   -2.891572   -0.272079
     16          1           0        2.299209   -1.991807    0.304666
     17          1           0        0.053428   -1.206511    1.941885
     18          1           0        2.218080    0.215193    0.653202
     19          1           0       -0.107205    1.820551    1.224520
 ---------------------------------------------------------------------

 SCF Done:  E(RB3LYP) =  -423.124970496     A.U. after    1 cycles

 The electronic state is 1-A.
 Alpha  occ. eigenvalues --  -19.15630 -19.12247 -10.25899 -10.24680 -10.23476
 Alpha  occ. eigenvalues --  -10.21145 -10.20996 -10.20220 -10.20054  -1.05269
 Alpha  occ. eigenvalues --   -1.03030  -0.91950  -0.71795  -0.70809  -0.64228
 Alpha  occ. eigenvalues --   -0.63794  -0.58751  -0.54483  -0.50864  -0.50330
 Alpha  occ. eigenvalues --   -0.47726  -0.45920  -0.43708  -0.42738  -0.40349
 Alpha  occ. eigenvalues --   -0.37570  -0.36968  -0.35041  -0.33844  -0.33345
 Alpha  occ. eigenvalues --   -0.32058  -0.30790  -0.26447  -0.23589
 Alpha virt. eigenvalues --   -0.00754   0.08351   0.10226   0.11433   0.11987
 Alpha virt. eigenvalues --    0.13416   0.13616   0.14042   0.15221   0.16417
 Alpha virt. eigenvalues --    0.16823   0.16845   0.17493   0.19189   0.20518

 Mulliken charges:
               1
     1  C   -0.249382
     2  O   -0.245409
     3  C    0.182678
     4  C   -0.095680
     5  C   -0.237334
     6  C   -0.127743
     7  C   -0.053314
     8  C    0.127177
     9  O   -0.264047
    10  H    0.111484
    11  H    0.137897
    12  H    0.112758
    13  H    0.068303
    14  H    0.091616
    15  H    0.097531
    16  H    0.104417
    17  H    0.075918
    18  H    0.095997
    19  H    0.067134
 Sum of Mulliken charges =   0.00000

 Dipole moment (field-independent basis, Debye):
    X=             -1.2508    Y=             -3.2568    Z=              1.6286  Tot=              3.8501
 Quadrupole moment (field-independent basis, Debye-Ang):
   XX=            -49.1955   YY=            -60.2200   ZZ=            -52.6521
   XY=             -3.0944   XZ=             -0.1098   YZ=              3.1974

  Exact polarizability:  82.551  -1.305  83.309  -2.686   0.305  65.834
 Approx polarizability: 112.232   3.025 120.047  -5.086  -4.747 106.552

                      1                      2                      3
                      A                      A                      A
 Frequencies --     76.3194                88.6317               143.3132
 Red. masses --      5.4659                 2.5765                 3.4912
 Frc consts  --      0.0188                 0.0119                 0.0422
 IR Inten    --      3.4690                 0.0405                 2.5853

                      4                      5                      6
                      A                      A                      A
 Frequencies --    176.8502               229.4458               288.4690
 Red. masses --      1.1353                 3.0258                 2.9495
 Frc consts  --      0.0209                 0.0939                 0.1446
 IR Inten    --      0.5951                 7.5045                12.4954

                      7                      8                      9
                      A                      A                      A
 Frequencies --    368.9914               436.0976               451.5340
 Red. masses --      3.8143                 3.4666                 3.3960
 Frc consts  --      0.3060                 0.3884                 0.4079
 IR Inten    --      2.2877                 0.8610                 0.0867

                     10                     11                     12
                      A                      A                      A
 Frequencies --    584.3770               648.4042               767.7327
 Red. masses --      3.6384                 3.4300                 2.8590
 Frc consts  --      0.7321                 0.8496                 0.9929
 IR Inten    --      6.3105                 8.4583                 1.3305

                     13                     14                     15
                      A                      A                      A
 Frequencies --    795.6018               864.0621               895.5272
 Red. masses --      2.8414                 2.4184                 2.0511
 Frc consts  --      1.0597                 1.0638                 0.9692
 IR Inten    --      2.4006                11.3196                 1.5220

                     16                     17                     18
                      A                      A                      A
 Frequencies --    913.0072               928.4300               999.5844
 Red. masses --      1.9413                 2.1077                 1.8690
 Frc consts  --      0.9534                 1.0704                 1.1003
 IR Inten    --      4.8125                 0.2953                20.8152

                     19                     20                     21
                      A                      A                      A
 Frequencies --   1014.6078              1022.1404              1061.7323
 Red. masses --      1.3820                 1.5422                 2.5409
 Frc consts  --      0.8382                 0.9493                 1.6876
 IR Inten    --      0.2256                 2.3295                27.0681

                     22                     23                     24
                      A                      A                      A
 Frequencies --   1078.4990              1095.1424              1107.5456
 Red. masses --      1.5206                 1.5726                 3.1481
 Frc consts  --      1.0421                 1.1113                 2.2752
 IR Inten    --      3.4945                 2.9501                21.1704

                     25                     26                     27
                      A                      A                      A
 Frequencies --   1135.9783              1154.9451              1180.0223
 Red. masses --      2.4299                 1.7032                 1.6187
 Frc consts  --      1.8475                 1.3385                 1.3280
 IR Inten    --     21.7864                61.0663                28.0245

                     28                     29                     30
                      A                      A                      A
 Frequencies --   1186.0337              1209.8803              1227.2172
 Red. masses --      1.5834                 1.4748                 1.7032
 Frc consts  --      1.3123                 1.2720                 1.5113
 IR Inten    --     18.6123                 5.4120                 8.6790

                     31                     32                     33
                      A                      A                      A
 Frequencies --   1228.6775              1249.4000              1279.4935
 Red. masses --      1.7256                 1.8094                 1.9503
 Frc consts  --      1.5348                 1.6641                 1.8811
 IR Inten    --     17.5546                50.6932                31.4499

                     34                     35                     36
                      A                      A                      A
 Frequencies --   1341.1875              1408.5789              1422.6636
 Red. masses --      1.3925                 1.2297                 1.2454
 Frc consts  --      1.4758                 1.4376                 1.4851
 IR Inten    --      1.4529                31.6211                 6.4334

                     37                     38                     39
                      A                      A                      A
 Frequencies --   1483.1817              1489.6771              1504.9483
 Red. masses --      1.1412                 1.0646                 1.0591
 Frc consts  --      1.4791                 1.3920                 1.4133
 IR Inten    --      2.1072                 5.2229                 6.0373

                     40                     41                     42
                      A                      A                      A
 Frequencies --   1519.2719              1818.3627              2872.1023
 Red. masses --      1.1334                10.8406                 1.0830
 Frc consts  --      1.5414                21.1186                 5.2635
 IR Inten    --      1.1729               183.9595               117.8759

                     43                     44                     45
                      A                      A                      A
 Frequencies --   2985.5880              3003.7825              3038.1375
 Red. masses --      1.0379                 1.0817                 1.1036
 Frc consts  --      5.4511                 5.7501                 6.0020
 IR Inten    --     43.7596                73.5773                42.3708

                     46                     47                     48
                      A                      A                      A
 Frequencies --   3041.3710              3061.5079              3106.8247
 Red. masses --      1.0826                 1.0553                 1.0914
 Frc consts  --      5.9003                 5.8278                 6.2071
 IR Inten    --     21.6240                47.4883                48.7317

                     49                     50                     51
                      A                      A                      A
 Frequencies --   3127.0507              3130.3163              3132.2205
 Red. masses --      1.0974                 1.1030                 1.0996
 Frc consts  --      6.3226                 6.3678                 6.3561
 IR Inten    --     21.5457                31.3631                27.0776

 - Thermochemistry -
 -------------------
 Temperature   298.150 Kelvin.  Pressure   1.00000 Atm.
 Atom     1 has atomic number  6 and mass  12.00000

 Molecular mass:   126.06808 amu.
 Principal axes and moments of inertia in atomic units:
                           1         2         3
     Eigenvalues --   933.71156 976.971581610.68698
           X            0.68337   0.72994  -0.01361
           Y            0.73007  -0.68324   0.01337
           Z           -0.00045   0.01907   0.99982
 This molecule is an asymmetric top.
 Rotational symmetry number  1.
 Warning -- assumption of classical behavior for rotation
           may cause significant error
 Rotational temperatures (Kelvin)      0.09276     0.08866     0.05377
 Rotational constants (GHZ):           1.93287     1.84728     1.12048
 Zero-point vibrational energy     414951.5 (Joules/Mol)
                                   99.17578 (Kcal/Mol)
 Warning -- explicit consideration of  10 degrees of freedom as
           vibrations may cause significant error
 Vibrational temperatures:    109.81   127.52   206.20   254.45   330.12
          (Kelvin)            415.04   530.90   627.45   649.66   840.79
                              932.91  1104.59  1144.69  1243.19  1288.46
                             1313.61  1335.80  1438.18  1459.79  1470.63
                             1527.59  1551.72  1575.66  1593.51  1634.42
                             1661.71  1697.79  1706.44  1740.75  1765.69
                             1767.79  1797.61  1840.90  1929.67  2026.63
                             2046.89  2133.96  2143.31  2165.28  2185.89
                             2616.22  4132.31  4295.59  4321.77  4371.20
                             4375.85  4404.82  4470.02  4499.12  4503.82
                             4506.56

 Zero-point correction=                           0.158047 (Hartree/Particle)
 Thermal correction to Energy=                    0.166593
 Thermal correction to Enthalpy=                  0.167538
 Thermal correction to Gibbs Free Energy=         0.124336
 Sum of electronic and zero-point Energies=           -422.966924
 Sum of electronic and thermal Energies=              -422.958377
 Sum of electronic and thermal Enthalpies=            -422.957433
 Sum of electronic and thermal Free Energies=         -423.000634

                     E (Thermal)             CV                S
                      KCal/Mol        Cal/Mol-Kelvin    Cal/Mol-Kelvin
 Total                  104.539             31.548             90.925
 Electronic               0.000              0.000              0.000
 Translational            0.889              2.981             40.409
 Rotational               0.889              2.981             28.776
 Vibrational            102.762             25.586             21.740
 Vibration     1          0.599              1.965              3.983
 Vibration     2          0.601              1.957              3.690
 Vibration     3          0.616              1.910              2.759
 Vibration     4          0.628              1.871              2.361
 Vibration     5          0.652              1.796              1.883
 Vibration     6          0.685              1.695              1.483
 Vibration     7          0.741              1.536              1.084
 Vibration     8          0.797              1.392              0.839
 Vibration     9          0.810              1.358              0.791
 Vibration    10          0.941              1.065              0.477

 Normal termination of Gaussian 09 at Tue Jan 28 14:53:34 2020.
