 Gaussian 09, Revision D.01,
 Gaussian 09:  ES64L-G09RevD.01 24-Apr-2013

 -----------------------------
 # b3lyp 6-31G(2df,p) opt Freq
 -----------------------------

 -----
 titel
 -----
 Symbolic Z-matrix:
 Charge =  0 Multiplicity = 1

 SCF Done:  E(RB3LYP) =  -423.107312073     A.U. after   13 cycles
 Optimization completed.
    -- Stationary point found.
 Normal termination of Gaussian 09 at Tue Jan 28 03:04:12 2020.

 ----------------------------------------------------------------------
 #N Geom=AllCheck Guess=TCheck SCRF=Check GenChk RB3LYP/6-31G(2df,p) Fr
 eq
 ----------------------------------------------------------------------

 Structure from the checkpoint file:  "/scratch/puck/g09_41f0d2be-efe0-4247-89dc-b0e2b86208e6/Gau-44502.chk"
 -----
 titel
 -----
 Charge =  0 Multiplicity = 1

                         Standard orientation:
 ---------------------------------------------------------------------
 Center     Atomic      Atomic             Coordinates (Angstroms)
 Number     Number       Type             X           Y           Z
 ---------------------------------------------------------------------
      1          6           0        2.532675    0.763516   -0.117332
      2          6           0        1.477698   -0.146321    0.482892
      3          8           0        1.115437   -1.247055   -0.429186
      4          6           0       -0.088204   -0.545321   -0.845863
      5          6           0       -1.524145   -0.753456   -0.310882
      6          6           0       -0.964375   -0.740767    1.106585
      7          6           0        0.013891    0.308793    0.442213
      8          6           0       -0.936419    1.445999    0.144446
      9          8           0       -1.990613    0.625256   -0.473119
     10          1           0        2.196112    1.197995   -1.063025
     11          1           0        2.769141    1.578521    0.575302
     12          1           0        3.448752    0.197019   -0.308309
     13          1           0        1.809866   -0.549706    1.446149
     14          1           0       -0.000751   -0.134704   -1.854993
     15          1           0       -2.295275   -1.415426   -0.703743
     16          1           0       -1.629203   -0.382720    1.894714
     17          1           0       -0.449291   -1.655702    1.392691
     18          1           0       -1.347539    1.971925    1.012634
     19          1           0       -0.567128    2.172529   -0.585334
 ---------------------------------------------------------------------

 SCF Done:  E(RB3LYP) =  -423.107312073     A.U. after    1 cycles

 The electronic state is 1-A.
 Alpha  occ. eigenvalues --  -19.14162 -19.13916 -10.24881 -10.23976 -10.23614
 Alpha  occ. eigenvalues --  -10.22876 -10.20475 -10.18532 -10.18455  -1.05344
 Alpha  occ. eigenvalues --   -1.02155  -0.81642  -0.76423  -0.72328  -0.66714
 Alpha  occ. eigenvalues --   -0.63574  -0.57136  -0.53365  -0.51262  -0.49859
 Alpha  occ. eigenvalues --   -0.47374  -0.45368  -0.42758  -0.40617  -0.40363
 Alpha  occ. eigenvalues --   -0.39337  -0.37801  -0.36048  -0.35152  -0.31739
 Alpha  occ. eigenvalues --   -0.31424  -0.26976  -0.26734  -0.24083
 Alpha virt. eigenvalues --    0.06249   0.07623   0.10328   0.11051   0.12491
 Alpha virt. eigenvalues --    0.13708   0.14017   0.15078   0.15399   0.16242
 Alpha virt. eigenvalues --    0.17193   0.18820   0.18901   0.20146   0.21160

 Mulliken charges:
               1
     1  C   -0.402643
     2  C    0.022739
     3  O   -0.319678
     4  C    0.109647
     5  C    0.048153
     6  C   -0.266567
     7  C    0.219775
     8  C   -0.175063
     9  O   -0.296521
    10  H    0.123436
    11  H    0.119306
    12  H    0.132388
    13  H    0.084319
    14  H    0.085002
    15  H    0.078848
    16  H    0.099937
    17  H    0.122525
    18  H    0.103991
    19  H    0.110407
 Sum of Mulliken charges =   0.00000

 Dipole moment (field-independent basis, Debye):
    X=              0.9619    Y=              1.0078    Z=              1.1390  Tot=              1.7995
 Quadrupole moment (field-independent basis, Debye-Ang):
   XX=            -55.7924   YY=            -53.7531   ZZ=            -51.9412
   XY=              4.3918   XZ=             -0.1900   YZ=             -0.2645

  Exact polarizability:  84.221   2.300  71.296   0.152  -0.606  68.075
 Approx polarizability: 116.432  -1.697 109.691   2.948   1.761 106.605

                      1                      2                      3
                      A                      A                      A
 Frequencies --    163.6252               220.2822               238.1441
 Red. masses --      3.2239                 2.6062                 1.0546
 Frc consts  --      0.0509                 0.0745                 0.0352
 IR Inten    --      0.1888                 0.8995                 0.1514

                      4                      5                      6
                      A                      A                      A
 Frequencies --    360.2859               383.0287               422.3868
 Red. masses --      4.4552                 2.4221                 3.6556
 Frc consts  --      0.3407                 0.2094                 0.3843
 IR Inten    --     10.0046                 1.5716                 1.0590

                      7                      8                      9
                      A                      A                      A
 Frequencies --    472.4747               490.7527               564.2069
 Red. masses --      2.2093                 3.3253                 4.1883
 Frc consts  --      0.2906                 0.4718                 0.7855
 IR Inten    --      1.6102                 6.8722                 1.3943

                     10                     11                     12
                      A                      A                      A
 Frequencies --    702.8356               751.8439               832.9124
 Red. masses --      3.6798                 2.6449                 4.0339
 Frc consts  --      1.0710                 0.8809                 1.6488
 IR Inten    --      5.0384                 4.6817                15.0602

                     13                     14                     15
                      A                      A                      A
 Frequencies --    838.1977               854.9614               872.6858
 Red. masses --      3.5702                 3.4965                 3.7180
 Frc consts  --      1.4779                 1.5058                 1.6683
 IR Inten    --     28.0959                16.0680                 8.4765

                     16                     17                     18
                      A                      A                      A
 Frequencies --    905.7540               930.2745               953.8137
 Red. masses --      3.9455                 2.0850                 2.6162
 Frc consts  --      1.9071                 1.0631                 1.4023
 IR Inten    --     20.1238                10.7727                54.2199

                     19                     20                     21
                      A                      A                      A
 Frequencies --    986.3161              1021.4408              1032.1505
 Red. masses --      2.0815                 3.5754                 1.3541
 Frc consts  --      1.1930                 2.1979                 0.8500
 IR Inten    --      4.8922                64.6900                 4.3090

                     22                     23                     24
                      A                      A                      A
 Frequencies --   1061.5491              1065.6342              1093.1073
 Red. masses --      1.9894                 1.4968                 2.1429
 Frc consts  --      1.3209                 1.0015                 1.5086
 IR Inten    --      7.0861                 3.7235                 6.6066

                     25                     26                     27
                      A                      A                      A
 Frequencies --   1118.9344              1133.3599              1174.1991
 Red. masses --      1.7994                 2.0477                 1.3983
 Frc consts  --      1.3274                 1.5497                 1.1359
 IR Inten    --     12.0392                 5.5049                 6.8083

                     28                     29                     30
                      A                      A                      A
 Frequencies --   1200.7365              1231.6428              1247.3480
 Red. masses --      1.7549                 1.8754                 1.5109
 Frc consts  --      1.4907                 1.6762                 1.3850
 IR Inten    --      3.5426                 7.8047                 9.5205

                     31                     32                     33
                      A                      A                      A
 Frequencies --   1251.2803              1276.7439              1301.7216
 Red. masses --      1.2855                 1.5795                 1.4583
 Frc consts  --      1.1858                 1.5170                 1.4559
 IR Inten    --      1.3788                 9.8560                 2.0363

                     34                     35                     36
                      A                      A                      A
 Frequencies --   1331.6373              1363.5091              1380.9156
 Red. masses --      1.4913                 1.8225                 1.5038
 Frc consts  --      1.5581                 1.9964                 1.6895
 IR Inten    --      2.9309                 0.8608                16.0246

                     37                     38                     39
                      A                      A                      A
 Frequencies --   1406.6754              1479.9128              1486.2196
 Red. masses --      1.3048                 1.1287                 1.0588
 Frc consts  --      1.5211                 1.4565                 1.3779
 IR Inten    --     13.3519                 3.9247                 3.5973

                     40                     41                     42
                      A                      A                      A
 Frequencies --   1493.2702              1532.4665              3036.4824
 Red. masses --      1.0490                 1.1068                 1.0525
 Frc consts  --      1.3782                 1.5315                 5.7175
 IR Inten    --      3.1202                 0.5574                43.1965

                     43                     44                     45
                      A                      A                      A
 Frequencies --   3037.8601              3043.0850              3076.6712
 Red. masses --      1.0436                 1.0820                 1.0870
 Frc consts  --      5.6745                 5.9033                 6.0623
 IR Inten    --     33.3796                42.2571                25.7067

                     46                     47                     48
                      A                      A                      A
 Frequencies --   3085.1061              3087.4698              3109.8084
 Red. masses --      1.0712                 1.0966                 1.1004
 Frc consts  --      6.0073                 6.1591                 6.2702
 IR Inten    --      2.8170                56.2477                19.4078

                     49                     50                     51
                      A                      A                      A
 Frequencies --   3120.1396              3126.7843              3166.8821
 Red. masses --      1.1022                 1.0921                 1.1073
 Frc consts  --      6.3222                 6.2911                 6.5431
 IR Inten    --     24.8265                54.1847                10.0538

 - Thermochemistry -
 -------------------
 Temperature   298.150 Kelvin.  Pressure   1.00000 Atm.
 Atom     1 has atomic number  6 and mass  12.00000

 Molecular mass:   126.06808 amu.
 Principal axes and moments of inertia in atomic units:
                           1         2         3
     Eigenvalues --   536.361231162.423481334.78979
           X            0.99906   0.04178  -0.01160
           Y           -0.04229   0.99797  -0.04752
           Z            0.00960   0.04797   0.99880
 This molecule is an asymmetric top.
 Rotational symmetry number  1.
 Warning -- assumption of classical behavior for rotation
           may cause significant error
 Rotational temperatures (Kelvin)      0.16148     0.07451     0.06489
 Rotational constants (GHZ):           3.36479     1.55257     1.35208
 Zero-point vibrational energy     421800.4 (Joules/Mol)
                                  100.81272 (Kcal/Mol)
 Warning -- explicit consideration of   9 degrees of freedom as
           vibrations may cause significant error
 Vibrational temperatures:    235.42   316.94   342.64   518.37   551.09
          (Kelvin)            607.72   679.78   706.08   811.77  1011.22
                             1081.73  1198.37  1205.98  1230.10  1255.60
                             1303.18  1338.46  1372.32  1419.09  1469.62
                             1485.03  1527.33  1533.21  1572.74  1609.89
                             1630.65  1689.41  1727.59  1772.06  1794.65
                             1800.31  1836.95  1872.88  1915.93  1961.78
                             1986.83  2023.89  2129.26  2138.34  2148.48
                             2204.87  4368.82  4370.80  4378.32  4426.64
                             4438.77  4442.17  4474.32  4489.18  4498.74
                             4556.43

 Zero-point correction=                           0.160655 (Hartree/Particle)
 Thermal correction to Energy=                    0.167762
 Thermal correction to Enthalpy=                  0.168706
 Thermal correction to Gibbs Free Energy=         0.129539
 Sum of electronic and zero-point Energies=           -422.946657
 Sum of electronic and thermal Energies=              -422.939550
 Sum of electronic and thermal Enthalpies=            -422.938606
 Sum of electronic and thermal Free Energies=         -422.977774

                     E (Thermal)             CV                S
                      KCal/Mol        Cal/Mol-Kelvin    Cal/Mol-Kelvin
 Total                  105.272             29.404             82.435
 Electronic               0.000              0.000              0.000
 Translational            0.889              2.981             40.409
 Rotational               0.889              2.981             28.211
 Vibrational            103.495             23.442             13.815
 Vibration     1          0.623              1.887              2.507
 Vibration     2          0.647              1.810              1.957
 Vibration     3          0.656              1.782              1.817
 Vibration     4          0.735              1.554              1.121
 Vibration     5          0.752              1.506              1.027
 Vibration     6          0.785              1.422              0.884
 Vibration     7          0.829              1.311              0.731
 Vibration     8          0.847              1.271              0.682
 Vibration     9          0.920              1.109              0.516

 Optimization completed.
    -- Stationary point found.
 Normal termination of Gaussian 09 at Tue Jan 28 05:08:18 2020.
