 Gaussian 09, Revision D.01,
 Gaussian 09:  ES64L-G09RevD.01 24-Apr-2013

 -----------------------------
 # b3lyp 6-31G(2df,p) opt Freq
 -----------------------------

 -----
 titel
 -----
 Symbolic Z-matrix:
 Charge =  0 Multiplicity = 1

 SCF Done:  E(RB3LYP) =  -423.162463137     A.U. after   14 cycles
 Optimization completed.
    -- Stationary point found.
 Normal termination of Gaussian 09 at Tue Jan 28 00:03:35 2020.

 ----------------------------------------------------------------------
 #N Geom=AllCheck Guess=TCheck SCRF=Check GenChk RB3LYP/6-31G(2df,p) Fr
 eq
 ----------------------------------------------------------------------

 Structure from the checkpoint file:  "/scratch/puck/g09_2f8c8a1d-a430-45ff-b741-8092c709e1db/Gau-116426.chk"
 -----
 titel
 -----
 Charge =  0 Multiplicity = 1

                         Standard orientation:
 ---------------------------------------------------------------------
 Center     Atomic      Atomic             Coordinates (Angstroms)
 Number     Number       Type             X           Y           Z
 ---------------------------------------------------------------------
      1          8           0        2.472176   -0.499323   -0.416058
      2          6           0        1.362489   -0.564310    0.477046
      3          6           0        0.258455   -1.488962   -0.021497
      4          6           0       -0.923016   -0.916749    0.180270
      5          6           0       -2.308201   -0.712001   -0.383995
      6          6           0       -1.978822    0.829510   -0.284254
      7          6           0       -0.841976    0.475238    0.736092
      8          6           0        0.648405    0.847178    0.613220
      9          8           0        0.860440    1.607173   -0.560721
     10          1           0        2.101049   -0.491446   -1.306630
     11          1           0        1.794578   -0.872741    1.436694
     12          1           0        0.480577   -2.411320   -0.546374
     13          1           0       -2.529288   -1.139745   -1.364603
     14          1           0       -3.106879   -0.988881    0.312209
     15          1           0       -1.560100    1.212726   -1.214953
     16          1           0       -2.780780    1.483827    0.064092
     17          1           0       -1.196765    0.570167    1.767973
     18          1           0        1.021864    1.391488    1.492540
     19          1           0        1.810811    1.563699   -0.728005
 ---------------------------------------------------------------------

 SCF Done:  E(RB3LYP) =  -423.162463137     A.U. after    1 cycles

 The electronic state is 1-A.
 Alpha  occ. eigenvalues --  -19.14478 -19.13404 -10.23230 -10.22787 -10.19486
 Alpha  occ. eigenvalues --  -10.18840 -10.18701 -10.18290 -10.17455  -1.03614
 Alpha  occ. eigenvalues --   -1.00508  -0.86773  -0.76857  -0.70440  -0.65025
 Alpha  occ. eigenvalues --   -0.62020  -0.57711  -0.52290  -0.51211  -0.49923
 Alpha  occ. eigenvalues --   -0.46761  -0.45371  -0.44575  -0.39773  -0.39155
 Alpha  occ. eigenvalues --   -0.37539  -0.35370  -0.34472  -0.33546  -0.31404
 Alpha  occ. eigenvalues --   -0.30462  -0.28385  -0.26102  -0.23508
 Alpha virt. eigenvalues --    0.00765   0.07334   0.10625   0.11542   0.12054
 Alpha virt. eigenvalues --    0.13539   0.13863   0.15447   0.15697   0.17522
 Alpha virt. eigenvalues --    0.18641   0.19070   0.20025   0.21429   0.22141

 Mulliken charges:
               1
     1  O   -0.442647
     2  C    0.092172
     3  C   -0.308926
     4  C    0.313044
     5  C   -0.322531
     6  C   -0.238190
     7  C   -0.047832
     8  C    0.048174
     9  O   -0.435279
    10  H    0.280647
    11  H    0.091447
    12  H    0.096601
    13  H    0.112125
    14  H    0.113989
    15  H    0.131296
    16  H    0.099610
    17  H    0.077915
    18  H    0.057295
    19  H    0.281091
 Sum of Mulliken charges =   0.00000

 Dipole moment (field-independent basis, Debye):
    X=             -0.9423    Y=             -0.4512    Z=             -0.0754  Tot=              1.0474
 Quadrupole moment (field-independent basis, Debye-Ang):
   XX=            -53.6496   YY=            -55.5044   ZZ=            -49.8683
   XY=              1.6727   XZ=             -1.4903   YZ=              1.9866

  Exact polarizability:  95.825  -4.707  72.856   0.246   4.078  65.493
 Approx polarizability: 138.822 -11.882 107.825  -3.856   5.182 102.693

                      1                      2                      3
                      A                      A                      A
 Frequencies --     83.1862               171.7739               186.7145
 Red. masses --      4.2188                 1.7799                 1.4931
 Frc consts  --      0.0172                 0.0309                 0.0307
 IR Inten    --      1.4860                54.3689               154.5069

                      4                      5                      6
                      A                      A                      A
 Frequencies --    236.0504               310.5942               340.3521
 Red. masses --      2.8602                 5.2997                 2.7112
 Frc consts  --      0.0939                 0.3012                 0.1850
 IR Inten    --      4.6705                 6.9402                 1.0077

                      7                      8                      9
                      A                      A                      A
 Frequencies --    421.3433               464.9083               547.8656
 Red. masses --      4.3232                 4.1702                 4.2097
 Frc consts  --      0.4522                 0.5311                 0.7445
 IR Inten    --      8.8562                 1.8169                 7.0858

                     10                     11                     12
                      A                      A                      A
 Frequencies --    621.1517               671.8768               688.1379
 Red. masses --      1.0757                 2.3243                 2.6463
 Frc consts  --      0.2445                 0.6182                 0.7383
 IR Inten    --      6.1854                 2.9674                 0.7212

                     13                     14                     15
                      A                      A                      A
 Frequencies --    748.4784               792.4311               821.2360
 Red. masses --      2.1129                 1.9156                 3.0251
 Frc consts  --      0.6974                 0.7087                 1.2021
 IR Inten    --      0.7728                 4.6968                 6.0043

                     16                     17                     18
                      A                      A                      A
 Frequencies --    832.1506               850.1118               899.3224
 Red. masses --      3.4504                 1.6410                 2.8850
 Frc consts  --      1.4077                 0.6988                 1.3748
 IR Inten    --      5.3516                42.8639                 2.1491

                     19                     20                     21
                      A                      A                      A
 Frequencies --    940.3433               985.7153              1020.1152
 Red. masses --      2.7742                 2.2081                 1.8802
 Frc consts  --      1.4453                 1.2640                 1.1528
 IR Inten    --      2.5821                 7.6209                39.6177

                     22                     23                     24
                      A                      A                      A
 Frequencies --   1028.1120              1052.7845              1084.7430
 Red. masses --      2.3451                 2.3396                 1.7439
 Frc consts  --      1.4604                 1.5278                 1.2090
 IR Inten    --      4.2654                67.8721                 8.8633

                     25                     26                     27
                      A                      A                      A
 Frequencies --   1126.4742              1149.1202              1176.9547
 Red. masses --      2.5235                 3.7086                 1.3688
 Frc consts  --      1.8866                 2.8853                 1.1171
 IR Inten    --     21.4613                30.4508                13.3546

                     28                     29                     30
                      A                      A                      A
 Frequencies --   1195.6856              1227.5971              1233.6806
 Red. masses --      1.2781                 1.2036                 1.3811
 Frc consts  --      1.0766                 1.0687                 1.2384
 IR Inten    --      5.0199                 4.4033                15.5312

                     31                     32                     33
                      A                      A                      A
 Frequencies --   1250.5856              1254.6055              1283.7128
 Red. masses --      1.3390                 1.5040                 1.4164
 Frc consts  --      1.2339                 1.3948                 1.3752
 IR Inten    --      5.7483                 3.9769                 8.2905

                     34                     35                     36
                      A                      A                      A
 Frequencies --   1296.4049              1341.2407              1351.3054
 Red. masses --      1.3897                 1.5879                 1.3667
 Frc consts  --      1.3761                 1.6831                 1.4704
 IR Inten    --     11.7786                 1.6978                32.1721

                     37                     38                     39
                      A                      A                      A
 Frequencies --   1413.5234              1428.6138              1474.3938
 Red. masses --      1.2983                 1.3671                 1.0912
 Frc consts  --      1.5284                 1.6439                 1.3976
 IR Inten    --     55.2882                49.2740                 1.9426

                     40                     41                     42
                      A                      A                      A
 Frequencies --   1486.2998              1734.2399              2989.7805
 Red. masses --      1.1192                 8.6102                 1.0846
 Frc consts  --      1.4567                15.2575                 5.7123
 IR Inten    --      0.7848                14.5602                52.5147

                     43                     44                     45
                      A                      A                      A
 Frequencies --   3036.1907              3047.0132              3050.4606
 Red. masses --      1.0846                 1.0738                 1.0709
 Frc consts  --      5.8909                 5.8739                 5.8715
 IR Inten    --     46.5956                48.8346                35.8469

                     46                     47                     48
                      A                      A                      A
 Frequencies --   3076.2303              3105.8754              3150.5078
 Red. masses --      1.0604                 1.1043                 1.1062
 Frc consts  --      5.9124                 6.2766                 6.4694
 IR Inten    --     51.9303                18.5119                17.3841

                     49                     50                     51
                      A                      A                      A
 Frequencies --   3194.0807              3765.9399              3786.1610
 Red. masses --      1.0950                 1.0648                 1.0657
 Frc consts  --      6.5819                 8.8976                 9.0009
 IR Inten    --      8.9195                35.4936                14.1293

 - Thermochemistry -
 -------------------
 Temperature   298.150 Kelvin.  Pressure   1.00000 Atm.
 Atom     1 has atomic number  8 and mass  15.99491

 Molecular mass:   126.06808 amu.
 Principal axes and moments of inertia in atomic units:
                           1         2         3
     Eigenvalues --   597.254861233.834901559.01450
           X            0.99998  -0.00172   0.00681
           Y            0.00154   0.99962   0.02741
           Z           -0.00685  -0.02740   0.99960
 This molecule is an asymmetric top.
 Rotational symmetry number  1.
 Warning -- assumption of classical behavior for rotation
           may cause significant error
 Rotational temperatures (Kelvin)      0.14502     0.07020     0.05556
 Rotational constants (GHZ):           3.02173     1.46271     1.15762
 Zero-point vibrational energy     421242.1 (Joules/Mol)
                                  100.67927 (Kcal/Mol)
 Warning -- explicit consideration of   9 degrees of freedom as
           vibrations may cause significant error
 Vibrational temperatures:    119.69   247.14   268.64   339.62   446.88
          (Kelvin)            489.69   606.22   668.90   788.26   893.70
                              966.68   990.08  1076.89  1140.13  1181.57
                             1197.28  1223.12  1293.92  1352.94  1418.22
                             1467.72  1479.22  1514.72  1560.70  1620.74
                             1653.33  1693.37  1720.32  1766.24  1774.99
                             1799.31  1805.10  1846.97  1865.24  1929.74
                             1944.22  2033.74  2055.45  2121.32  2138.45
                             2495.18  4301.62  4368.40  4383.97  4388.93
                             4426.00  4468.66  4532.87  4595.56  5418.34
                             5447.43

 Zero-point correction=                           0.160443 (Hartree/Particle)
 Thermal correction to Energy=                    0.168487
 Thermal correction to Enthalpy=                  0.169431
 Thermal correction to Gibbs Free Energy=         0.127964
 Sum of electronic and zero-point Energies=           -423.002021
 Sum of electronic and thermal Energies=              -422.993976
 Sum of electronic and thermal Enthalpies=            -422.993032
 Sum of electronic and thermal Free Energies=         -423.034499

                     E (Thermal)             CV                S
                      KCal/Mol        Cal/Mol-Kelvin    Cal/Mol-Kelvin
 Total                  105.727             31.757             87.276
 Electronic               0.000              0.000              0.000
 Translational            0.889              2.981             40.409
 Rotational               0.889              2.981             28.531
 Vibrational            103.950             25.795             18.336
 Vibration     1          0.600              1.961              3.814
 Vibration     2          0.626              1.877              2.416
 Vibration     3          0.632              1.858              2.260
 Vibration     4          0.655              1.786              1.832
 Vibration     5          0.699              1.654              1.359
 Vibration     6          0.720              1.595              1.211
 Vibration     7          0.784              1.424              0.887
 Vibration     8          0.822              1.328              0.752
 Vibration     9          0.903              1.144              0.549

 Optimization completed.
    -- Stationary point found.
 Normal termination of Gaussian 09 at Tue Jan 28 00:57:55 2020.
