 Gaussian 09, Revision D.01,
 Gaussian 09:  ES64L-G09RevD.01 24-Apr-2013

 -----------------------------
 # b3lyp 6-31G(2df,p) opt Freq
 -----------------------------

 -----
 titel
 -----
 Symbolic Z-matrix:
 Charge =  0 Multiplicity = 1

 SCF Done:  E(RB3LYP) =  -423.111618323     A.U. after   14 cycles
 Optimization completed.
    -- Stationary point found.
 Normal termination of Gaussian 09 at Mon Jan 27 18:00:42 2020.

 ----------------------------------------------------------------------
 #N Geom=AllCheck Guess=TCheck SCRF=Check GenChk RB3LYP/6-31G(2df,p) Fr
 eq
 ----------------------------------------------------------------------

 Structure from the checkpoint file:  "/scratch/puck/g09_0e706b5d-1fb9-4e65-9cec-e66ce6cf744f/Gau-61707.chk"
 -----
 titel
 -----
 Charge =  0 Multiplicity = 1

                         Standard orientation:
 ---------------------------------------------------------------------
 Center     Atomic      Atomic             Coordinates (Angstroms)
 Number     Number       Type             X           Y           Z
 ---------------------------------------------------------------------
      1          6           0        2.382749   -0.610117   -0.180950
      2          6           0        0.907510   -0.436028   -0.024950
      3          8           0       -0.000002   -1.246334   -0.843019
      4          6           0       -0.907512   -0.436024   -0.024953
      5          6           0       -2.382751   -0.610110   -0.180954
      6          6           0       -0.000003   -0.487161    1.244261
      7          6           0        0.000000    1.053568    1.405624
      8          6           0        0.000002    0.849578   -0.111250
      9          8           0        0.000006    1.847824   -1.056368
     10          1           0        2.677173   -1.643718    0.025785
     11          1           0        2.695066   -0.361468   -1.200479
     12          1           0        2.917404    0.048110    0.511094
     13          1           0       -2.677176   -1.643711    0.025781
     14          1           0       -2.917406    0.048118    0.511090
     15          1           0       -2.695068   -0.361461   -1.200483
     16          1           0       -0.000007   -1.263919    2.005909
     17          1           0       -0.898736    1.499593    1.839944
     18          1           0        0.898737    1.499589    1.839946
     19          1           0        0.000023    1.424712   -1.924454
 ---------------------------------------------------------------------

 SCF Done:  E(RB3LYP) =  -423.111618323     A.U. after    1 cycles

 The electronic state is 1-A.
 Alpha  occ. eigenvalues --  -19.15307 -19.12140 -10.24090 -10.24020 -10.24020
 Alpha  occ. eigenvalues --  -10.19526 -10.18759 -10.18453 -10.18453  -1.06087
 Alpha  occ. eigenvalues --   -1.02738  -0.85940  -0.75767  -0.72607  -0.64905
 Alpha  occ. eigenvalues --   -0.62972  -0.57133  -0.54735  -0.48075  -0.46659
 Alpha  occ. eigenvalues --   -0.46027  -0.44593  -0.42831  -0.41014  -0.40444
 Alpha  occ. eigenvalues --   -0.40246  -0.36314  -0.36225  -0.35114  -0.33945
 Alpha  occ. eigenvalues --   -0.29908  -0.29529  -0.24497  -0.22837
 Alpha virt. eigenvalues --    0.07290   0.09822   0.10931   0.11026   0.12629
 Alpha virt. eigenvalues --    0.13244   0.14035   0.15087   0.15094   0.16392
 Alpha virt. eigenvalues --    0.17732   0.17962   0.20687   0.21118   0.21967

 Mulliken charges:
               1
     1  C   -0.526712
     2  C    0.376354
     3  O   -0.399650
     4  C    0.376355
     5  C   -0.526712
     6  C   -0.179171
     7  C   -0.327740
     8  C    0.305845
     9  O   -0.468814
    10  H    0.134911
    11  H    0.129308
    12  H    0.131000
    13  H    0.134911
    14  H    0.131000
    15  H    0.129309
    16  H    0.084288
    17  H    0.101881
    18  H    0.101881
    19  H    0.291756
 Sum of Mulliken charges =   0.00000

 Dipole moment (field-independent basis, Debye):
    X=              0.0000    Y=             -0.0272    Z=              0.5991  Tot=              0.5997
 Quadrupole moment (field-independent basis, Debye-Ang):
   XX=            -48.7852   YY=            -59.1089   ZZ=            -50.2841
   XY=              0.0000   XZ=             -0.0001   YZ=             -2.0019

  Exact polarizability:  83.889   0.000  70.498   0.000   1.235  72.578
 Approx polarizability: 111.132   0.000 109.594   0.000   2.209 111.511

                      1                      2                      3
                      A                      A                      A
 Frequencies --    180.8586               182.0138               188.7505
 Red. masses --      2.1776                 1.6246                 1.4781
 Frc consts  --      0.0420                 0.0317                 0.0310
 IR Inten    --      0.0052                 0.8338                 0.6344

                      4                      5                      6
                      A                      A                      A
 Frequencies --    190.6137               223.2973               259.0668
 Red. masses --      1.2409                 2.5353                 2.3299
 Frc consts  --      0.0266                 0.0745                 0.0921
 IR Inten    --      0.1257                 2.4345                 0.0419

                      7                      8                      9
                      A                      A                      A
 Frequencies --    287.4791               360.1633               453.6615
 Red. masses --      4.2559                 1.1117                 2.5217
 Frc consts  --      0.2072                 0.0850                 0.3058
 IR Inten    --     12.7851                88.1591                 0.2960

                     10                     11                     12
                      A                      A                      A
 Frequencies --    519.8586               540.8148               595.5765
 Red. masses --      2.8565                 4.2166                 3.8391
 Frc consts  --      0.4548                 0.7266                 0.8023
 IR Inten    --     13.6655                 2.5684                 0.1331

                     13                     14                     15
                      A                      A                      A
 Frequencies --    698.1352               703.2214               711.2879
 Red. masses --      3.4750                 3.6933                 4.1347
 Frc consts  --      0.9979                 1.0761                 1.2325
 IR Inten    --      9.5705                 0.7009                 7.0427

                     16                     17                     18
                      A                      A                      A
 Frequencies --    776.1780               808.9191               854.5596
 Red. masses --      3.3815                 3.1779                 2.3591
 Frc consts  --      1.2003                 1.2252                 1.0151
 IR Inten    --      6.9717                42.3487                 4.9929

                     19                     20                     21
                      A                      A                      A
 Frequencies --    890.4921               942.7689               988.0285
 Red. masses --      2.5905                 2.3812                 1.1855
 Frc consts  --      1.2103                 1.2470                 0.6819
 IR Inten    --     13.0848                 7.3495                 0.2234

                     22                     23                     24
                      A                      A                      A
 Frequencies --   1003.7924              1056.0237              1095.1286
 Red. masses --      2.1963                 1.8390                 1.6724
 Frc consts  --      1.3038                 1.2083                 1.1817
 IR Inten    --     33.7253                 8.6464                 3.8265

                     25                     26                     27
                      A                      A                      A
 Frequencies --   1113.7477              1123.2764              1123.4941
 Red. masses --      1.4972                 1.5903                 1.8497
 Frc consts  --      1.0942                 1.1822                 1.3756
 IR Inten    --      0.0608                 0.0267                 6.0296

                     28                     29                     30
                      A                      A                      A
 Frequencies --   1182.4663              1193.9629              1232.0766
 Red. masses --      2.0660                 2.1857                 2.1742
 Frc consts  --      1.7020                 1.8358                 1.9445
 IR Inten    --     16.0601                43.6843                14.4144

                     31                     32                     33
                      A                      A                      A
 Frequencies --   1268.1350              1299.3308              1388.3335
 Red. masses --      3.7657                 2.6244                 2.0357
 Frc consts  --      3.5680                 2.6104                 2.3118
 IR Inten    --     37.3679               173.9389                30.6234

                     34                     35                     36
                      A                      A                      A
 Frequencies --   1396.4546              1407.6217              1448.1889
 Red. masses --      1.5244                 1.3766                 4.8384
 Frc consts  --      1.7515                 1.6070                 5.9786
 IR Inten    --      0.3478                13.8004                11.3865

                     37                     38                     39
                      A                      A                      A
 Frequencies --   1472.6865              1474.5877              1489.3944
 Red. masses --      1.0442                 1.0527                 1.0466
 Frc consts  --      1.3343                 1.3487                 1.3678
 IR Inten    --      0.0597                15.5977                 3.0084

                     40                     41                     42
                      A                      A                      A
 Frequencies --   1493.4214              1519.1326              3035.9707
 Red. masses --      1.0635                 1.2102                 1.0347
 Frc consts  --      1.3975                 1.6455                 5.6190
 IR Inten    --      5.7222                10.8367                36.1635

                     43                     44                     45
                      A                      A                      A
 Frequencies --   3036.2735              3055.9018              3105.4087
 Red. masses --      1.0347                 1.0553                 1.1012
 Frc consts  --      5.6199                 5.8065                 6.2570
 IR Inten    --      4.7179                36.8495                27.0325

                     46                     47                     48
                      A                      A                      A
 Frequencies --   3105.4607              3111.4248              3112.8760
 Red. masses --      1.1015                 1.1062                 1.1005
 Frc consts  --      6.2588                 6.3099                 6.2832
 IR Inten    --      0.0201                17.5633                26.2475

                     49                     50                     51
                      A                      A                      A
 Frequencies --   3113.5349              3147.0095              3778.5168
 Red. masses --      1.1043                 1.0931                 1.0651
 Frc consts  --      6.3075                 6.3783                 8.9594
 IR Inten    --     10.1902                23.4793                24.0536

 - Thermochemistry -
 -------------------
 Temperature   298.150 Kelvin.  Pressure   1.00000 Atm.
 Atom     1 has atomic number  6 and mass  12.00000

 Molecular mass:   126.06808 amu.
 Principal axes and moments of inertia in atomic units:
                           1         2         3
     Eigenvalues --   793.257821051.041281198.47324
           X            1.00000   0.00000   0.00000
           Y            0.00000   0.99968   0.02535
           Z            0.00000  -0.02535   0.99968
 This molecule is an asymmetric top.
 Rotational symmetry number  1.
 Warning -- assumption of classical behavior for rotation
           may cause significant error
 Rotational temperatures (Kelvin)      0.10919     0.08241     0.07227
 Rotational constants (GHZ):           2.27510     1.71710     1.50587
 Zero-point vibrational energy     411152.8 (Joules/Mol)
                                   98.26787 (Kcal/Mol)
 Warning -- explicit consideration of  12 degrees of freedom as
           vibrations may cause significant error
 Vibrational temperatures:    260.21   261.88   271.57   274.25   321.27
          (Kelvin)            372.74   413.62   518.19   652.72   747.96
                              778.11   856.90  1004.46  1011.78  1023.38
                             1116.75  1163.85  1229.52  1281.22  1356.43
                             1421.55  1444.23  1519.38  1575.64  1602.43
                             1616.14  1616.46  1701.30  1717.84  1772.68
                             1824.56  1869.44  1997.50  2009.18  2025.25
                             2083.62  2118.86  2121.60  2142.90  2148.70
                             2185.69  4368.08  4368.51  4396.76  4467.98
                             4468.06  4476.64  4478.73  4479.68  4527.84
                             5436.44

 Zero-point correction=                           0.156600 (Hartree/Particle)
 Thermal correction to Energy=                    0.165369
 Thermal correction to Enthalpy=                  0.166313
 Thermal correction to Gibbs Free Energy=         0.123983
 Sum of electronic and zero-point Energies=           -422.955018
 Sum of electronic and thermal Energies=              -422.946250
 Sum of electronic and thermal Enthalpies=            -422.945305
 Sum of electronic and thermal Free Energies=         -422.987636

                     E (Thermal)             CV                S
                      KCal/Mol        Cal/Mol-Kelvin    Cal/Mol-Kelvin
 Total                  103.770             34.157             89.091
 Electronic               0.000              0.000              0.000
 Translational            0.889              2.981             40.409
 Rotational               0.889              2.981             28.393
 Vibrational            101.993             28.195             20.290
 Vibration     1          0.630              1.866              2.320
 Vibration     2          0.630              1.864              2.308
 Vibration     3          0.633              1.855              2.240
 Vibration     4          0.634              1.853              2.222
 Vibration     5          0.649              1.806              1.932
 Vibration     6          0.668              1.747              1.668
 Vibration     7          0.685              1.697              1.489
 Vibration     8          0.735              1.554              1.121
 Vibration     9          0.812              1.353              0.785
 Vibration    10          0.875              1.206              0.610
 Vibration    11          0.896              1.160              0.564
 Vibration    12          0.953              1.041              0.457

 Optimization completed.
    -- Stationary point found.
 Normal termination of Gaussian 09 at Mon Jan 27 18:44:27 2020.
