 Gaussian 09, Revision D.01,
 Gaussian 09:  ES64L-G09RevD.01 24-Apr-2013

 -----------------------------
 # b3lyp 6-31G(2df,p) opt Freq
 -----------------------------

 -----
 titel
 -----
 Symbolic Z-matrix:
 Charge =  0 Multiplicity = 1

 SCF Done:  E(RB3LYP) =  -423.204785103     A.U. after   14 cycles
 Optimization completed.
    -- Stationary point found.
 Normal termination of Gaussian 09 at Mon Jan 27 13:02:15 2020.

 ----------------------------------------------------------------------
 #N Geom=AllCheck Guess=TCheck SCRF=Check GenChk RB3LYP/6-31G(2df,p) Fr
 eq
 ----------------------------------------------------------------------

 Structure from the checkpoint file:  "/scratch/puck/g09_0ca682f3-2af4-44b4-8d13-a48e18b038e8/Gau-36917.chk"
 -----
 titel
 -----
 Charge =  0 Multiplicity = 1

                         Standard orientation:
 ---------------------------------------------------------------------
 Center     Atomic      Atomic             Coordinates (Angstroms)
 Number     Number       Type             X           Y           Z
 ---------------------------------------------------------------------
      1          8           0       -2.135723    1.118181   -0.805585
      2          6           0       -1.549899    0.326774   -0.127381
      3          6           0       -1.574271   -1.207476    0.016664
      4          6           0       -0.146203   -1.088485    0.608437
      5          8           0        0.770856   -1.318761   -0.442803
      6          6           0        1.978059   -0.574700   -0.329915
      7          6           0        1.704945    0.920624   -0.480325
      8          6           0        0.781013    1.407997    0.645680
      9          6           0       -0.376337    0.436857    0.867238
     10          1           0       -2.319601   -1.527700    0.751628
     11          1           0       -1.671511   -1.799868   -0.894410
     12          1           0        0.096664   -1.704746    1.483126
     13          1           0        2.472895   -0.784212    0.633884
     14          1           0        2.629069   -0.944152   -1.127024
     15          1           0        2.647344    1.478828   -0.468576
     16          1           0        1.236403    1.086306   -1.457138
     17          1           0        1.359182    1.493617    1.574224
     18          1           0        0.383587    2.404668    0.426129
     19          1           0       -0.818928    0.572357    1.862879
 ---------------------------------------------------------------------

 SCF Done:  E(RB3LYP) =  -423.204785103     A.U. after    1 cycles

 The electronic state is 1-A.
 Alpha  occ. eigenvalues --  -19.14568 -19.13688 -10.26918 -10.24293 -10.23161
 Alpha  occ. eigenvalues --  -10.19655 -10.19264 -10.19094 -10.18612  -1.04784
 Alpha  occ. eigenvalues --   -1.03874  -0.84482  -0.79666  -0.70546  -0.66044
 Alpha  occ. eigenvalues --   -0.61935  -0.58438  -0.51498  -0.49411  -0.48042
 Alpha  occ. eigenvalues --   -0.47514  -0.46229  -0.44196  -0.41753  -0.40937
 Alpha  occ. eigenvalues --   -0.38468  -0.37549  -0.36282  -0.35909  -0.34959
 Alpha  occ. eigenvalues --   -0.33027  -0.29741  -0.25671  -0.24026
 Alpha virt. eigenvalues --   -0.01650   0.08470   0.10897   0.11318   0.12335
 Alpha virt. eigenvalues --    0.13214   0.14426   0.14716   0.16189   0.16714
 Alpha virt. eigenvalues --    0.17491   0.18465   0.19317   0.19847   0.21629

 Mulliken charges:
               1
     1  O   -0.299268
     2  C    0.386295
     3  C   -0.346908
     4  C    0.087008
     5  O   -0.263375
     6  C   -0.066117
     7  C   -0.207387
     8  C   -0.239357
     9  C   -0.117939
    10  H    0.125744
    11  H    0.137643
    12  H    0.068601
    13  H    0.085088
    14  H    0.110610
    15  H    0.097504
    16  H    0.119707
    17  H    0.100341
    18  H    0.119981
    19  H    0.101831
 Sum of Mulliken charges =   0.00000

 Dipole moment (field-independent basis, Debye):
    X=              1.7689    Y=             -0.6400    Z=              2.1780  Tot=              2.8779
 Quadrupole moment (field-independent basis, Debye-Ang):
   XX=            -53.9931   YY=            -55.7188   ZZ=            -52.4600
   XY=              5.4284   XZ=             -3.6881   YZ=              0.6377

  Exact polarizability:  83.086   2.749  75.531   0.894  -1.484  67.619
 Approx polarizability: 111.541  -1.467 110.956   5.486  -4.733 107.216

                      1                      2                      3
                      A                      A                      A
 Frequencies --     86.6438               138.1842               207.0521
 Red. masses --      4.8646                 3.4882                 2.5918
 Frc consts  --      0.0215                 0.0392                 0.0655
 IR Inten    --      2.4368                 2.9750                 2.8240

                      4                      5                      6
                      A                      A                      A
 Frequencies --    322.8072               368.9743               415.4172
 Red. masses --      1.7516                 2.7830                 3.6319
 Frc consts  --      0.1075                 0.2232                 0.3693
 IR Inten    --      1.7380                 3.5875                 2.1194

                      7                      8                      9
                      A                      A                      A
 Frequencies --    435.0905               476.2583               533.4186
 Red. masses --      4.2922                 3.1413                 2.4263
 Frc consts  --      0.4787                 0.4198                 0.4068
 IR Inten    --      1.2557                 3.2524                 0.4650

                     10                     11                     12
                      A                      A                      A
 Frequencies --    630.7561               711.6995               715.5757
 Red. masses --      2.1877                 3.4538                 2.5923
 Frc consts  --      0.5128                 1.0307                 0.7821
 IR Inten    --      2.1565                 2.0475                 2.1277

                     13                     14                     15
                      A                      A                      A
 Frequencies --    806.6441               858.5397               880.4373
 Red. masses --      3.0439                 2.0493                 2.2920
 Frc consts  --      1.1669                 0.8900                 1.0468
 IR Inten    --      4.9607                 3.2483                 8.3394

                     16                     17                     18
                      A                      A                      A
 Frequencies --    915.3446               916.9551               954.3258
 Red. masses --      2.1664                 1.8286                 2.7774
 Frc consts  --      1.0695                 0.9059                 1.4903
 IR Inten    --      6.3895                 3.0982                13.6433

                     19                     20                     21
                      A                      A                      A
 Frequencies --   1008.0026              1037.4420              1043.5819
 Red. masses --      1.9171                 2.8237                 1.7005
 Frc consts  --      1.1477                 1.7906                 1.0911
 IR Inten    --      1.7281                23.1773                23.1211

                     22                     23                     24
                      A                      A                      A
 Frequencies --   1073.3075              1090.9652              1124.2681
 Red. masses --      1.5903                 2.1274                 2.1883
 Frc consts  --      1.0794                 1.4918                 1.6296
 IR Inten    --     30.8005                49.3393                17.0497

                     25                     26                     27
                      A                      A                      A
 Frequencies --   1149.2830              1194.6393              1214.1597
 Red. masses --      2.1504                 1.6094                 1.4724
 Frc consts  --      1.6735                 1.3533                 1.2789
 IR Inten    --      9.0810                17.1681                12.7301

                     28                     29                     30
                      A                      A                      A
 Frequencies --   1232.2918              1257.8582              1271.9851
 Red. masses --      1.7064                 1.5025                 1.5398
 Frc consts  --      1.5267                 1.4007                 1.4678
 IR Inten    --     14.1134                 5.5322                29.4230

                     31                     32                     33
                      A                      A                      A
 Frequencies --   1312.1923              1326.4726              1354.1882
 Red. masses --      1.2563                 1.7703                 1.2530
 Frc consts  --      1.2745                 1.8352                 1.3538
 IR Inten    --      9.2951                17.5701                 4.4910

                     34                     35                     36
                      A                      A                      A
 Frequencies --   1374.9298              1384.8637              1410.6515
 Red. masses --      1.4559                 1.3705                 1.3278
 Frc consts  --      1.6216                 1.5486                 1.5567
 IR Inten    --     12.0762                 2.7299                 6.4795

                     37                     38                     39
                      A                      A                      A
 Frequencies --   1432.0057              1475.5143              1485.3247
 Red. masses --      1.1229                 1.0823                 1.0962
 Frc consts  --      1.3567                 1.3883                 1.4249
 IR Inten    --      9.0428                 3.5862                 5.2563

                     40                     41                     42
                      A                      A                      A
 Frequencies --   1501.9496              1894.8423              2963.6689
 Red. masses --      1.0938                12.6110                 1.0710
 Frc consts  --      1.4537                26.6775                 5.5424
 IR Inten    --      1.5564               240.8797                53.5541

                     43                     44                     45
                      A                      A                      A
 Frequencies --   3019.4873              3024.1103              3036.2250
 Red. masses --      1.0791                 1.0748                 1.0758
 Frc consts  --      5.7969                 5.7911                 5.8433
 IR Inten    --     30.9506                36.5630                46.6302

                     46                     47                     48
                      A                      A                      A
 Frequencies --   3039.0179              3066.1847              3072.4597
 Red. masses --      1.0621                 1.0627                 1.0975
 Frc consts  --      5.7796                 5.8864                 6.1041
 IR Inten    --      9.7569                12.9027                17.5379

                     49                     50                     51
                      A                      A                      A
 Frequencies --   3086.5803              3090.1381              3137.6548
 Red. masses --      1.0991                 1.0976                 1.1036
 Frc consts  --      6.1693                 6.1750                 6.4016
 IR Inten    --     43.7328                32.6008                 4.2530

 - Thermochemistry -
 -------------------
 Temperature   298.150 Kelvin.  Pressure   1.00000 Atm.
 Atom     1 has atomic number  8 and mass  15.99491

 Molecular mass:   126.06808 amu.
 Principal axes and moments of inertia in atomic units:
                           1         2         3
     Eigenvalues --   685.947501125.941581455.11924
           X            0.99677   0.07854  -0.01652
           Y           -0.07846   0.99690   0.00545
           Z            0.01690  -0.00414   0.99985
 This molecule is an asymmetric top.
 Rotational symmetry number  1.
 Warning -- assumption of classical behavior for rotation
           may cause significant error
 Rotational temperatures (Kelvin)      0.12627     0.07693     0.05952
 Rotational constants (GHZ):           2.63102     1.60287     1.24027
 Zero-point vibrational energy     422044.7 (Joules/Mol)
                                  100.87111 (Kcal/Mol)
 Warning -- explicit consideration of   9 degrees of freedom as
           vibrations may cause significant error
 Vibrational temperatures:    124.66   198.82   297.90   464.45   530.87
          (Kelvin)            597.69   626.00   685.23   767.47   907.52
                             1023.98  1029.55  1160.58  1235.25  1266.75
                             1316.98  1319.29  1373.06  1450.29  1492.65
                             1501.48  1544.25  1569.65  1617.57  1653.56
                             1718.82  1746.90  1772.99  1809.78  1830.10
                             1887.95  1908.50  1948.37  1978.21  1992.51
                             2029.61  2060.33  2122.93  2137.05  2160.97
                             2726.25  4264.05  4344.36  4351.01  4368.45
                             4372.46  4411.55  4420.58  4440.90  4446.01
                             4514.38

 Zero-point correction=                           0.160748 (Hartree/Particle)
 Thermal correction to Energy=                    0.168349
 Thermal correction to Enthalpy=                  0.169293
 Thermal correction to Gibbs Free Energy=         0.128571
 Sum of electronic and zero-point Energies=           -423.044037
 Sum of electronic and thermal Energies=              -423.036436
 Sum of electronic and thermal Enthalpies=            -423.035492
 Sum of electronic and thermal Free Energies=         -423.076214

                     E (Thermal)             CV                S
                      KCal/Mol        Cal/Mol-Kelvin    Cal/Mol-Kelvin
 Total                  105.641             29.958             85.708
 Electronic               0.000              0.000              0.000
 Translational            0.889              2.981             40.409
 Rotational               0.889              2.981             28.510
 Vibrational            103.863             23.996             16.790
 Vibration     1          0.601              1.959              3.734
 Vibration     2          0.614              1.915              2.829
 Vibration     3          0.641              1.830              2.070
 Vibration     4          0.708              1.630              1.296
 Vibration     5          0.741              1.536              1.084
 Vibration     6          0.779              1.437              0.908
 Vibration     7          0.796              1.394              0.842
 Vibration     8          0.833              1.303              0.720
 Vibration     9          0.888              1.176              0.580

 Optimization completed.
    -- Stationary point found.
 Normal termination of Gaussian 09 at Mon Jan 27 13:45:38 2020.
