 Gaussian 09, Revision D.01,
 Gaussian 09:  ES64L-G09RevD.01 24-Apr-2013

 -----------------------------
 # b3lyp 6-31G(2df,p) opt Freq
 -----------------------------

 -----
 titel
 -----
 Symbolic Z-matrix:
 Charge =  0 Multiplicity = 1

 SCF Done:  E(RB3LYP) =  -423.220264967     A.U. after   13 cycles
 Optimization completed.
    -- Stationary point found.
 Normal termination of Gaussian 09 at Mon Jan 27 13:11:11 2020.

 ----------------------------------------------------------------------
 #N Geom=AllCheck Guess=TCheck SCRF=Check GenChk RB3LYP/6-31G(2df,p) Fr
 eq
 ----------------------------------------------------------------------

 Structure from the checkpoint file:  "/scratch/puck/g09_a4bc6732-4aae-4e98-8d7a-01814c6ed897/Gau-75110.chk"
 -----
 titel
 -----
 Charge =  0 Multiplicity = 1

                         Standard orientation:
 ---------------------------------------------------------------------
 Center     Atomic      Atomic             Coordinates (Angstroms)
 Number     Number       Type             X           Y           Z
 ---------------------------------------------------------------------
      1          8           0       -1.477590   -2.118005    0.200079
      2          6           0       -1.228304   -1.031083    0.649486
      3          6           0       -0.300551    0.000022    0.000132
      4          6           0        0.624332    0.638744    1.075365
      5          6           0        2.025109    0.630514    0.438261
      6          6           0        2.024662   -0.631829   -0.438394
      7          6           0        0.623770   -0.639247   -1.075275
      8          6           0       -1.227614    1.031809   -0.649288
      9          8           0       -1.475492    2.119229   -0.200347
     10          1           0       -1.675354   -0.684179    1.606689
     11          1           0        0.269595    1.635599    1.345094
     12          1           0        0.618456    0.030001    1.987634
     13          1           0        2.151156    1.519462   -0.191483
     14          1           0        2.825867    0.641616    1.182408
     15          1           0        2.825289   -0.643389   -1.182675
     16          1           0        2.150288   -1.520859    0.191316
     17          1           0        0.618078   -0.030561   -1.987578
     18          1           0        0.268381   -1.635898   -1.344920
     19          1           0       -1.675513    0.684830   -1.606062
 ---------------------------------------------------------------------

 SCF Done:  E(RB3LYP) =  -423.220264967     A.U. after    1 cycles

 The electronic state is 1-A.
 Alpha  occ. eigenvalues --  -19.15716 -19.15715 -10.28539 -10.28538 -10.21532
 Alpha  occ. eigenvalues --  -10.19398 -10.19397 -10.19078 -10.19057  -1.06617
 Alpha  occ. eigenvalues --   -1.06203  -0.85785  -0.76022  -0.72591  -0.63347
 Alpha  occ. eigenvalues --   -0.62832  -0.57575  -0.54267  -0.51767  -0.49672
 Alpha  occ. eigenvalues --   -0.46148  -0.45709  -0.45005  -0.42569  -0.41968
 Alpha  occ. eigenvalues --   -0.39074  -0.36687  -0.35848  -0.35324  -0.34751
 Alpha  occ. eigenvalues --   -0.34575  -0.33521  -0.27392  -0.25947
 Alpha virt. eigenvalues --   -0.06004  -0.00208   0.07981   0.09655   0.11491
 Alpha virt. eigenvalues --    0.11993   0.13507   0.15531   0.16250   0.16773
 Alpha virt. eigenvalues --    0.16795   0.17271   0.19064   0.20040   0.20628

 Mulliken charges:
               1
     1  O   -0.239488
     2  C    0.101080
     3  C    0.143729
     4  C   -0.279292
     5  C   -0.201550
     6  C   -0.201542
     7  C   -0.279285
     8  C    0.101105
     9  O   -0.239456
    10  H    0.101177
    11  H    0.133341
    12  H    0.101779
    13  H    0.108280
    14  H    0.102753
    15  H    0.102755
    16  H    0.108273
    17  H    0.101793
    18  H    0.133346
    19  H    0.101203
 Sum of Mulliken charges =   0.00000

 Dipole moment (field-independent basis, Debye):
    X=              1.7925    Y=             -0.0009    Z=              0.0005  Tot=              1.7925
 Quadrupole moment (field-independent basis, Debye-Ang):
   XX=            -54.3016   YY=            -64.4451   ZZ=            -50.2617
   XY=             -0.0057   XZ=             -0.0010   YZ=             -0.7267

  Exact polarizability:  77.822   0.004  79.792   0.003   2.956  71.711
 Approx polarizability: 103.935   0.017 134.044   0.007   7.807 107.777

                      1                      2                      3
                      A                      A                      A
 Frequencies --     28.8860                52.5076                79.1749
 Red. masses --      3.4497                 2.6369                 7.8215
 Frc consts  --      0.0017                 0.0043                 0.0289
 IR Inten    --      5.5042                 0.1300                 6.4575

                      4                      5                      6
                      A                      A                      A
 Frequencies --    201.1943               279.4125               294.8532
 Red. masses --      2.5387                 4.0501                 1.8629
 Frc consts  --      0.0605                 0.1863                 0.0954
 IR Inten    --      1.7510                 9.0569                 5.1739

                      7                      8                      9
                      A                      A                      A
 Frequencies --    324.0604               366.0719               426.9032
 Red. masses --      1.9683                 2.3867                 7.8558
 Frc consts  --      0.1218                 0.1884                 0.8435
 IR Inten    --      2.0767                 0.5999                 0.7295

                     10                     11                     12
                      A                      A                      A
 Frequencies --    542.1966               614.4932               685.7058
 Red. masses --      1.8813                 3.1686                 3.2248
 Frc consts  --      0.3258                 0.7049                 0.8934
 IR Inten    --      1.0311                 9.5522                 8.7902

                     13                     14                     15
                      A                      A                      A
 Frequencies --    778.1845               820.9042               842.0122
 Red. masses --      2.9293                 2.5971                 1.7100
 Frc consts  --      1.0451                 1.0311                 0.7143
 IR Inten    --      8.2891                62.5565                 2.8330

                     16                     17                     18
                      A                      A                      A
 Frequencies --    880.1477               912.1687               922.7314
 Red. masses --      2.1443                 2.6026                 1.5182
 Frc consts  --      0.9787                 1.2759                 0.7616
 IR Inten    --      8.9598                 1.2296                12.6623

                     19                     20                     21
                      A                      A                      A
 Frequencies --    979.3767               987.1399              1032.1506
 Red. masses --      1.8097                 2.5048                 1.5009
 Frc consts  --      1.0227                 1.4381                 0.9421
 IR Inten    --      3.2336                22.4772                 6.8673

                     22                     23                     24
                      A                      A                      A
 Frequencies --   1041.6698              1082.0880              1130.3649
 Red. masses --      1.8608                 1.4932                 2.1174
 Frc consts  --      1.1896                 1.0301                 1.5940
 IR Inten    --      0.3680                 4.3953                 5.6975

                     25                     26                     27
                      A                      A                      A
 Frequencies --   1137.4767              1206.3314              1222.0988
 Red. masses --      5.9114                 1.8685                 1.8164
 Frc consts  --      4.5063                 1.6021                 1.5984
 IR Inten    --     21.6415                 1.4471                10.7189

                     28                     29                     30
                      A                      A                      A
 Frequencies --   1255.5427              1265.6483              1320.4122
 Red. masses --      1.3233                 1.3186                 1.3142
 Frc consts  --      1.2291                 1.2445                 1.3500
 IR Inten    --      1.0133                 5.1248                 0.7685

                     31                     32                     33
                      A                      A                      A
 Frequencies --   1340.4504              1345.3383              1349.4570
 Red. masses --      1.2349                 1.3448                 1.4519
 Frc consts  --      1.3074                 1.4341                 1.5577
 IR Inten    --      0.0559                 2.0719                 2.4100

                     34                     35                     36
                      A                      A                      A
 Frequencies --   1413.4421              1418.3851              1489.7883
 Red. masses --      1.1880                 1.1869                 1.0797
 Frc consts  --      1.3984                 1.4068                 1.4119
 IR Inten    --      3.6976                 6.2803                 0.0112

                     37                     38                     39
                      A                      A                      A
 Frequencies --   1493.5805              1495.6698              1512.2394
 Red. masses --      1.0800                 1.0890                 1.1072
 Frc consts  --      1.4195                 1.4353                 1.4918
 IR Inten    --      4.7386                 7.7201                 0.1536

                     40                     41                     42
                      A                      A                      A
 Frequencies --   1800.1974              1838.9519              2894.2518
 Red. masses --     10.9094                10.5657                 1.0844
 Frc consts  --     20.8300                21.0518                 5.3521
 IR Inten    --    316.4215                44.8972               122.7836

                     43                     44                     45
                      A                      A                      A
 Frequencies --   2896.7820              3031.0426              3031.3823
 Red. masses --      1.0842                 1.0697                 1.0725
 Frc consts  --      5.3603                 5.7902                 5.8069
 IR Inten    --     41.5941                32.2902                 1.3749

                     46                     47                     48
                      A                      A                      A
 Frequencies --   3036.2123              3042.4127              3094.4328
 Red. masses --      1.0659                 1.0608                 1.0948
 Frc consts  --      5.7892                 5.7852                 6.1768
 IR Inten    --     15.0081                43.1186                32.1178

                     49                     50                     51
                      A                      A                      A
 Frequencies --   3099.4703              3112.7801              3113.2443
 Red. masses --      1.0999                 1.0951                 1.0972
 Frc consts  --      6.2256                 6.2515                 6.2653
 IR Inten    --     37.7375                 0.0324                13.1067

 - Thermochemistry -
 -------------------
 Temperature   298.150 Kelvin.  Pressure   1.00000 Atm.
 Atom     1 has atomic number  8 and mass  15.99491

 Molecular mass:   126.06808 amu.
 Principal axes and moments of inertia in atomic units:
                           1         2         3
     Eigenvalues --   941.975131105.618681594.83366
           X            1.00000  -0.00013   0.00001
           Y            0.00013   0.99972   0.02358
           Z           -0.00001  -0.02358   0.99972
 This molecule is an asymmetric top.
 Rotational symmetry number  1.
 Warning -- assumption of classical behavior for rotation
           may cause significant error
 Rotational temperatures (Kelvin)      0.09195     0.07834     0.05431
 Rotational constants (GHZ):           1.91591     1.63234     1.13162
 Zero-point vibrational energy     416069.7 (Joules/Mol)
                                   99.44304 (Kcal/Mol)
 Warning -- explicit consideration of  11 degrees of freedom as
           vibrations may cause significant error
 Vibrational temperatures:     41.56    75.55   113.91   289.47   402.01
          (Kelvin)            424.23   466.25   526.70   614.22   780.10
                              884.12   986.58  1119.63  1181.10  1211.47
                             1266.33  1312.41  1327.60  1409.10  1420.27
                             1485.03  1498.73  1556.88  1626.34  1636.57
                             1735.64  1758.33  1806.44  1820.98  1899.78
                             1928.61  1935.64  1941.57  2033.63  2040.74
                             2143.47  2148.93  2151.93  2175.77  2590.08
                             2645.84  4164.18  4167.82  4360.99  4361.48
                             4368.43  4377.35  4452.19  4459.44  4478.59
                             4479.26

 Zero-point correction=                           0.158473 (Hartree/Particle)
 Thermal correction to Energy=                    0.167436
 Thermal correction to Enthalpy=                  0.168380
 Thermal correction to Gibbs Free Energy=         0.123064
 Sum of electronic and zero-point Energies=           -423.061792
 Sum of electronic and thermal Energies=              -423.052829
 Sum of electronic and thermal Enthalpies=            -423.051885
 Sum of electronic and thermal Free Energies=         -423.097201

                     E (Thermal)             CV                S
                      KCal/Mol        Cal/Mol-Kelvin    Cal/Mol-Kelvin
 Total                  105.067             32.154             95.376
 Electronic               0.000              0.000              0.000
 Translational            0.889              2.981             40.409
 Rotational               0.889              2.981             28.898
 Vibrational            103.290             26.192             26.069
 Vibration     1          0.593              1.984              5.905
 Vibration     2          0.596              1.977              4.721
 Vibration     3          0.600              1.963              3.911
 Vibration     4          0.638              1.838              2.122
 Vibration     5          0.680              1.712              1.537
 Vibration     6          0.689              1.683              1.446
 Vibration     7          0.709              1.627              1.290
 Vibration     8          0.739              1.542              1.096
 Vibration     9          0.789              1.412              0.869
 Vibration    10          0.897              1.157              0.561
 Vibration    11          0.974              1.001              0.425

 Optimization completed.
    -- Stationary point found.
 Normal termination of Gaussian 09 at Mon Jan 27 13:52:19 2020.
