 Gaussian 09, Revision D.01,
 Gaussian 09:  ES64L-G09RevD.01 24-Apr-2013

 -----------------------------
 # b3lyp 6-31G(2df,p) opt Freq
 -----------------------------

 -----
 titel
 -----
 Symbolic Z-matrix:
 Charge =  0 Multiplicity = 1

 SCF Done:  E(RB3LYP) =  -423.126794629     A.U. after   13 cycles
 Optimization completed.
    -- Stationary point found.
 Normal termination of Gaussian 09 at Mon Jan 27 18:32:56 2020.

 ----------------------------------------------------------------------
 #N Geom=AllCheck Guess=TCheck SCRF=Check GenChk RB3LYP/6-31G(2df,p) Fr
 eq
 ----------------------------------------------------------------------

 Structure from the checkpoint file:  "/scratch/puck/g09_188efa35-a78c-400d-bd48-e212c8422457/Gau-42584.chk"
 -----
 titel
 -----
 Charge =  0 Multiplicity = 1

                         Standard orientation:
 ---------------------------------------------------------------------
 Center     Atomic      Atomic             Coordinates (Angstroms)
 Number     Number       Type             X           Y           Z
 ---------------------------------------------------------------------
      1          8           0       -1.246282   -1.467264   -0.836392
      2          6           0       -0.295700   -0.770844   -0.081084
      3          6           0       -0.574120   -0.775597    1.442822
      4          6           0       -0.561224    0.795198    1.449354
      5          6           0       -0.274410    0.786705   -0.084273
      6          8           0       -1.103513    1.502714   -0.952377
      7          6           0        1.180411    0.757553   -0.603260
      8          6           0        2.098005   -0.022584    0.289641
      9          6           0        1.161569   -0.782861   -0.609235
     10          1           0       -1.076256   -1.274547   -1.766516
     11          1           0       -1.554802   -1.201617    1.664575
     12          1           0        0.171847   -1.270926    2.067560
     13          1           0       -1.537228    1.232472    1.677020
     14          1           0        0.185838    1.276304    2.085399
     15          1           0       -1.987757    1.123677   -0.879576
     16          1           0        1.546305    1.449135   -1.352591
     17          1           0        3.137239   -0.033431   -0.025188
     18          1           0        1.977303   -0.027379    1.368616
     19          1           0        1.528688   -1.482713   -1.352936
 ---------------------------------------------------------------------

 SCF Done:  E(RB3LYP) =  -423.126794629     A.U. after    1 cycles

 The electronic state is 1-A.
 Alpha  occ. eigenvalues --  -19.14783 -19.14279 -10.22812 -10.22539 -10.19203
 Alpha  occ. eigenvalues --  -10.19177 -10.19123 -10.17847 -10.17729  -1.03904
 Alpha  occ. eigenvalues --   -1.01805  -0.89338  -0.79590  -0.67274  -0.66268
 Alpha  occ. eigenvalues --   -0.59682  -0.57428  -0.54261  -0.53721  -0.49573
 Alpha  occ. eigenvalues --   -0.47057  -0.44613  -0.40988  -0.40898  -0.39934
 Alpha  occ. eigenvalues --   -0.38094  -0.37303  -0.34443  -0.33432  -0.30801
 Alpha  occ. eigenvalues --   -0.29954  -0.27594  -0.26844  -0.21698
 Alpha virt. eigenvalues --    0.06264   0.08853   0.09415   0.09954   0.11176
 Alpha virt. eigenvalues --    0.12716   0.14927   0.15931   0.16642   0.18017
 Alpha virt. eigenvalues --    0.18803   0.19063   0.20055   0.22810   0.24486

 Mulliken charges:
               1
     1  O   -0.490801
     2  C    0.376765
     3  C   -0.285256
     4  C   -0.308737
     5  C    0.368887
     6  O   -0.495255
     7  C   -0.090856
     8  C   -0.302346
     9  C   -0.152325
    10  H    0.281300
    11  H    0.110023
    12  H    0.103343
    13  H    0.097312
    14  H    0.102918
    15  H    0.280451
    16  H    0.092217
    17  H    0.115576
    18  H    0.113641
    19  H    0.083141
 Sum of Mulliken charges =   0.00000

 Dipole moment (field-independent basis, Debye):
    X=              0.4206    Y=             -0.2929    Z=             -0.1755  Tot=              0.5418
 Quadrupole moment (field-independent basis, Debye-Ang):
   XX=            -49.5476   YY=            -58.6783   ZZ=            -50.2092
   XY=             -1.4256   XZ=             -0.1753   YZ=              2.2416

  Exact polarizability:  79.088  -0.152  68.640  -1.154   0.682  73.270
 Approx polarizability: 111.206   1.226 107.214   2.053  -0.174 107.505

                      1                      2                      3
                      A                      A                      A
 Frequencies --     89.1185               174.3001               188.3871
 Red. masses --      1.3237                 2.5123                 2.3014
 Frc consts  --      0.0062                 0.0450                 0.0481
 IR Inten    --    135.1545                24.7692                19.0079

                      4                      5                      6
                      A                      A                      A
 Frequencies --    291.5221               306.1332               343.4077
 Red. masses --      2.8554                 2.3980                 3.3358
 Frc consts  --      0.1430                 0.1324                 0.2318
 IR Inten    --      0.0217                 8.0536                 1.6432

                      7                      8                      9
                      A                      A                      A
 Frequencies --    378.2148               409.8229               493.5856
 Red. masses --      3.3509                 1.2273                 2.9889
 Frc consts  --      0.2824                 0.1214                 0.4290
 IR Inten    --      4.0429                22.6960                 0.6650

                     10                     11                     12
                      A                      A                      A
 Frequencies --    527.6700               574.6674               687.0001
 Red. masses --      3.9116                 3.6299                 2.8797
 Frc consts  --      0.6417                 0.7063                 0.8008
 IR Inten    --      2.3149                 4.3435                 1.4595

                     13                     14                     15
                      A                      A                      A
 Frequencies --    697.3827               741.7128               775.1648
 Red. masses --      4.3127                 1.2733                 1.9081
 Frc consts  --      1.2358                 0.4127                 0.6755
 IR Inten    --      3.5270                 1.7517                19.9638

                     16                     17                     18
                      A                      A                      A
 Frequencies --    814.7948               915.5800               929.5167
 Red. masses --      1.7617                 2.4540                 2.3155
 Frc consts  --      0.6891                 1.2120                 1.1787
 IR Inten    --      1.4818                 3.7345                 8.0452

                     19                     20                     21
                      A                      A                      A
 Frequencies --    942.1018               950.2173               985.5535
 Red. masses --      1.9522                 1.8481                 2.2773
 Frc consts  --      1.0209                 0.9832                 1.3033
 IR Inten    --     16.7178                16.3378                 6.4983

                     22                     23                     24
                      A                      A                      A
 Frequencies --    991.5010              1002.3889              1052.3168
 Red. masses --      2.9977                 1.6565                 1.6302
 Frc consts  --      1.7363                 0.9807                 1.0636
 IR Inten    --      5.8682                34.3737                20.6737

                     25                     26                     27
                      A                      A                      A
 Frequencies --   1053.8263              1092.5810              1108.4580
 Red. masses --      1.2543                 1.3813                 2.2859
 Frc consts  --      0.8207                 0.9715                 1.6548
 IR Inten    --      3.1745                 3.1408                14.4183

                     28                     29                     30
                      A                      A                      A
 Frequencies --   1124.4043              1185.0905              1201.4515
 Red. masses --      1.5819                 1.8809                 1.8014
 Frc consts  --      1.1784                 1.5564                 1.5321
 IR Inten    --     26.5479                19.9478                15.4383

                     31                     32                     33
                      A                      A                      A
 Frequencies --   1206.8987              1227.4055              1254.4073
 Red. masses --      1.5157                 1.4327                 1.4967
 Frc consts  --      1.3008                 1.2717                 1.3876
 IR Inten    --     25.0733                 2.6985                 3.0455

                     34                     35                     36
                      A                      A                      A
 Frequencies --   1270.3378              1308.1016              1357.7773
 Red. masses --      3.6444                 2.1254                 2.7773
 Frc consts  --      3.4651                 2.1428                 3.0167
 IR Inten    --     54.5740                61.2775                90.5634

                     37                     38                     39
                      A                      A                      A
 Frequencies --   1366.7122              1389.9313              1468.2025
 Red. masses --      1.7510                 1.8706                 1.0840
 Frc consts  --      1.9270                 2.1292                 1.3767
 IR Inten    --     30.2314                13.1057                 0.9843

                     40                     41                     42
                      A                      A                      A
 Frequencies --   1480.9521              1501.1416              3057.3919
 Red. masses --      1.1888                 1.1514                 1.0586
 Frc consts  --      1.5362                 1.5287                 5.8300
 IR Inten    --      9.1584                 5.3251                31.0016

                     43                     44                     45
                      A                      A                      A
 Frequencies --   3072.3021              3106.5757              3121.8470
 Red. masses --      1.0594                 1.1081                 1.0548
 Frc consts  --      5.8915                 6.3008                 6.0571
 IR Inten    --     24.9808                 5.9140                14.6821

                     46                     47                     48
                      A                      A                      A
 Frequencies --   3129.7336              3158.7161              3183.4813
 Red. masses --      1.1071                 1.0917                 1.0973
 Frc consts  --      6.3896                 6.4178                 6.5519
 IR Inten    --     30.5973                18.2689                 7.1972

                     49                     50                     51
                      A                      A                      A
 Frequencies --   3199.6162              3782.2285              3785.2118
 Red. masses --      1.1118                 1.0655                 1.0655
 Frc consts  --      6.7064                 8.9806                 8.9947
 IR Inten    --     16.1190                25.2085                10.5986

 - Thermochemistry -
 -------------------
 Temperature   298.150 Kelvin.  Pressure   1.00000 Atm.
 Atom     1 has atomic number  8 and mass  15.99491

 Molecular mass:   126.06808 amu.
 Principal axes and moments of inertia in atomic units:
                           1         2         3
     Eigenvalues --   846.90969 992.301461057.77087
           X            0.99902  -0.02155  -0.03876
           Y            0.02446   0.99679   0.07623
           Z            0.03700  -0.07710   0.99634
 This molecule is an asymmetric top.
 Rotational symmetry number  1.
 Warning -- assumption of classical behavior for rotation
           may cause significant error
 Rotational temperatures (Kelvin)      0.10227     0.08729     0.08188
 Rotational constants (GHZ):           2.13097     1.81874     1.70617
 Zero-point vibrational energy     415444.2 (Joules/Mol)
                                   99.29354 (Kcal/Mol)
 Warning -- explicit consideration of  11 degrees of freedom as
           vibrations may cause significant error
 Vibrational temperatures:    128.22   250.78   271.05   419.43   440.46
          (Kelvin)            494.09   544.17   589.64   710.16   759.20
                              826.82   988.44  1003.38  1067.16  1115.29
                             1172.31  1317.31  1337.37  1355.47  1367.15
                             1417.99  1426.55  1442.21  1514.05  1516.22
                             1571.98  1594.82  1617.77  1705.08  1728.62
                             1736.46  1765.96  1804.81  1827.73  1882.06
                             1953.54  1966.39  1999.80  2112.41  2130.76
                             2159.81  4398.90  4420.35  4469.66  4491.64
                             4502.98  4544.68  4580.31  4603.53  5441.78
                             5446.07

 Zero-point correction=                           0.158234 (Hartree/Particle)
 Thermal correction to Energy=                    0.166523
 Thermal correction to Enthalpy=                  0.167467
 Thermal correction to Gibbs Free Energy=         0.125868
 Sum of electronic and zero-point Energies=           -422.968560
 Sum of electronic and thermal Energies=              -422.960272
 Sum of electronic and thermal Enthalpies=            -422.959328
 Sum of electronic and thermal Free Energies=         -423.000926

                     E (Thermal)             CV                S
                      KCal/Mol        Cal/Mol-Kelvin    Cal/Mol-Kelvin
 Total                  104.495             33.167             87.552
 Electronic               0.000              0.000              0.000
 Translational            0.889              2.981             40.409
 Rotational               0.889              2.981             28.277
 Vibrational            102.717             27.205             18.867
 Vibration     1          0.602              1.957              3.679
 Vibration     2          0.627              1.874              2.389
 Vibration     3          0.633              1.856              2.244
 Vibration     4          0.687              1.690              1.465
 Vibration     5          0.697              1.662              1.383
 Vibration     6          0.722              1.589              1.196
 Vibration     7          0.748              1.517              1.046
 Vibration     8          0.774              1.449              0.927
 Vibration     9          0.849              1.264              0.674
 Vibration    10          0.883              1.189              0.592
 Vibration    11          0.931              1.086              0.495

 Optimization completed.
    -- Stationary point found.
 Normal termination of Gaussian 09 at Mon Jan 27 19:30:37 2020.
