 Gaussian 09, Revision D.01,
 Gaussian 09:  ES64L-G09RevD.01 24-Apr-2013

 -----------------------------
 # b3lyp 6-31G(2df,p) opt Freq
 -----------------------------

 -----
 titel
 -----
 Symbolic Z-matrix:
 Charge =  0 Multiplicity = 1

 SCF Done:  E(RB3LYP) =  -423.122065985     A.U. after   14 cycles
 Optimization completed.
    -- Stationary point found.
 Normal termination of Gaussian 09 at Mon Jan 27 15:54:47 2020.

 ----------------------------------------------------------------------
 #N Geom=AllCheck Guess=TCheck SCRF=Check GenChk RB3LYP/6-31G(2df,p) Fr
 eq
 ----------------------------------------------------------------------

 Structure from the checkpoint file:  "/scratch/puck/g09_c4d28981-77e0-4886-86a8-67c7123524a0/Gau-10197.chk"
 -----
 titel
 -----
 Charge =  0 Multiplicity = 1

                         Standard orientation:
 ---------------------------------------------------------------------
 Center     Atomic      Atomic             Coordinates (Angstroms)
 Number     Number       Type             X           Y           Z
 ---------------------------------------------------------------------
      1          8           0       -1.433606    1.613825    0.252923
      2          6           0       -1.281904    0.286804   -0.250809
      3          6           0       -0.170206   -0.377907    0.573362
      4          6           0        1.167804    0.312360    0.368920
      5          6           0        2.433415   -0.406338    0.888224
      6          6           0        2.875513   -0.390522   -0.588535
      7          8           0        1.628831    0.203910   -1.004735
      8          6           0       -2.540195   -0.462158   -0.181594
      9          6           0       -3.584729   -1.055588   -0.132656
     10          1           0       -2.138715    2.039209   -0.245407
     11          1           0       -0.945491    0.313036   -1.298648
     12          1           0       -0.448658   -0.342288    1.632949
     13          1           0       -0.091394   -1.428716    0.276277
     14          1           0        1.092265    1.364905    0.664489
     15          1           0        3.054669    0.161487    1.581944
     16          1           0        2.248827   -1.400145    1.301981
     17          1           0        3.730657    0.259976   -0.811858
     18          1           0        3.043483   -1.366362   -1.059531
     19          1           0       -4.505621   -1.582890   -0.089171
 ---------------------------------------------------------------------

 SCF Done:  E(RB3LYP) =  -423.122065985     A.U. after    1 cycles

 The electronic state is 1-A.
 Alpha  occ. eigenvalues --  -19.14127 -19.12675 -10.25453 -10.23016 -10.22890
 Alpha  occ. eigenvalues --  -10.18741 -10.18536 -10.18170 -10.17721  -1.03230
 Alpha  occ. eigenvalues --   -1.02326  -0.79268  -0.74974  -0.73280  -0.67978
 Alpha  occ. eigenvalues --   -0.61961  -0.55385  -0.53927  -0.51643  -0.49333
 Alpha  occ. eigenvalues --   -0.48714  -0.46287  -0.44218  -0.41554  -0.38665
 Alpha  occ. eigenvalues --   -0.37615  -0.36947  -0.35075  -0.32062  -0.30260
 Alpha  occ. eigenvalues --   -0.29009  -0.27198  -0.26222  -0.24331
 Alpha virt. eigenvalues --    0.03394   0.05443   0.08865   0.09768   0.10317
 Alpha virt. eigenvalues --    0.11662   0.12469   0.12737   0.15225   0.15912
 Alpha virt. eigenvalues --    0.17065   0.17555   0.19669   0.21603   0.22208

 Mulliken charges:
               1
     1  O   -0.423913
     2  C   -0.070984
     3  C   -0.202475
     4  C    0.153082
     5  C   -0.306518
     6  C   -0.057018
     7  O   -0.298950
     8  C    0.308759
     9  C   -0.451493
    10  H    0.289625
    11  H    0.119003
    12  H    0.114619
    13  H    0.107673
    14  H    0.095948
    15  H    0.111712
    16  H    0.108785
    17  H    0.101505
    18  H    0.103098
    19  H    0.197542
 Sum of Mulliken charges =   0.00000

 Dipole moment (field-independent basis, Debye):
    X=              0.1447    Y=             -0.6939    Z=              0.4938  Tot=              0.8639
 Quadrupole moment (field-independent basis, Debye-Ang):
   XX=            -44.1385   YY=            -51.5382   ZZ=            -55.1876
   XY=             -0.9432   XZ=              3.5784   YZ=             -1.2997

  Exact polarizability: 104.282   7.864  69.533  -0.497   0.508  60.894
 Approx polarizability: 133.467  16.815 106.207  -1.320   0.929  92.076

                      1                      2                      3
                      A                      A                      A
 Frequencies --     57.4506                70.7281                95.6248
 Red. masses --      3.0150                 4.2030                 3.0965
 Frc consts  --      0.0059                 0.0124                 0.0167
 IR Inten    --      0.5015                 3.2730                 4.7625

                      4                      5                      6
                      A                      A                      A
 Frequencies --    116.9948               190.5930               247.4207
 Red. masses --      3.1617                 3.5343                 3.9326
 Frc consts  --      0.0255                 0.0756                 0.1418
 IR Inten    --      0.1771                 2.8210                 2.8473

                      7                      8                      9
                      A                      A                      A
 Frequencies --    270.4847               327.7333               398.9762
 Red. masses --      1.2481                 3.1721                 2.6608
 Frc consts  --      0.0538                 0.2007                 0.2496
 IR Inten    --     95.7928                 3.2327                 9.6105

                     10                     11                     12
                      A                      A                      A
 Frequencies --    470.4141               536.3371               578.7945
 Red. masses --      3.7206                 3.0203                 6.0222
 Frc consts  --      0.4851                 0.5119                 1.1886
 IR Inten    --      7.6119                12.1303                 6.1180

                     13                     14                     15
                      A                      A                      A
 Frequencies --    623.6269               668.2751               747.7875
 Red. masses --      1.2177                 1.2502                 2.0268
 Frc consts  --      0.2790                 0.3290                 0.6678
 IR Inten    --     47.5136                35.1828                 4.4148

                     16                     17                     18
                      A                      A                      A
 Frequencies --    802.2047               856.4806               884.9184
 Red. masses --      1.4545                 2.2475                 2.8601
 Frc consts  --      0.5515                 0.9714                 1.3196
 IR Inten    --      3.3394                13.5325                 8.2975

                     19                     20                     21
                      A                      A                      A
 Frequencies --    913.8859               972.6828              1001.1916
 Red. masses --      3.1879                 2.5838                 2.8963
 Frc consts  --      1.5687                 1.4403                 1.7105
 IR Inten    --     11.5198                 2.8085                 4.0768

                     22                     23                     24
                      A                      A                      A
 Frequencies --   1023.2940              1043.4174              1046.9390
 Red. masses --      3.6449                 3.4904                 3.1167
 Frc consts  --      2.2487                 2.2389                 2.0127
 IR Inten    --     72.5904               108.4879                44.4971

                     25                     26                     27
                      A                      A                      A
 Frequencies --   1104.9739              1139.9618              1168.0037
 Red. masses --      2.7444                 2.0563                 1.1995
 Frc consts  --      1.9742                 1.5744                 0.9641
 IR Inten    --     21.3306                17.0540                 0.2423

                     28                     29                     30
                      A                      A                      A
 Frequencies --   1203.3693              1222.7895              1258.3588
 Red. masses --      1.2926                 1.2726                 1.4406
 Frc consts  --      1.1028                 1.1211                 1.3440
 IR Inten    --     11.2088                 4.8553                 5.9934

                     31                     32                     33
                      A                      A                      A
 Frequencies --   1278.8709              1300.2259              1312.3489
 Red. masses --      1.2499                 1.2085                 1.2690
 Frc consts  --      1.2044                 1.2038                 1.2877
 IR Inten    --     11.7179                11.2309                21.5500

                     34                     35                     36
                      A                      A                      A
 Frequencies --   1363.9857              1370.9009              1396.9559
 Red. masses --      1.4176                 1.2777                 1.3163
 Frc consts  --      1.5539                 1.4148                 1.5134
 IR Inten    --     15.1027                 2.1363                11.2332

                     37                     38                     39
                      A                      A                      A
 Frequencies --   1412.0596              1459.0542              1491.0960
 Red. masses --      1.6690                 1.1002                 1.1048
 Frc consts  --      1.9607                 1.3800                 1.4472
 IR Inten    --     27.4287                 3.0426                 3.2557

                     40                     41                     42
                      A                      A                      A
 Frequencies --   1533.1200              2231.5299              2991.4449
 Red. masses --      1.1100                 5.9094                 1.0810
 Frc consts  --      1.5372                17.3380                 5.6993
 IR Inten    --      1.5601                 0.6451                15.7130

                     43                     44                     45
                      A                      A                      A
 Frequencies --   3013.7933              3042.5031              3046.0184
 Red. masses --      1.0559                 1.0668                 1.0781
 Frc consts  --      5.6506                 5.8180                 5.8936
 IR Inten    --     99.1554                 7.1238                24.7726

                     46                     47                     48
                      A                      A                      A
 Frequencies --   3053.4299              3076.1245              3096.5869
 Red. masses --      1.1095                 1.0606                 1.1038
 Frc consts  --      6.0948                 5.9129                 6.2362
 IR Inten    --     31.5187                28.1749                21.9243

                     49                     50                     51
                      A                      A                      A
 Frequencies --   3132.8571              3502.9860              3823.0946
 Red. masses --      1.1078                 1.1622                 1.0664
 Frc consts  --      6.4059                 8.4028                 9.1834
 IR Inten    --     28.8352                65.8271                27.9955

 - Thermochemistry -
 -------------------
 Temperature   298.150 Kelvin.  Pressure   1.00000 Atm.
 Atom     1 has atomic number  8 and mass  15.99491

 Molecular mass:   126.06808 amu.
 Principal axes and moments of inertia in atomic units:
                           1         2         3
     Eigenvalues --   462.117172240.399022355.12673
           X            0.99997  -0.00308   0.00703
           Y            0.00334   0.99932  -0.03660
           Z           -0.00691   0.03662   0.99931
 This molecule is an asymmetric top.
 Rotational symmetry number  1.
 Warning -- assumption of classical behavior for rotation
           may cause significant error
 Rotational temperatures (Kelvin)      0.18743     0.03866     0.03678
 Rotational constants (GHZ):           3.90538     0.80554     0.76630
 Zero-point vibrational energy     412548.4 (Joules/Mol)
                                   98.60142 (Kcal/Mol)
 Warning -- explicit consideration of  12 degrees of freedom as
           vibrations may cause significant error
 Vibrational temperatures:     82.66   101.76   137.58   168.33   274.22
          (Kelvin)            355.98   389.17   471.53   574.04   676.82
                              771.67   832.76   897.26   961.50  1075.90
                             1154.19  1232.28  1273.20  1314.88  1399.47
                             1440.49  1472.29  1501.24  1506.31  1589.81
                             1640.15  1680.49  1731.38  1759.32  1810.50
                             1840.01  1870.73  1888.17  1962.47  1972.42
                             2009.91  2031.64  2099.25  2145.35  2205.82
                             3210.67  4304.02  4336.17  4377.48  4382.54
                             4393.20  4425.85  4455.29  4507.48  5040.01
                             5500.57

 Zero-point correction=                           0.157131 (Hartree/Particle)
 Thermal correction to Energy=                    0.166842
 Thermal correction to Enthalpy=                  0.167786
 Thermal correction to Gibbs Free Energy=         0.121592
 Sum of electronic and zero-point Energies=           -422.964935
 Sum of electronic and thermal Energies=              -422.955224
 Sum of electronic and thermal Enthalpies=            -422.954280
 Sum of electronic and thermal Free Energies=         -423.000474

                     E (Thermal)             CV                S
                      KCal/Mol        Cal/Mol-Kelvin    Cal/Mol-Kelvin
 Total                  104.695             34.860             97.224
 Electronic               0.000              0.000              0.000
 Translational            0.889              2.981             40.409
 Rotational               0.889              2.981             29.279
 Vibrational            102.917             28.898             27.536
 Vibration     1          0.596              1.975              4.543
 Vibration     2          0.598              1.968              4.133
 Vibration     3          0.603              1.952              3.542
 Vibration     4          0.608              1.935              3.149
 Vibration     5          0.634              1.853              2.222
 Vibration     6          0.661              1.767              1.749
 Vibration     7          0.674              1.728              1.593
 Vibration     8          0.711              1.620              1.271
 Vibration     9          0.765              1.472              0.966
 Vibration    10          0.827              1.316              0.736
 Vibration    11          0.891              1.170              0.573
 Vibration    12          0.935              1.077              0.488

 Optimization completed.
    -- Stationary point found.
 Normal termination of Gaussian 09 at Mon Jan 27 17:35:50 2020.
