 Gaussian 09, Revision D.01,
 Gaussian 09:  ES64L-G09RevD.01 24-Apr-2013

 -----------------------------
 # b3lyp 6-31G(2df,p) opt Freq
 -----------------------------

 -----
 titel
 -----
 Symbolic Z-matrix:
 Charge =  0 Multiplicity = 1

 SCF Done:  E(RB3LYP) =  -423.160617814     A.U. after   13 cycles
 Optimization completed.
    -- Stationary point found.
 Normal termination of Gaussian 09 at Mon Jan 27 17:44:27 2020.

 ----------------------------------------------------------------------
 #N Geom=AllCheck Guess=TCheck SCRF=Check GenChk RB3LYP/6-31G(2df,p) Fr
 eq
 ----------------------------------------------------------------------

 Structure from the checkpoint file:  "/scratch/puck/g09_a6599685-0705-40b7-acc4-d5691f27c167/Gau-15283.chk"
 -----
 titel
 -----
 Charge =  0 Multiplicity = 1

                         Standard orientation:
 ---------------------------------------------------------------------
 Center     Atomic      Atomic             Coordinates (Angstroms)
 Number     Number       Type             X           Y           Z
 ---------------------------------------------------------------------
      1          8           0       -2.157232    0.693443   -0.981796
      2          6           0       -1.239658    0.224008   -0.041808
      3          6           0       -1.577941   -1.002425    0.769489
      4          6           0       -0.509636   -1.063810   -0.308043
      5          6           0        0.906295   -0.933181    0.189688
      6          8           0        1.860878   -0.607309   -0.845693
      7          6           0        2.133799    0.677013   -0.251333
      8          6           0        1.044969    0.481886    0.828133
      9          6           0       -0.285574    1.234738    0.600909
     10          1           0       -2.892642    1.095859   -0.507230
     11          1           0       -1.282959   -1.052965    1.814595
     12          1           0       -2.517542   -1.491699    0.537846
     13          1           0       -0.704110   -1.642668   -1.203352
     14          1           0        1.245805   -1.794064    0.779326
     15          1           0        3.160838    0.734623    0.132039
     16          1           0        1.968537    1.502907   -0.954651
     17          1           0        1.401047    0.531317    1.857054
     18          1           0       -0.687835    1.645788    1.534065
     19          1           0       -0.153831    2.072452   -0.091982
 ---------------------------------------------------------------------

 SCF Done:  E(RB3LYP) =  -423.160617814     A.U. after    1 cycles

 The electronic state is 1-A.
 Alpha  occ. eigenvalues --  -19.14348 -19.12573 -10.23838 -10.23084 -10.22639
 Alpha  occ. eigenvalues --  -10.19264 -10.18577 -10.18513 -10.18504  -1.03460
 Alpha  occ. eigenvalues --   -1.02831  -0.86653  -0.76635  -0.69601  -0.67779
 Alpha  occ. eigenvalues --   -0.60672  -0.56824  -0.53617  -0.52446  -0.49861
 Alpha  occ. eigenvalues --   -0.46613  -0.44293  -0.43282  -0.42041  -0.40672
 Alpha  occ. eigenvalues --   -0.39344  -0.37225  -0.35773  -0.32446  -0.30993
 Alpha  occ. eigenvalues --   -0.29569  -0.26694  -0.25907  -0.24382
 Alpha virt. eigenvalues --    0.07596   0.07848   0.09331   0.11012   0.11665
 Alpha virt. eigenvalues --    0.12768   0.13267   0.15945   0.16365   0.17276
 Alpha virt. eigenvalues --    0.18812   0.19056   0.20713   0.21486   0.23073

 Mulliken charges:
               1
     1  O   -0.471133
     2  C    0.417851
     3  C   -0.359262
     4  C   -0.109614
     5  C    0.131818
     6  O   -0.296059
     7  C   -0.076800
     8  C   -0.081445
     9  C   -0.316605
    10  H    0.281918
    11  H    0.105604
    12  H    0.115106
    13  H    0.105187
    14  H    0.073308
    15  H    0.097499
    16  H    0.102566
    17  H    0.076569
    18  H    0.093417
    19  H    0.110076
 Sum of Mulliken charges =   0.00000

 Dipole moment (field-independent basis, Debye):
    X=             -1.1230    Y=              1.0208    Z=              2.5005  Tot=              2.9250
 Quadrupole moment (field-independent basis, Debye-Ang):
   XX=            -50.3202   YY=            -51.5517   ZZ=            -55.6148
   XY=              1.2218   XZ=              0.4052   YZ=             -0.1355

  Exact polarizability:  83.655   2.603  72.601  -1.032  -1.587  65.421
 Approx polarizability: 109.909   0.003 107.209  -2.999  -1.618 103.246

                      1                      2                      3
                      A                      A                      A
 Frequencies --     66.5631               143.3491               284.4786
 Red. masses --      2.5562                 5.5806                 1.1649
 Frc consts  --      0.0067                 0.0676                 0.0555
 IR Inten    --      1.6652                 0.4238                73.8772

                      4                      5                      6
                      A                      A                      A
 Frequencies --    310.5151               349.6646               395.1724
 Red. masses --      2.1913                 3.1799                 2.9241
 Frc consts  --      0.1245                 0.2291                 0.2690
 IR Inten    --     16.1696                 8.0216                 1.4837

                      7                      8                      9
                      A                      A                      A
 Frequencies --    423.4406               433.5951               573.6259
 Red. masses --      2.8637                 3.1580                 3.3882
 Frc consts  --      0.3025                 0.3498                 0.6569
 IR Inten    --      4.7414                19.2397                 2.8763

                     10                     11                     12
                      A                      A                      A
 Frequencies --    639.4826               736.6099               807.3288
 Red. masses --      3.9177                 3.5988                 2.0478
 Frc consts  --      0.9439                 1.1505                 0.7864
 IR Inten    --      2.6385                 2.4106                 0.7459

                     13                     14                     15
                      A                      A                      A
 Frequencies --    816.3244               871.5708               875.8919
 Red. masses --      2.5256                 1.9197                 3.0838
 Frc consts  --      0.9916                 0.8592                 1.3939
 IR Inten    --      0.7115                 6.2423                 7.2078

                     16                     17                     18
                      A                      A                      A
 Frequencies --    903.0505               928.6487               950.0599
 Red. masses --      1.6052                 1.7183                 1.8459
 Frc consts  --      0.7713                 0.8731                 0.9816
 IR Inten    --      4.3719                 5.8132                18.9954

                     19                     20                     21
                      A                      A                      A
 Frequencies --    995.8790              1018.3438              1021.2521
 Red. masses --      3.0875                 2.6096                 3.6365
 Frc consts  --      1.8041                 1.5945                 2.2346
 IR Inten    --     16.9154                14.6464                67.7006

                     22                     23                     24
                      A                      A                      A
 Frequencies --   1044.9815              1063.5135              1074.0174
 Red. masses --      1.7085                 2.0429                 1.7550
 Frc consts  --      1.0992                 1.3614                 1.1927
 IR Inten    --     18.0346                29.9396                 8.5091

                     25                     26                     27
                      A                      A                      A
 Frequencies --   1098.4669              1107.2347              1162.1913
 Red. masses --      1.7110                 1.7223                 1.1681
 Frc consts  --      1.2164                 1.2441                 0.9295
 IR Inten    --      2.5171                15.1179                 2.1656

                     28                     29                     30
                      A                      A                      A
 Frequencies --   1181.0015              1217.8348              1253.6952
 Red. masses --      1.3392                 1.6731                 1.8856
 Frc consts  --      1.1005                 1.4620                 1.7461
 IR Inten    --     17.7651                14.5593                14.2181

                     31                     32                     33
                      A                      A                      A
 Frequencies --   1258.6433              1279.1595              1308.7828
 Red. masses --      1.7812                 1.4264                 1.9760
 Frc consts  --      1.6625                 1.3751                 1.9942
 IR Inten    --     31.7947                 4.7379                26.6377

                     34                     35                     36
                      A                      A                      A
 Frequencies --   1319.4971              1340.9007              1346.2683
 Red. masses --      1.3476                 1.5036                 1.7286
 Frc consts  --      1.3824                 1.5929                 1.8459
 IR Inten    --     19.6029                 2.1609                26.5982

                     37                     38                     39
                      A                      A                      A
 Frequencies --   1364.8959              1409.5703              1481.2388
 Red. masses --      1.4990                 1.6820                 1.4023
 Frc consts  --      1.6453                 1.9691                 1.8127
 IR Inten    --     16.7989                14.0988                10.8008

                     40                     41                     42
                      A                      A                      A
 Frequencies --   1500.9070              1525.1598              3004.7934
 Red. masses --      1.1651                 1.1005                 1.0557
 Frc consts  --      1.5465                 1.5082                 5.6159
 IR Inten    --      1.9394                 0.3941                90.3703

                     43                     44                     45
                      A                      A                      A
 Frequencies --   3024.0277              3032.0817              3048.4928
 Red. masses --      1.0851                 1.0625                 1.1104
 Frc consts  --      5.8464                 5.7552                 6.0799
 IR Inten    --     57.4307                31.8959                38.1513

                     46                     47                     48
                      A                      A                      A
 Frequencies --   3075.4378              3108.6976              3114.6819
 Red. masses --      1.1011                 1.0886                 1.0564
 Frc consts  --      6.1359                 6.1985                 6.0381
 IR Inten    --     14.2939                35.8053                16.7183

                     49                     50                     51
                      A                      A                      A
 Frequencies --   3187.2331              3211.2784              3797.5080
 Red. masses --      1.0921                 1.1135                 1.0662
 Frc consts  --      6.5363                 6.7654                 9.0587
 IR Inten    --      2.9631                 8.6342                19.3980

 - Thermochemistry -
 -------------------
 Temperature   298.150 Kelvin.  Pressure   1.00000 Atm.
 Atom     1 has atomic number  8 and mass  15.99491

 Molecular mass:   126.06808 amu.
 Principal axes and moments of inertia in atomic units:
                           1         2         3
     Eigenvalues --   567.382011272.919931401.22397
           X            0.99963   0.02716  -0.00174
           Y           -0.02719   0.99946  -0.01839
           Z            0.00124   0.01843   0.99983
 This molecule is an asymmetric top.
 Rotational symmetry number  1.
 Warning -- assumption of classical behavior for rotation
           may cause significant error
 Rotational temperatures (Kelvin)      0.15266     0.06804     0.06181
 Rotational constants (GHZ):           3.18082     1.41780     1.28797
 Zero-point vibrational energy     421606.1 (Joules/Mol)
                                  100.76628 (Kcal/Mol)
 Warning -- explicit consideration of   9 degrees of freedom as
           vibrations may cause significant error
 Vibrational temperatures:     95.77   206.25   409.30   446.76   503.09
          (Kelvin)            568.56   609.24   623.85   825.32   920.07
                             1059.82  1161.56  1174.51  1253.99  1260.21
                             1299.29  1336.12  1366.92  1432.85  1465.17
                             1469.35  1503.49  1530.16  1545.27  1580.45
                             1593.06  1672.13  1699.20  1752.19  1803.79
                             1810.90  1840.42  1883.04  1898.46  1929.25
                             1936.98  1963.78  2028.05  2131.17  2159.47
                             2194.36  4323.22  4350.90  4362.48  4386.10
                             4424.86  4472.72  4481.33  4585.71  4620.31
                             5463.76

 Zero-point correction=                           0.160581 (Hartree/Particle)
 Thermal correction to Energy=                    0.168192
 Thermal correction to Enthalpy=                  0.169136
 Thermal correction to Gibbs Free Energy=         0.128366
 Sum of electronic and zero-point Energies=           -423.000037
 Sum of electronic and thermal Energies=              -422.992426
 Sum of electronic and thermal Enthalpies=            -422.991482
 Sum of electronic and thermal Free Energies=         -423.032252

                     E (Thermal)             CV                S
                      KCal/Mol        Cal/Mol-Kelvin    Cal/Mol-Kelvin
 Total                  105.542             30.321             85.807
 Electronic               0.000              0.000              0.000
 Translational            0.889              2.981             40.409
 Rotational               0.889              2.981             28.405
 Vibrational            103.764             24.360             16.993
 Vibration     1          0.598              1.970              4.253
 Vibration     2          0.616              1.910              2.759
 Vibration     3          0.683              1.702              1.507
 Vibration     4          0.699              1.654              1.360
 Vibration     5          0.727              1.576              1.168
 Vibration     6          0.762              1.480              0.981
 Vibration     7          0.786              1.419              0.880
 Vibration     8          0.794              1.397              0.847
 Vibration     9          0.930              1.088              0.497

 Normal termination of Gaussian 09 at Mon Jan 27 19:45:28 2020.
