 Gaussian 09, Revision D.01,
 Gaussian 09:  ES64L-G09RevD.01 24-Apr-2013

 -----------------------------
 # b3lyp 6-31G(2df,p) opt Freq
 -----------------------------

 -----
 titel
 -----
 Symbolic Z-matrix:
 Charge =  0 Multiplicity = 1

 SCF Done:  E(RB3LYP) =  -423.170421668     A.U. after   14 cycles
 Optimization completed.
    -- Stationary point found.
 Normal termination of Gaussian 09 at Tue Jan 28 09:16:00 2020.

 ----------------------------------------------------------------------
 #N Geom=AllCheck Guess=TCheck SCRF=Check GenChk RB3LYP/6-31G(2df,p) Fr
 eq
 ----------------------------------------------------------------------

 Structure from the checkpoint file:  "/scratch/puck/g09_22817e4a-c218-419f-a4f8-e65db5fae348/Gau-77136.chk"
 -----
 titel
 -----
 Charge =  0 Multiplicity = 1

                         Standard orientation:
 ---------------------------------------------------------------------
 Center     Atomic      Atomic             Coordinates (Angstroms)
 Number     Number       Type             X           Y           Z
 ---------------------------------------------------------------------
      1          6           0        2.871536    0.345620   -0.062147
      2          6           0        1.841424   -0.656016   -0.604078
      3          6           0        0.454980   -0.395215   -0.100583
      4          8           0        0.123428   -0.770823    1.237385
      5          6           0       -0.658797   -1.349426    0.163541
      6          6           0       -1.663069   -0.266454   -0.205954
      7          8           0       -2.844905   -0.237708   -0.380484
      8          6           0       -0.514213    0.762933   -0.454567
      9          6           0       -0.485116    2.044294    0.368205
     10          1           0        2.636096    1.368342   -0.372699
     11          1           0        2.896605    0.321828    1.031099
     12          1           0        3.872571    0.105918   -0.431448
     13          1           0        1.827191   -0.623451   -1.700391
     14          1           0        2.125869   -1.674078   -0.316334
     15          1           0       -0.709886   -2.430906    0.109438
     16          1           0       -0.501472    0.978301   -1.531278
     17          1           0        0.355701    2.685461    0.085727
     18          1           0       -1.407780    2.611394    0.211506
     19          1           0       -0.403550    1.811021    1.432679
 ---------------------------------------------------------------------

 SCF Done:  E(RB3LYP) =  -423.170421668     A.U. after    1 cycles

 The electronic state is 1-A.
 Alpha  occ. eigenvalues --  -19.17016 -19.14329 -10.27606 -10.25687 -10.24604
 Alpha  occ. eigenvalues --  -10.20557 -10.20434 -10.18807 -10.18362  -1.09468
 Alpha  occ. eigenvalues --   -1.04989  -0.81625  -0.78507  -0.72384  -0.66545
 Alpha  occ. eigenvalues --   -0.63454  -0.56591  -0.54269  -0.49316  -0.48601
 Alpha  occ. eigenvalues --   -0.45600  -0.44610  -0.43344  -0.42409  -0.40525
 Alpha  occ. eigenvalues --   -0.39789  -0.38386  -0.37760  -0.36408  -0.35249
 Alpha  occ. eigenvalues --   -0.34276  -0.31608  -0.28068  -0.23761
 Alpha virt. eigenvalues --   -0.02575   0.06447   0.10205   0.10907   0.11521
 Alpha virt. eigenvalues --    0.12438   0.13801   0.14595   0.14979   0.15936
 Alpha virt. eigenvalues --    0.16575   0.17628   0.18560   0.19493   0.20747

 Mulliken charges:
               1
     1  C   -0.383333
     2  C   -0.304024
     3  C    0.428418
     4  O   -0.281365
     5  C   -0.203279
     6  C    0.430363
     7  O   -0.305928
     8  C   -0.186722
     9  C   -0.417029
    10  H    0.124620
    11  H    0.136743
    12  H    0.120205
    13  H    0.109761
    14  H    0.117046
    15  H    0.119517
    16  H    0.101395
    17  H    0.119869
    18  H    0.135040
    19  H    0.138703
 Sum of Mulliken charges =   0.00000

 Dipole moment (field-independent basis, Debye):
    X=              2.9678    Y=              0.0487    Z=             -1.3542  Tot=              3.2625
 Quadrupole moment (field-independent basis, Debye-Ang):
   XX=            -60.8843   YY=            -49.7483   ZZ=            -54.4543
   XY=             -0.5457   XZ=             -2.0989   YZ=              0.8559

  Exact polarizability:  90.461   1.769  77.091   0.664  -1.179  60.689
 Approx polarizability: 129.045   4.291 108.000   4.144  -4.623 100.368

                      1                      2                      3
                      A                      A                      A
 Frequencies --     66.5336                97.3974               166.1250
 Red. masses --      3.0110                 3.6813                 2.9392
 Frc consts  --      0.0079                 0.0206                 0.0478
 IR Inten    --      1.1278                 1.4590                 1.2730

                      4                      5                      6
                      A                      A                      A
 Frequencies --    204.1691               208.5222               226.5869
 Red. masses --      1.5264                 1.1258                 2.4133
 Frc consts  --      0.0375                 0.0288                 0.0730
 IR Inten    --      0.2391                 1.2466                 2.4622

                      7                      8                      9
                      A                      A                      A
 Frequencies --    253.7827               327.8640               398.5536
 Red. masses --      2.3532                 2.4037                 3.8544
 Frc consts  --      0.0893                 0.1522                 0.3607
 IR Inten    --      1.8292                 1.7382                 3.4011

                     10                     11                     12
                      A                      A                      A
 Frequencies --    496.3537               543.2719               612.4520
 Red. masses --      3.5141                 3.9586                 5.0977
 Frc consts  --      0.5101                 0.6884                 1.1266
 IR Inten    --      3.8894                10.3304                 2.2760

                     13                     14                     15
                      A                      A                      A
 Frequencies --    680.8833               711.3701               766.3131
 Red. masses --      3.3241                 4.8947                 1.8738
 Frc consts  --      0.9080                 1.4594                 0.6483
 IR Inten    --      3.6948                 1.3943                 0.8894

                     16                     17                     18
                      A                      A                      A
 Frequencies --    786.4411               859.4233               872.4289
 Red. masses --      1.8088                 2.1107                 4.0722
 Frc consts  --      0.6591                 0.9185                 1.8261
 IR Inten    --      2.9179                24.3284                15.5781

                     19                     20                     21
                      A                      A                      A
 Frequencies --    959.9514              1001.0165              1016.5790
 Red. masses --      2.1590                 1.7017                 1.8865
 Frc consts  --      1.1722                 1.0047                 1.1487
 IR Inten    --      5.3762                 7.3610                13.7427

                     22                     23                     24
                      A                      A                      A
 Frequencies --   1052.5243              1061.6826              1076.2780
 Red. masses --      1.5944                 2.5398                 1.7202
 Frc consts  --      1.0406                 1.6867                 1.1740
 IR Inten    --      5.5831                 6.5771                12.7491

                     25                     26                     27
                      A                      A                      A
 Frequencies --   1102.4805              1139.4914              1192.5447
 Red. masses --      2.1109                 2.3553                 1.6648
 Frc consts  --      1.5117                 1.8019                 1.3949
 IR Inten    --      0.1308                 4.6685                 3.0764

                     28                     29                     30
                      A                      A                      A
 Frequencies --   1213.3830              1224.9621              1307.3746
 Red. masses --      1.5147                 2.2893                 1.2902
 Frc consts  --      1.3139                 2.0239                 1.2993
 IR Inten    --      4.4018                 9.7298                 6.3864

                     31                     32                     33
                      A                      A                      A
 Frequencies --   1334.3428              1352.5686              1403.0778
 Red. masses --      1.7736                 1.4974                 1.2295
 Frc consts  --      1.8605                 1.6140                 1.4261
 IR Inten    --      7.9558                 5.7901                 3.8643

                     34                     35                     36
                      A                      A                      A
 Frequencies --   1409.5125              1440.0324              1471.6309
 Red. masses --      1.2821                 3.1441                 1.1026
 Frc consts  --      1.5007                 3.8414                 1.4069
 IR Inten    --      2.2323                12.1264                 3.0295

                     37                     38                     39
                      A                      A                      A
 Frequencies --   1491.5162              1500.0286              1504.0368
 Red. masses --      1.0564                 1.0470                 1.0622
 Frc consts  --      1.3846                 1.3880                 1.4157
 IR Inten    --      1.9936                 8.3429                 9.3107

                     40                     41                     42
                      A                      A                      A
 Frequencies --   1508.4099              1897.1283              3031.0146
 Red. masses --      1.0841                12.5093                 1.0709
 Frc consts  --      1.4534                26.5263                 5.7966
 IR Inten    --      4.2228               300.1155                 3.1339

                     43                     44                     45
                      A                      A                      A
 Frequencies --   3034.8114              3041.4136              3043.5811
 Red. masses --      1.0701                 1.0368                 1.0351
 Frc consts  --      5.8066                 5.6508                 5.6493
 IR Inten    --     29.2006                 6.9376                34.1901

                     46                     47                     48
                      A                      A                      A
 Frequencies --   3074.2762              3106.8351              3114.6710
 Red. masses --      1.1011                 1.1013                 1.1016
 Frc consts  --      6.1314                 6.2634                 6.2968
 IR Inten    --      7.0790                24.5419                25.9942

                     49                     50                     51
                      A                      A                      A
 Frequencies --   3120.6863              3127.3554              3189.4660
 Red. masses --      1.1027                 1.1015                 1.0955
 Frc consts  --      6.3270                 6.3472                 6.5658
 IR Inten    --     20.4474                14.5278                10.2997

 - Thermochemistry -
 -------------------
 Temperature   298.150 Kelvin.  Pressure   1.00000 Atm.
 Atom     1 has atomic number  6 and mass  12.00000

 Molecular mass:   126.06808 amu.
 Principal axes and moments of inertia in atomic units:
                           1         2         3
     Eigenvalues --   618.595441435.420091732.35995
           X            0.99991  -0.00607  -0.01200
           Y            0.00648   0.99937   0.03501
           Z            0.01178  -0.03509   0.99931
 This molecule is an asymmetric top.
 Rotational symmetry number  1.
 Warning -- assumption of classical behavior for rotation
           may cause significant error
 Rotational temperatures (Kelvin)      0.14002     0.06034     0.05000
 Rotational constants (GHZ):           2.91748     1.25729     1.04178
 Zero-point vibrational energy     411653.8 (Joules/Mol)
                                   98.38761 (Kcal/Mol)
 Warning -- explicit consideration of  12 degrees of freedom as
           vibrations may cause significant error
 Vibrational temperatures:     95.73   140.13   239.02   293.75   300.02
          (Kelvin)            326.01   365.14   471.72   573.43   714.14
                              781.65   881.18   979.64  1023.50  1102.55
                             1131.51  1236.52  1255.23  1381.15  1440.24
                             1462.63  1514.35  1527.52  1548.52  1586.22
                             1639.47  1715.80  1745.79  1762.45  1881.02
                             1919.82  1946.04  2018.71  2027.97  2071.88
                             2117.35  2145.96  2158.20  2163.97  2170.26
                             2729.54  4360.95  4366.41  4375.91  4379.03
                             4423.19  4470.04  4481.31  4489.97  4499.56
                             4588.92

 Zero-point correction=                           0.156791 (Hartree/Particle)
 Thermal correction to Energy=                    0.166048
 Thermal correction to Enthalpy=                  0.166992
 Thermal correction to Gibbs Free Energy=         0.122593
 Sum of electronic and zero-point Energies=           -423.013631
 Sum of electronic and thermal Energies=              -423.004374
 Sum of electronic and thermal Enthalpies=            -423.003430
 Sum of electronic and thermal Free Energies=         -423.047829

                     E (Thermal)             CV                S
                      KCal/Mol        Cal/Mol-Kelvin    Cal/Mol-Kelvin
 Total                  104.197             33.967             93.446
 Electronic               0.000              0.000              0.000
 Translational            0.889              2.981             40.409
 Rotational               0.889              2.981             28.821
 Vibrational            102.419             28.005             24.216
 Vibration     1          0.598              1.970              4.253
 Vibration     2          0.603              1.951              3.506
 Vibration     3          0.624              1.884              2.479
 Vibration     4          0.640              1.834              2.095
 Vibration     5          0.642              1.828              2.057
 Vibration     6          0.650              1.801              1.906
 Vibration     7          0.665              1.756              1.704
 Vibration     8          0.711              1.620              1.271
 Vibration     9          0.765              1.473              0.968
 Vibration    10          0.852              1.258              0.667
 Vibration    11          0.898              1.154              0.558
 Vibration    12          0.972              1.005              0.429

 Normal termination of Gaussian 09 at Tue Jan 28 10:00:21 2020.
