 Gaussian 09, Revision D.01,
 Gaussian 09:  ES64L-G09RevD.01 24-Apr-2013

 -----------------------------
 # b3lyp 6-31G(2df,p) opt Freq
 -----------------------------

 -----
 titel
 -----
 Symbolic Z-matrix:
 Charge =  0 Multiplicity = 1

 SCF Done:  E(RB3LYP) =  -423.136337871     A.U. after   14 cycles
 Optimization completed.
    -- Stationary point found.
 Normal termination of Gaussian 09 at Tue Jan 28 12:40:31 2020.

 ----------------------------------------------------------------------
 #N Geom=AllCheck Guess=TCheck SCRF=Check GenChk RB3LYP/6-31G(2df,p) Fr
 eq
 ----------------------------------------------------------------------

 Structure from the checkpoint file:  "/scratch/puck/g09_ad8a779d-36cd-4eb0-a16c-a8b4e60d8154/Gau-94035.chk"
 -----
 titel
 -----
 Charge =  0 Multiplicity = 1

                         Standard orientation:
 ---------------------------------------------------------------------
 Center     Atomic      Atomic             Coordinates (Angstroms)
 Number     Number       Type             X           Y           Z
 ---------------------------------------------------------------------
      1          6           0       -2.844886    0.597333   -0.204165
      2          6           0       -1.418397    0.137560   -0.100122
      3          6           0       -0.808023   -1.076823   -0.877999
      4          6           0        0.109846   -0.977160    0.369418
      5          8           0       -1.072836   -0.584600    1.140444
      6          6           0        0.798166    0.387568    0.139083
      7          6           0        2.248276    0.668788    0.293575
      8          8           0        2.970489   -0.297224   -0.467996
      9          6           0       -0.249017    1.147302   -0.186182
     10          1           0       -3.072889    1.321945    0.584055
     11          1           0       -3.020780    1.077565   -1.172210
     12          1           0       -3.532248   -0.246847   -0.104929
     13          1           0       -1.459226   -1.954514   -0.853430
     14          1           0       -0.374283   -0.908358   -1.865553
     15          1           0        0.676609   -1.808484    0.784398
     16          1           0        2.471957    1.695339   -0.035291
     17          1           0        2.523181    0.600262    1.360091
     18          1           0        3.900361   -0.224683   -0.232295
     19          1           0       -0.309693    2.194955   -0.446082
 ---------------------------------------------------------------------

 SCF Done:  E(RB3LYP) =  -423.136337871     A.U. after    1 cycles

 The electronic state is 1-A.
 Alpha  occ. eigenvalues --  -19.13878 -19.11847 -10.24106 -10.23649 -10.23203
 Alpha  occ. eigenvalues --  -10.18359 -10.18208 -10.17787 -10.17764  -1.03646
 Alpha  occ. eigenvalues --   -1.01821  -0.80583  -0.75299  -0.71701  -0.68205
 Alpha  occ. eigenvalues --   -0.62919  -0.54215  -0.52294  -0.51412  -0.48116
 Alpha  occ. eigenvalues --   -0.46561  -0.44285  -0.43301  -0.41216  -0.40282
 Alpha  occ. eigenvalues --   -0.37538  -0.36638  -0.35750  -0.33007  -0.32348
 Alpha  occ. eigenvalues --   -0.30737  -0.27580  -0.24547  -0.22427
 Alpha virt. eigenvalues --    0.00105   0.08179   0.10865   0.11298   0.12523
 Alpha virt. eigenvalues --    0.13844   0.14855   0.15224   0.16021   0.16957
 Alpha virt. eigenvalues --    0.17320   0.18116   0.18815   0.21036   0.22510

 Mulliken charges:
               1
     1  C   -0.507791
     2  C    0.382246
     3  C   -0.250714
     4  C   -0.029709
     5  O   -0.322153
     6  C    0.413702
     7  C   -0.230180
     8  O   -0.420871
     9  C   -0.289791
    10  H    0.131608
    11  H    0.122447
    12  H    0.128582
    13  H    0.100131
    14  H    0.100004
    15  H    0.080639
    16  H    0.096453
    17  H    0.100406
    18  H    0.289413
    19  H    0.105575
 Sum of Mulliken charges =   0.00000

 Dipole moment (field-independent basis, Debye):
    X=              1.2638    Y=              1.1465    Z=             -0.6387  Tot=              1.8220
 Quadrupole moment (field-independent basis, Debye-Ang):
   XX=            -44.0280   YY=            -51.1642   ZZ=            -56.4450
   XY=              0.3509   XZ=              5.4934   YZ=              0.0533

  Exact polarizability:  97.236  -3.439  74.182   4.857  -0.802  60.553
 Approx polarizability: 129.089 -11.214 113.212   6.236  -4.813  97.288

                      1                      2                      3
                      A                      A                      A
 Frequencies --     68.3519               117.5794               184.2204
 Red. masses --      4.0162                 4.1491                 1.0549
 Frc consts  --      0.0111                 0.0338                 0.0211
 IR Inten    --      1.5414                 4.9411                 0.3359

                      4                      5                      6
                      A                      A                      A
 Frequencies --    217.3237               264.4266               271.7549
 Red. masses --      1.8399                 1.3649                 2.6634
 Frc consts  --      0.0512                 0.0562                 0.1159
 IR Inten    --     33.7769                60.3600                 7.1869

                      7                      8                      9
                      A                      A                      A
 Frequencies --    315.1138               425.5736               495.1025
 Red. masses --      2.6539                 3.3596                 2.2325
 Frc consts  --      0.1553                 0.3585                 0.3224
 IR Inten    --      3.9897                 4.1249                 2.5263

                     10                     11                     12
                      A                      A                      A
 Frequencies --    538.3311               616.6360               660.8633
 Red. masses --      3.1080                 4.0298                 3.9632
 Frc consts  --      0.5307                 0.9028                 1.0198
 IR Inten    --      2.3588                 6.5891                 3.0176

                     13                     14                     15
                      A                      A                      A
 Frequencies --    673.3753               780.9486               794.6503
 Red. masses --      3.2786                 2.2814                 3.5987
 Frc consts  --      0.8759                 0.8198                 1.3389
 IR Inten    --     11.8959                13.5626                 9.2587

                     16                     17                     18
                      A                      A                      A
 Frequencies --    830.7346               857.0634               872.9647
 Red. masses --      2.1952                 2.5471                 2.4861
 Frc consts  --      0.8926                 1.1024                 1.1163
 IR Inten    --      9.1479                18.3009                21.0034

                     19                     20                     21
                      A                      A                      A
 Frequencies --    926.9109               973.9097              1007.3716
 Red. masses --      2.8925                 2.6834                 1.6984
 Frc consts  --      1.4642                 1.4996                 1.0155
 IR Inten    --     13.6736                 7.8561                 0.9211

                     22                     23                     24
                      A                      A                      A
 Frequencies --   1032.5642              1050.0021              1076.5193
 Red. masses --      1.5973                 4.2988                 1.3670
 Frc consts  --      1.0034                 2.7924                 0.9334
 IR Inten    --      4.5022                54.1388                 5.6146

                     25                     26                     27
                      A                      A                      A
 Frequencies --   1106.7980              1125.5389              1174.6935
 Red. masses --      2.1519                 1.9720                 1.5648
 Frc consts  --      1.5532                 1.4719                 1.2722
 IR Inten    --     35.4288                 7.7993                 6.4330

                     28                     29                     30
                      A                      A                      A
 Frequencies --   1206.1076              1217.5582              1232.7314
 Red. masses --      1.5943                 1.7170                 1.1425
 Frc consts  --      1.3664                 1.4997                 1.0229
 IR Inten    --     25.8367                10.8948                31.2404

                     31                     32                     33
                      A                      A                      A
 Frequencies --   1244.7824              1257.9157              1319.6661
 Red. masses --      1.4271                 1.2879                 1.8511
 Frc consts  --      1.3029                 1.2007                 1.8994
 IR Inten    --      2.9857                18.4388                 9.5463

                     34                     35                     36
                      A                      A                      A
 Frequencies --   1337.8440              1415.2059              1449.0312
 Red. masses --      2.4571                 1.5299                 1.4592
 Frc consts  --      2.5911                 1.8054                 1.8052
 IR Inten    --     34.0076                13.9030                35.8571

                     37                     38                     39
                      A                      A                      A
 Frequencies --   1478.6698              1486.2784              1493.7453
 Red. masses --      1.0518                 1.1579                 1.0528
 Frc consts  --      1.3550                 1.5070                 1.3840
 IR Inten    --      3.6728                 2.5628                 3.1893

                     40                     41                     42
                      A                      A                      A
 Frequencies --   1509.4507              1699.5178              2952.6448
 Red. masses --      1.0848                 8.0561                 1.0631
 Frc consts  --      1.4563                13.7097                 5.4607
 IR Inten    --      0.6996                 0.0695                56.1731

                     43                     44                     45
                      A                      A                      A
 Frequencies --   2994.6350              3039.6364              3060.3008
 Red. masses --      1.0964                 1.0355                 1.0555
 Frc consts  --      5.7932                 5.6371                 5.8242
 IR Inten    --     51.2142                17.6034                38.3236

                     46                     47                     48
                      A                      A                      A
 Frequencies --   3108.7140              3120.1498              3134.1323
 Red. masses --      1.1008                 1.1016                 1.1111
 Frc consts  --      6.2682                 6.3188                 6.4304
 IR Inten    --     14.4427                11.9821                31.4673

                     49                     50                     51
                      A                      A                      A
 Frequencies --   3145.1809              3229.0283              3824.9750
 Red. masses --      1.0918                 1.0986                 1.0663
 Frc consts  --      6.3633                 6.7488                 9.1919
 IR Inten    --     33.8822                 4.9075                18.4410

 - Thermochemistry -
 -------------------
 Temperature   298.150 Kelvin.  Pressure   1.00000 Atm.
 Atom     1 has atomic number  6 and mass  12.00000

 Molecular mass:   126.06808 amu.
 Principal axes and moments of inertia in atomic units:
                           1         2         3
     Eigenvalues --   445.996281664.032551781.46085
           X            0.99982  -0.00185   0.01902
           Y            0.00111   0.99926   0.03840
           Z           -0.01908  -0.03837   0.99908
 This molecule is an asymmetric top.
 Rotational symmetry number  1.
 Warning -- assumption of classical behavior for rotation
           may cause significant error
 Rotational temperatures (Kelvin)      0.19420     0.05205     0.04862
 Rotational constants (GHZ):           4.04654     1.08456     1.01307
 Zero-point vibrational energy     415207.2 (Joules/Mol)
                                   99.23690 (Kcal/Mol)
 Warning -- explicit consideration of  11 degrees of freedom as
           vibrations may cause significant error
 Vibrational temperatures:     98.34   169.17   265.05   312.68   380.45
          (Kelvin)            390.99   453.38   612.30   712.34   774.54
                              887.20   950.83   968.84  1123.61  1143.32
                             1195.24  1233.12  1256.00  1333.62  1401.24
                             1449.38  1485.63  1510.72  1548.87  1592.43
                             1619.40  1690.12  1735.32  1751.79  1773.62
                             1790.96  1809.86  1898.70  1924.86  2036.16
                             2084.83  2127.47  2138.42  2149.16  2171.76
                             2445.22  4248.19  4308.61  4373.35  4403.08
                             4472.74  4489.19  4509.31  4525.21  4645.85
                             5503.28

 Zero-point correction=                           0.158144 (Hartree/Particle)
 Thermal correction to Energy=                    0.166802
 Thermal correction to Enthalpy=                  0.167746
 Thermal correction to Gibbs Free Energy=         0.124778
 Sum of electronic and zero-point Energies=           -422.978194
 Sum of electronic and thermal Energies=              -422.969536
 Sum of electronic and thermal Enthalpies=            -422.968592
 Sum of electronic and thermal Free Energies=         -423.011560

                     E (Thermal)             CV                S
                      KCal/Mol        Cal/Mol-Kelvin    Cal/Mol-Kelvin
 Total                  104.670             33.014             90.434
 Electronic               0.000              0.000              0.000
 Translational            0.889              2.981             40.409
 Rotational               0.889              2.981             28.671
 Vibrational            102.892             27.052             21.354
 Vibration     1          0.598              1.969              4.200
 Vibration     2          0.608              1.935              3.140
 Vibration     3          0.631              1.861              2.285
 Vibration     4          0.646              1.815              1.981
 Vibration     5          0.671              1.738              1.632
 Vibration     6          0.675              1.725              1.585
 Vibration     7          0.702              1.645              1.335
 Vibration     8          0.787              1.415              0.873
 Vibration     9          0.851              1.261              0.670
 Vibration    10          0.893              1.165              0.569
 Vibration    11          0.976              0.997              0.422

 Optimization completed.
    -- Stationary point found.
 Normal termination of Gaussian 09 at Tue Jan 28 13:24:01 2020.
