 Gaussian 09, Revision D.01,
 Gaussian 09:  ES64L-G09RevD.01 24-Apr-2013

 -----------------------------
 # b3lyp 6-31G(2df,p) opt Freq
 -----------------------------

 -----
 titel
 -----
 Symbolic Z-matrix:
 Charge =  0 Multiplicity = 1

 SCF Done:  E(RB3LYP) =  -423.159559496     A.U. after   15 cycles
 Optimization completed.
    -- Stationary point found.
 Normal termination of Gaussian 09 at Tue Jan 28 12:08:33 2020.

 ----------------------------------------------------------------------
 #N Geom=AllCheck Guess=TCheck SCRF=Check GenChk RB3LYP/6-31G(2df,p) Fr
 eq
 ----------------------------------------------------------------------

 Structure from the checkpoint file:  "/scratch/puck/g09_9722d5fd-bb16-4ed0-b51d-99ad9266e40b/Gau-1501.chk"
 -----
 titel
 -----
 Charge =  0 Multiplicity = 1

                         Standard orientation:
 ---------------------------------------------------------------------
 Center     Atomic      Atomic             Coordinates (Angstroms)
 Number     Number       Type             X           Y           Z
 ---------------------------------------------------------------------
      1          6           0        1.805932    2.315610    0.055159
      2          8           0        1.437089    1.017042    0.461000
      3          6           0        1.492867    0.077096   -0.582066
      4          6           0        0.909642   -1.255754   -0.119867
      5          8           0        1.283228   -2.294480   -0.602922
      6          6           0       -0.185773   -1.196570    0.954666
      7          6           0       -1.366003   -0.484093    0.478979
      8          6           0       -2.335372    0.087095    0.050361
      9          6           0       -3.516611    0.777212   -0.447884
     10          1           0        1.142503    2.693402   -0.737974
     11          1           0        1.722007    2.965181    0.929212
     12          1           0        2.841858    2.347648   -0.315570
     13          1           0        0.899864    0.412500   -1.451353
     14          1           0        2.521079   -0.099199   -0.931007
     15          1           0       -0.425361   -2.229106    1.225709
     16          1           0        0.228995   -0.688236    1.833344
     17          1           0       -4.432795    0.243653   -0.171675
     18          1           0       -3.588774    1.791880   -0.040933
     19          1           0       -3.500004    0.858211   -1.540472
 ---------------------------------------------------------------------

 SCF Done:  E(RB3LYP) =  -423.159559496     A.U. after    1 cycles

 The electronic state is 1-A.
 Alpha  occ. eigenvalues --  -19.15448 -19.13592 -10.27623 -10.23941 -10.23379
 Alpha  occ. eigenvalues --  -10.20832 -10.20484 -10.17583 -10.17316  -1.05402
 Alpha  occ. eigenvalues --   -1.04167  -0.79757  -0.76435  -0.73736  -0.67698
 Alpha  occ. eigenvalues --   -0.65948  -0.55044  -0.50385  -0.49400  -0.49103
 Alpha  occ. eigenvalues --   -0.47127  -0.44577  -0.43389  -0.43197  -0.42593
 Alpha  occ. eigenvalues --   -0.42352  -0.40640  -0.39415  -0.36253  -0.33429
 Alpha  occ. eigenvalues --   -0.27432  -0.26880  -0.25053  -0.23529
 Alpha virt. eigenvalues --   -0.02042   0.05900   0.06311   0.08300   0.10965
 Alpha virt. eigenvalues --    0.12561   0.13613   0.14315   0.15659   0.16221
 Alpha virt. eigenvalues --    0.16364   0.17891   0.18384   0.19718   0.21338

 Mulliken charges:
               1
     1  C   -0.226572
     2  O   -0.231453
     3  C   -0.151055
     4  C    0.365945
     5  O   -0.294277
     6  C   -0.412232
     7  C    0.073815
     8  C    0.037530
     9  C   -0.496049
    10  H    0.110818
    11  H    0.132612
    12  H    0.110218
    13  H    0.120427
    14  H    0.118153
    15  H    0.141877
    16  H    0.155040
    17  H    0.150565
    18  H    0.147310
    19  H    0.147330
 Sum of Mulliken charges =   0.00000

 Dipole moment (field-independent basis, Debye):
    X=             -0.6996    Y=              2.9699    Z=             -0.1267  Tot=              3.0538
 Quadrupole moment (field-independent basis, Debye-Ang):
   XX=            -47.9281   YY=            -55.5950   ZZ=            -52.3883
   XY=              3.1338   XZ=              1.5524   YZ=             -4.1389

  Exact polarizability:  96.087 -11.233  82.738   3.591  -2.515  63.718
 Approx polarizability: 130.165 -25.454 118.294  10.146  -3.664  98.607

                      1                      2                      3
                      A                      A                      A
 Frequencies --     30.4007                36.2793                64.9064
 Red. masses --      3.5372                 1.0290                 1.9692
 Frc consts  --      0.0019                 0.0008                 0.0049
 IR Inten    --      0.5713                 0.0191                 7.9045

                      4                      5                      6
                      A                      A                      A
 Frequencies --     74.5895                97.9046               167.6940
 Red. masses --      4.9339                 3.5554                 4.0306
 Frc consts  --      0.0162                 0.0201                 0.0668
 IR Inten    --      1.1177                 0.3115                 0.2253

                      7                      8                      9
                      A                      A                      A
 Frequencies --    214.6508               228.7200               256.2362
 Red. masses --      2.2723                 1.4397                 2.8643
 Frc consts  --      0.0617                 0.0444                 0.1108
 IR Inten    --      8.9522                 4.3637                10.3318

                     10                     11                     12
                      A                      A                      A
 Frequencies --    346.9497               376.7854               413.9425
 Red. masses --      3.0218                 3.9950                 5.2250
 Frc consts  --      0.2143                 0.3342                 0.5275
 IR Inten    --      0.7282                 0.0775                 0.1600

                     13                     14                     15
                      A                      A                      A
 Frequencies --    489.2375               500.4863               581.3850
 Red. masses --      3.9801                 5.0254                 2.8946
 Frc consts  --      0.5613                 0.7417                 0.5765
 IR Inten    --      1.4062                19.2219                15.0849

                     16                     17                     18
                      A                      A                      A
 Frequencies --    750.0153               795.2603               930.8590
 Red. masses --      3.3444                 3.1487                 2.0737
 Frc consts  --      1.1084                 1.1733                 1.0587
 IR Inten    --      0.8842                 2.2769                 3.6992

                     19                     20                     21
                      A                      A                      A
 Frequencies --   1011.9988              1015.1140              1052.5000
 Red. masses --      3.5549                 2.3709                 1.4037
 Frc consts  --      2.1451                 1.4395                 0.9161
 IR Inten    --     15.9229                11.7231                 0.6254

                     22                     23                     24
                      A                      A                      A
 Frequencies --   1054.1566              1141.7297              1165.3477
 Red. masses --      1.4011                 2.4011                 3.2850
 Frc consts  --      0.9173                 1.8441                 2.6284
 IR Inten    --      0.5208               105.2598                 8.2214

                     25                     26                     27
                      A                      A                      A
 Frequencies --   1177.2940              1183.0717              1226.0165
 Red. masses --      2.3698                 1.2936                 1.4800
 Frc consts  --      1.9352                 1.0668                 1.3107
 IR Inten    --     45.8964                 4.7760                29.8031

                     28                     29                     30
                      A                      A                      A
 Frequencies --   1234.9910              1261.7964              1303.0803
 Red. masses --      1.4946                 1.4977                 1.6055
 Frc consts  --      1.3431                 1.4049                 1.6062
 IR Inten    --     31.5772                48.2871                 8.9630

                     31                     32                     33
                      A                      A                      A
 Frequencies --   1384.6189              1415.3278              1444.9103
 Red. masses --      1.4779                 1.2517                 1.0911
 Frc consts  --      1.6694                 1.4773                 1.3421
 IR Inten    --      7.8596                 5.3657                 9.8863

                     34                     35                     36
                      A                      A                      A
 Frequencies --   1468.5473              1478.4958              1479.2229
 Red. masses --      1.0940                 1.0396                 1.0399
 Frc consts  --      1.3901                 1.3390                 1.3406
 IR Inten    --     15.5517                 5.3572                 5.5083

                     37                     38                     39
                      A                      A                      A
 Frequencies --   1486.0876              1490.0634              1513.0274
 Red. masses --      1.0493                 1.1000                 1.0819
 Frc consts  --      1.3654                 1.4390                 1.4593
 IR Inten    --      5.8908                 4.6394                 4.2906

                     40                     41                     42
                      A                      A                      A
 Frequencies --   1829.2239              2372.0930              2956.8228
 Red. masses --     11.8328                11.8082                 1.0614
 Frc consts  --     23.3277                39.1470                 5.4673
 IR Inten    --    194.7137                 0.6366                29.6184

                     43                     44                     45
                      A                      A                      A
 Frequencies --   2978.2233              3017.7441              3026.2106
 Red. masses --      1.0382                 1.0940                 1.1016
 Frc consts  --      5.4253                 5.8701                 5.9439
 IR Inten    --     52.1635                59.6212                22.3529

                     46                     47                     48
                      A                      A                      A
 Frequencies --   3026.7724              3037.8589              3086.7410
 Red. masses --      1.0368                 1.0580                 1.1001
 Frc consts  --      5.5961                 5.7529                 6.1757
 IR Inten    --     39.2551                10.0628                10.5613

                     49                     50                     51
                      A                      A                      A
 Frequencies --   3088.0162              3093.1826              3121.0740
 Red. masses --      1.1002                 1.1016                 1.0967
 Frc consts  --      6.1812                 6.2101                 6.2944
 IR Inten    --     10.8214                 4.2423                23.9226

 - Thermochemistry -
 -------------------
 Temperature   298.150 Kelvin.  Pressure   1.00000 Atm.
 Atom     1 has atomic number  6 and mass  12.00000

 Molecular mass:   126.06808 amu.
 Principal axes and moments of inertia in atomic units:
                           1         2         3
     Eigenvalues --  1012.814821707.736002425.88992
           X            0.99964   0.02624   0.00572
           Y           -0.02607   0.99923  -0.02935
           Z           -0.00648   0.02919   0.99955
 This molecule is an asymmetric top.
 Rotational symmetry number  1.
 Warning -- assumption of classical behavior for rotation
           may cause significant error
 Rotational temperatures (Kelvin)      0.08552     0.05072     0.03570
 Rotational constants (GHZ):           1.78191     1.05680     0.74395
 Zero-point vibrational energy     406596.7 (Joules/Mol)
                                   97.17895 (Kcal/Mol)
 Warning -- explicit consideration of  15 degrees of freedom as
           vibrations may cause significant error
 Vibrational temperatures:     43.74    52.20    93.39   107.32   140.86
          (Kelvin)            241.27   308.83   329.08   368.67   499.18
                              542.11   595.57   703.90   720.09   836.48
                             1079.10  1144.20  1339.30  1456.04  1460.52
                             1514.31  1516.69  1642.69  1676.67  1693.86
                             1702.17  1763.96  1776.87  1815.44  1874.84
                             1992.16  2036.34  2078.90  2112.91  2127.22
                             2128.27  2138.15  2143.87  2176.91  2631.84
                             3412.91  4254.20  4284.99  4341.86  4354.04
                             4354.84  4370.80  4441.13  4442.96  4450.39
                             4490.52

 Zero-point correction=                           0.154865 (Hartree/Particle)
 Thermal correction to Energy=                    0.166067
 Thermal correction to Enthalpy=                  0.167011
 Thermal correction to Gibbs Free Energy=         0.115846
 Sum of electronic and zero-point Energies=           -423.004695
 Sum of electronic and thermal Energies=              -422.993493
 Sum of electronic and thermal Enthalpies=            -422.992549
 Sum of electronic and thermal Free Energies=         -423.043714

                     E (Thermal)             CV                S
                      KCal/Mol        Cal/Mol-Kelvin    Cal/Mol-Kelvin
 Total                  104.208             36.825            107.686
 Electronic               0.000              0.000              0.000
 Translational            0.889              2.981             40.409
 Rotational               0.889              2.981             29.819
 Vibrational            102.431             30.863             37.459
 Vibration     1          0.594              1.984              5.803
 Vibration     2          0.594              1.982              5.453
 Vibration     3          0.597              1.971              4.302
 Vibration     4          0.599              1.966              4.028
 Vibration     5          0.603              1.951              3.496
 Vibration     6          0.624              1.882              2.461
 Vibration     7          0.645              1.819              2.004
 Vibration     8          0.651              1.797              1.889
 Vibration     9          0.666              1.752              1.687
 Vibration    10          0.725              1.581              1.180
 Vibration    11          0.747              1.520              1.052
 Vibration    12          0.778              1.440              0.913
 Vibration    13          0.845              1.274              0.686
 Vibration    14          0.856              1.249              0.657
 Vibration    15          0.938              1.072              0.483

 Optimization completed.
    -- Stationary point found.
 Normal termination of Gaussian 09 at Tue Jan 28 12:48:17 2020.
