 Gaussian 09, Revision D.01,
 Gaussian 09:  ES64L-G09RevD.01 24-Apr-2013

 -----------------------------
 # b3lyp 6-31G(2df,p) opt Freq
 -----------------------------

 -----
 titel
 -----
 Symbolic Z-matrix:
 Charge =  0 Multiplicity = 1

 SCF Done:  E(RB3LYP) =  -423.157175811     A.U. after   14 cycles
 SCF Done:  E(RB3LYP) =  -423.157175618     A.U. after    7 cycles
 SCF Done:  E(RB3LYP) =  -423.157175857     A.U. after    7 cycles
 Optimization completed.
    -- Stationary point found.
 Normal termination of Gaussian 09 at Tue Jan 28 08:38:44 2020.

 ----------------------------------------------------------------------
 #N Geom=AllCheck Guess=TCheck SCRF=Check GenChk RB3LYP/6-31G(2df,p) Fr
 eq
 ----------------------------------------------------------------------

 Structure from the checkpoint file:  "/scratch/puck/g09_ca29c30c-876a-4aae-b33b-7ec960196acf/Gau-79829.chk"
 -----
 titel
 -----
 Charge =  0 Multiplicity = 1

                         Standard orientation:
 ---------------------------------------------------------------------
 Center     Atomic      Atomic             Coordinates (Angstroms)
 Number     Number       Type             X           Y           Z
 ---------------------------------------------------------------------
      1          8           0        0.712238    2.080196    0.209446
      2          6           0        0.051535    0.933965   -0.281722
      3          6           0       -1.437624    1.097937    0.027786
      4          8           0       -2.185156   -0.017500   -0.416611
      5          6           0       -1.785864   -1.220355    0.218006
      6          6           0       -0.318502   -1.552017   -0.060575
      7          6           0        0.572671   -0.368565    0.376008
      8          6           0        1.985473   -0.565145    0.070902
      9          6           0        3.149630   -0.680213   -0.211066
     10          1           0        1.658263    1.946562    0.076798
     11          1           0        0.173150    0.838163   -1.372304
     12          1           0       -1.560509    1.253473    1.112980
     13          1           0       -1.833572    1.975658   -0.488804
     14          1           0       -1.951996   -1.146228    1.307057
     15          1           0       -2.442969   -2.003673   -0.169833
     16          1           0       -0.027216   -2.463669    0.471159
     17          1           0       -0.181196   -1.736986   -1.131446
     18          1           0        0.467806   -0.232931    1.462401
     19          1           0        4.177667   -0.805577   -0.446721
 ---------------------------------------------------------------------

 SCF Done:  E(RB3LYP) =  -423.157175857     A.U. after    1 cycles

 The electronic state is 1-A.
 Alpha  occ. eigenvalues --  -19.14288 -19.13887 -10.23675 -10.23279 -10.22634
 Alpha  occ. eigenvalues --  -10.21604 -10.19423 -10.18995 -10.18185  -1.03999
 Alpha  occ. eigenvalues --   -1.02204  -0.82309  -0.76158  -0.74290  -0.66573
 Alpha  occ. eigenvalues --   -0.63514  -0.58056  -0.54028  -0.51825  -0.50132
 Alpha  occ. eigenvalues --   -0.47778  -0.45836  -0.44892  -0.42572  -0.40665
 Alpha  occ. eigenvalues --   -0.39862  -0.36808  -0.35791  -0.34073  -0.30745
 Alpha  occ. eigenvalues --   -0.28641  -0.27566  -0.26436  -0.25406
 Alpha virt. eigenvalues --    0.04181   0.04633   0.08647   0.09462   0.11135
 Alpha virt. eigenvalues --    0.12277   0.12876   0.14538   0.15262   0.16362
 Alpha virt. eigenvalues --    0.17147   0.17709   0.18436   0.20619   0.24177

 Mulliken charges:
               1
     1  O   -0.440971
     2  C    0.119859
     3  C   -0.095237
     4  O   -0.244644
     5  C   -0.081631
     6  C   -0.218155
     7  C   -0.191190
     8  C    0.267670
     9  C   -0.430953
    10  H    0.288783
    11  H    0.080216
    12  H    0.094173
    13  H    0.118497
    14  H    0.087930
    15  H    0.110922
    16  H    0.109710
    17  H    0.118299
    18  H    0.108684
    19  H    0.198041
 Sum of Mulliken charges =   0.00000

 Dipole moment (field-independent basis, Debye):
    X=              1.1525    Y=             -1.3130    Z=              0.2461  Tot=              1.7643
 Quadrupole moment (field-independent basis, Debye-Ang):
   XX=            -50.6978   YY=            -54.5614   ZZ=            -53.5498
   XY=              1.4298   XZ=             -3.0403   YZ=             -1.2596

  Exact polarizability:  98.749  -1.703  74.027  -4.864   0.270  59.638
 Approx polarizability: 140.391  -3.465 102.234  -8.703   1.735  95.664

                      1                      2                      3
                      A                      A                      A
 Frequencies --    104.3595               129.2934               177.8094
 Red. masses --      4.1129                 4.1229                 2.8839
 Frc consts  --      0.0264                 0.0406                 0.0537
 IR Inten    --      0.8678                 0.4867                 1.6209

                      4                      5                      6
                      A                      A                      A
 Frequencies --    257.9021               312.6318               355.8102
 Red. masses --      2.6528                 4.4869                 1.7040
 Frc consts  --      0.1040                 0.2584                 0.1271
 IR Inten    --      2.6368                 7.7825                21.8824

                      7                      8                      9
                      A                      A                      A
 Frequencies --    364.7731               390.4587               438.2622
 Red. masses --      1.3337                 4.4605                 3.3535
 Frc consts  --      0.1046                 0.4007                 0.3795
 IR Inten    --     82.4029                 1.0516                 4.8513

                     10                     11                     12
                      A                      A                      A
 Frequencies --    458.3262               522.8821               539.6801
 Red. masses --      3.7036                 3.9727                 4.9673
 Frc consts  --      0.4584                 0.6399                 0.8524
 IR Inten    --      2.4717                 1.2706                 8.5367

                     13                     14                     15
                      A                      A                      A
 Frequencies --    615.3652               627.4051               651.9603
 Red. masses --      2.7354                 1.2213                 1.2297
 Frc consts  --      0.6103                 0.2832                 0.3080
 IR Inten    --      7.4273                46.9566                40.6688

                     16                     17                     18
                      A                      A                      A
 Frequencies --    804.9029               881.6171               897.7439
 Red. masses --      2.1953                 2.4084                 2.1896
 Frc consts  --      0.8380                 1.1029                 1.0397
 IR Inten    --      0.1752                10.3348                 4.3443

                     19                     20                     21
                      A                      A                      A
 Frequencies --    974.2854              1007.6949              1020.2071
 Red. masses --      1.9969                 1.9658                 3.0120
 Frc consts  --      1.1168                 1.1761                 1.8470
 IR Inten    --     15.0482                13.2545                48.2965

                     22                     23                     24
                      A                      A                      A
 Frequencies --   1072.9265              1087.9846              1126.3888
 Red. masses --      2.5135                 3.0121                 4.2333
 Frc consts  --      1.7048                 2.1007                 3.1645
 IR Inten    --      1.6921                 3.0069                84.0111

                     25                     26                     27
                      A                      A                      A
 Frequencies --   1132.7661              1160.5329              1195.0888
 Red. masses --      2.4537                 5.6252                 1.2826
 Frc consts  --      1.8550                 4.4638                 1.0793
 IR Inten    --     25.3680                50.1237                11.9009

                     28                     29                     30
                      A                      A                      A
 Frequencies --   1250.0351              1277.2370              1293.3241
 Red. masses --      1.1913                 1.2243                 1.3565
 Frc consts  --      1.0967                 1.1767                 1.3368
 IR Inten    --     41.7932                 5.0727                 7.6057

                     31                     32                     33
                      A                      A                      A
 Frequencies --   1301.3322              1336.5256              1359.6698
 Red. masses --      1.2587                 1.1916                 1.2556
 Frc consts  --      1.2559                 1.2541                 1.3676
 IR Inten    --      2.4184                 4.7666                 6.8649

                     34                     35                     36
                      A                      A                      A
 Frequencies --   1365.4904              1393.1801              1416.1824
 Red. masses --      1.3018                 1.3144                 1.3461
 Frc consts  --      1.4301                 1.5031                 1.5906
 IR Inten    --      9.7902                 4.9093                27.9693

                     37                     38                     39
                      A                      A                      A
 Frequencies --   1438.7933              1481.2694              1493.2478
 Red. masses --      1.6399                 1.0928                 1.0800
 Frc consts  --      2.0001                 1.4127                 1.4189
 IR Inten    --     17.6369                 6.6779                 0.1508

                     40                     41                     42
                      A                      A                      A
 Frequencies --   1503.3925              2227.8571              2955.8804
 Red. masses --      1.1018                 5.9525                 1.0712
 Frc consts  --      1.4672                17.4070                 5.5146
 IR Inten    --      3.7241                 3.1902                44.8497

                     43                     44                     45
                      A                      A                      A
 Frequencies --   2968.7888              2982.2506              3007.1503
 Red. masses --      1.0720                 1.0794                 1.0819
 Frc consts  --      5.5668                 5.6562                 5.7645
 IR Inten    --     21.1417                50.2838                33.4859

                     46                     47                     48
                      A                      A                      A
 Frequencies --   3046.7889              3088.7778              3094.5765
 Red. masses --      1.0597                 1.0919                 1.1038
 Frc consts  --      5.7960                 6.1378                 6.2281
 IR Inten    --     17.0295                39.9914                23.0474

                     49                     50                     51
                      A                      A                      A
 Frequencies --   3101.9533              3502.1368              3788.1209
 Red. masses --      1.0935                 1.1612                 1.0658
 Frc consts  --      6.1992                 8.3910                 9.0109
 IR Inten    --     26.3417                74.6764                28.2476

 - Thermochemistry -
 -------------------
 Temperature   298.150 Kelvin.  Pressure   1.00000 Atm.
 Atom     1 has atomic number  8 and mass  15.99491

 Molecular mass:   126.06808 amu.
 Principal axes and moments of inertia in atomic units:
                           1         2         3
     Eigenvalues --   690.882901327.670801902.13245
           X            0.99988   0.01028  -0.01197
           Y           -0.01035   0.99993  -0.00580
           Z            0.01191   0.00593   0.99991
 This molecule is an asymmetric top.
 Rotational symmetry number  1.
 Warning -- assumption of classical behavior for rotation
           may cause significant error
 Rotational temperatures (Kelvin)      0.12537     0.06524     0.04554
 Rotational constants (GHZ):           2.61222     1.35933     0.94880
 Zero-point vibrational energy     418591.4 (Joules/Mol)
                                  100.04575 (Kcal/Mol)
 Warning -- explicit consideration of  13 degrees of freedom as
           vibrations may cause significant error
 Vibrational temperatures:    150.15   186.02   255.83   371.06   449.81
          (Kelvin)            511.93   524.83   561.78   630.56   659.43
                              752.31   776.48   885.37   902.69   938.02
                             1158.07  1268.45  1291.65  1401.78  1449.85
                             1467.85  1543.70  1565.37  1620.62  1629.80
                             1669.75  1719.46  1798.52  1837.66  1860.80
                             1872.32  1922.96  1956.26  1964.63  2004.47
                             2037.57  2070.10  2131.21  2148.45  2163.04
                             3205.39  4252.85  4271.42  4290.79  4326.61
                             4383.64  4444.06  4452.40  4463.01  5038.79
                             5450.25

 Zero-point correction=                           0.159433 (Hartree/Particle)
 Thermal correction to Energy=                    0.168080
 Thermal correction to Enthalpy=                  0.169024
 Thermal correction to Gibbs Free Energy=         0.126427
 Sum of electronic and zero-point Energies=           -422.997743
 Sum of electronic and thermal Energies=              -422.989096
 Sum of electronic and thermal Enthalpies=            -422.988152
 Sum of electronic and thermal Free Energies=         -423.030749

                     E (Thermal)             CV                S
                      KCal/Mol        Cal/Mol-Kelvin    Cal/Mol-Kelvin
 Total                  105.472             33.577             89.652
 Electronic               0.000              0.000              0.000
 Translational            0.889              2.981             40.409
 Rotational               0.889              2.981             28.947
 Vibrational            103.694             27.616             20.297
 Vibration     1          0.605              1.946              3.371
 Vibration     2          0.612              1.924              2.957
 Vibration     3          0.628              1.870              2.351
 Vibration     4          0.667              1.749              1.676
 Vibration     5          0.701              1.650              1.348
 Vibration     6          0.731              1.563              1.140
 Vibration     7          0.738              1.545              1.102
 Vibration     8          0.758              1.491              0.998
 Vibration     9          0.798              1.387              0.832
 Vibration    10          0.816              1.342              0.771
 Vibration    11          0.878              1.199              0.603
 Vibration    12          0.895              1.162              0.566
 Vibration    13          0.975              0.999              0.424

 Optimization completed.
    -- Stationary point found.
 Normal termination of Gaussian 09 at Tue Jan 28 09:33:42 2020.
