 Gaussian 09, Revision D.01,
 Gaussian 09:  ES64L-G09RevD.01 24-Apr-2013

 -----------------------------
 # b3lyp 6-31G(2df,p) opt Freq
 -----------------------------

 -----
 titel
 -----
 Symbolic Z-matrix:
 Charge =  0 Multiplicity = 1

 SCF Done:  E(RB3LYP) =  -423.168338544     A.U. after   14 cycles
 Optimization completed.
    -- Stationary point found.
 Normal termination of Gaussian 09 at Tue Jan 28 02:51:02 2020.

 ----------------------------------------------------------------------
 #N Geom=AllCheck Guess=TCheck SCRF=Check GenChk RB3LYP/6-31G(2df,p) Fr
 eq
 ----------------------------------------------------------------------

 Structure from the checkpoint file:  "/scratch/puck/g09_07f988d9-b820-4e3f-9d8e-123757ed9f5a/Gau-113522.chk"
 -----
 titel
 -----
 Charge =  0 Multiplicity = 1

                         Standard orientation:
 ---------------------------------------------------------------------
 Center     Atomic      Atomic             Coordinates (Angstroms)
 Number     Number       Type             X           Y           Z
 ---------------------------------------------------------------------
      1          8           0       -1.731376   -0.958198   -0.983712
      2          6           0       -1.744177   -0.260212    0.237757
      3          6           0       -1.588252    1.280404    0.013131
      4          6           0       -0.100405    1.070487    0.219266
      5          6           0        1.057892    1.430578   -0.313777
      6          6           0        2.194052    0.450473   -0.112217
      7          6           0        1.644608   -0.974989   -0.310282
      8          8           0        0.567635   -1.307718    0.575727
      9          6           0       -0.318340   -0.253385    0.897077
     10          1           0       -1.152734   -1.719793   -0.844893
     11          1           0       -2.579048   -0.578131    0.875633
     12          1           0       -1.911912    1.649323   -0.962118
     13          1           0       -2.076484    1.859828    0.803400
     14          1           0        1.177082    2.292713   -0.962683
     15          1           0        2.997006    0.617838   -0.837388
     16          1           0        2.643809    0.537427    0.885332
     17          1           0        1.313645   -1.077061   -1.353119
     18          1           0        2.415927   -1.726768   -0.116679
     19          1           0       -0.389640   -0.188188    1.990667
 ---------------------------------------------------------------------

 SCF Done:  E(RB3LYP) =  -423.168338544     A.U. after    1 cycles

 The electronic state is 1-A.
 Alpha  occ. eigenvalues --  -19.14775 -19.13223 -10.23260 -10.23130 -10.22912
 Alpha  occ. eigenvalues --  -10.19128 -10.18784 -10.18464 -10.18082  -1.04091
 Alpha  occ. eigenvalues --   -1.01168  -0.84231  -0.79022  -0.70613  -0.66222
 Alpha  occ. eigenvalues --   -0.61387  -0.59072  -0.52357  -0.50383  -0.50137
 Alpha  occ. eigenvalues --   -0.47915  -0.45665  -0.42120  -0.40817  -0.39752
 Alpha  occ. eigenvalues --   -0.39083  -0.37904  -0.36825  -0.34828  -0.32053
 Alpha  occ. eigenvalues --   -0.29095  -0.26370  -0.25532  -0.23984
 Alpha virt. eigenvalues --    0.00981   0.08496   0.10643   0.11101   0.13223
 Alpha virt. eigenvalues --    0.13379   0.14966   0.15492   0.16675   0.17243
 Alpha virt. eigenvalues --    0.18027   0.18974   0.19563   0.20542   0.21346

 Mulliken charges:
               1
     1  O   -0.441287
     2  C    0.101846
     3  C   -0.341538
     4  C    0.304082
     5  C   -0.243662
     6  C   -0.262385
     7  C   -0.067528
     8  O   -0.286605
     9  C    0.039734
    10  H    0.290886
    11  H    0.063965
    12  H    0.124587
    13  H    0.109014
    14  H    0.092867
    15  H    0.107544
    16  H    0.116771
    17  H    0.099592
    18  H    0.106232
    19  H    0.085885
 Sum of Mulliken charges =   0.00000

 Dipole moment (field-independent basis, Debye):
    X=              1.1883    Y=              0.6609    Z=              0.4415  Tot=              1.4296
 Quadrupole moment (field-independent basis, Debye-Ang):
   XX=            -51.8171   YY=            -52.8650   ZZ=            -53.7155
   XY=             -1.4416   XZ=             -4.3201   YZ=              0.1517

  Exact polarizability:  94.839  -1.519  72.914  -7.602  -2.656  64.696
 Approx polarizability: 132.559   0.803 106.437 -13.423  -5.349 102.753

                      1                      2                      3
                      A                      A                      A
 Frequencies --     91.7106               160.0071               206.7281
 Red. masses --      4.8378                 2.7217                 3.7311
 Frc consts  --      0.0240                 0.0411                 0.0939
 IR Inten    --     13.5381                 0.5534                17.9379

                      4                      5                      6
                      A                      A                      A
 Frequencies --    283.5396               340.1775               374.3683
 Red. masses --      2.0961                 2.1180                 2.1318
 Frc consts  --      0.0993                 0.1444                 0.1760
 IR Inten    --     11.8399                13.6155                27.6981

                      7                      8                      9
                      A                      A                      A
 Frequencies --    431.4704               473.3078               495.1314
 Red. masses --      1.3607                 4.0382                 3.8996
 Frc consts  --      0.1492                 0.5330                 0.5633
 IR Inten    --     49.4077                 6.0097                 9.1938

                     10                     11                     12
                      A                      A                      A
 Frequencies --    541.5753               681.4531               750.6376
 Red. masses --      3.7097                 2.7282                 2.5231
 Frc consts  --      0.6411                 0.7464                 0.8376
 IR Inten    --      6.1395                 4.9153                 0.5789

                     13                     14                     15
                      A                      A                      A
 Frequencies --    769.0075               847.8244               858.7981
 Red. masses --      2.4835                 2.7448                 1.6945
 Frc consts  --      0.8653                 1.1624                 0.7363
 IR Inten    --      0.4509                18.4623                14.9474

                     16                     17                     18
                      A                      A                      A
 Frequencies --    865.0469               915.4724               954.2651
 Red. masses --      2.3159                 2.4157                 3.0834
 Frc consts  --      1.0210                 1.1928                 1.6543
 IR Inten    --     12.4749                 0.6559                 8.1165

                     19                     20                     21
                      A                      A                      A
 Frequencies --    961.3821              1008.9193              1032.6458
 Red. masses --      2.5026                 2.0901                 2.3564
 Frc consts  --      1.3628                 1.2535                 1.4805
 IR Inten    --     21.3864                 7.1727                 9.7747

                     22                     23                     24
                      A                      A                      A
 Frequencies --   1071.2307              1085.3080              1111.6761
 Red. masses --      1.6299                 1.9773                 2.3360
 Frc consts  --      1.1020                 1.3723                 1.7009
 IR Inten    --     15.5166                 9.3713                 4.3073

                     25                     26                     27
                      A                      A                      A
 Frequencies --   1135.9077              1153.2679              1188.1836
 Red. masses --      4.1424                 1.5865                 1.8838
 Frc consts  --      3.1492                 1.2433                 1.5670
 IR Inten    --     73.9097                 4.3453                59.1430

                     28                     29                     30
                      A                      A                      A
 Frequencies --   1226.7586              1253.3144              1255.9466
 Red. masses --      1.2498                 1.5076                 1.3895
 Frc consts  --      1.1082                 1.3953                 1.2914
 IR Inten    --      6.7684                 5.6529                 6.6889

                     31                     32                     33
                      A                      A                      A
 Frequencies --   1286.5297              1325.5481              1341.6837
 Red. masses --      1.3283                 1.3397                 1.3451
 Frc consts  --      1.2953                 1.3869                 1.4266
 IR Inten    --      8.6560                 6.4593                 6.5318

                     34                     35                     36
                      A                      A                      A
 Frequencies --   1350.8285              1366.5250              1392.4651
 Red. masses --      1.3158                 1.4318                 1.4646
 Frc consts  --      1.4147                 1.5753                 1.6732
 IR Inten    --     29.5226                25.7801                17.1000

                     37                     38                     39
                      A                      A                      A
 Frequencies --   1414.4523              1461.2905              1473.8952
 Red. masses --      1.2729                 1.1145                 1.0909
 Frc consts  --      1.5005                 1.4022                 1.3963
 IR Inten    --      3.9742                 5.2005                 1.5355

                     40                     41                     42
                      A                      A                      A
 Frequencies --   1505.1294              1766.8829              3004.1611
 Red. masses --      1.0883                 8.6565                 1.0676
 Frc consts  --      1.4526                15.9224                 5.6767
 IR Inten    --      0.4813                 1.9091                41.2372

                     43                     44                     45
                      A                      A                      A
 Frequencies --   3007.7702              3020.9488              3024.8172
 Red. masses --      1.0837                 1.0846                 1.0644
 Frc consts  --      5.7763                 5.8320                 5.7381
 IR Inten    --     29.3182                89.0279                27.5027

                     46                     47                     48
                      A                      A                      A
 Frequencies --   3053.8057              3079.3370              3081.0023
 Red. masses --      1.0631                 1.0934                 1.1017
 Frc consts  --      5.8412                 6.1085                 6.1616
 IR Inten    --     50.8737                44.3119                24.5195

                     49                     50                     51
                      A                      A                      A
 Frequencies --   3118.6199              3173.6705              3757.6222
 Red. masses --      1.1033                 1.0925                 1.0655
 Frc consts  --      6.3222                 6.4832                 8.8638
 IR Inten    --     11.4546                14.6280                33.4218

 - Thermochemistry -
 -------------------
 Temperature   298.150 Kelvin.  Pressure   1.00000 Atm.
 Atom     1 has atomic number  8 and mass  15.99491

 Molecular mass:   126.06808 amu.
 Principal axes and moments of inertia in atomic units:
                           1         2         3
     Eigenvalues --   644.580041113.349591433.56328
           X            0.99946  -0.02306  -0.02358
           Y            0.02305   0.99973  -0.00049
           Z            0.02359  -0.00005   0.99972
 This molecule is an asymmetric top.
 Rotational symmetry number  1.
 Warning -- assumption of classical behavior for rotation
           may cause significant error
 Rotational temperatures (Kelvin)      0.13437     0.07780     0.06042
 Rotational constants (GHZ):           2.79987     1.62100     1.25892
 Zero-point vibrational energy     421875.3 (Joules/Mol)
                                  100.83062 (Kcal/Mol)
 Warning -- explicit consideration of  10 degrees of freedom as
           vibrations may cause significant error
 Vibrational temperatures:    131.95   230.21   297.44   407.95   489.44
          (Kelvin)            538.63   620.79   680.98   712.38   779.21
                              980.46  1080.00  1106.43  1219.83  1235.62
                             1244.61  1317.16  1372.97  1383.21  1451.61
                             1485.75  1541.26  1561.51  1599.45  1634.32
                             1659.29  1709.53  1765.03  1803.24  1807.02
                             1851.03  1907.17  1930.38  1943.54  1966.12
                             2003.44  2035.08  2102.47  2120.60  2165.54
                             2542.15  4322.31  4327.51  4346.47  4352.03
                             4393.74  4430.47  4432.87  4486.99  4566.20
                             5406.37

 Zero-point correction=                           0.160684 (Hartree/Particle)
 Thermal correction to Energy=                    0.168498
 Thermal correction to Enthalpy=                  0.169442
 Thermal correction to Gibbs Free Energy=         0.128508
 Sum of electronic and zero-point Energies=           -423.007655
 Sum of electronic and thermal Energies=              -422.999840
 Sum of electronic and thermal Enthalpies=            -422.998896
 Sum of electronic and thermal Free Energies=         -423.039831

                     E (Thermal)             CV                S
                      KCal/Mol        Cal/Mol-Kelvin    Cal/Mol-Kelvin
 Total                  105.734             30.865             86.155
 Electronic               0.000              0.000              0.000
 Translational            0.889              2.981             40.409
 Rotational               0.889              2.981             28.422
 Vibrational            103.957             24.904             17.324
 Vibration     1          0.602              1.955              3.623
 Vibration     2          0.622              1.891              2.550
 Vibration     3          0.641              1.830              2.072
 Vibration     4          0.682              1.704              1.512
 Vibration     5          0.720              1.595              1.211
 Vibration     6          0.745              1.525              1.062
 Vibration     7          0.793              1.402              0.854
 Vibration     8          0.830              1.309              0.728
 Vibration     9          0.851              1.261              0.670
 Vibration    10          0.897              1.158              0.562

 Optimization completed.
    -- Stationary point found.
 Normal termination of Gaussian 09 at Tue Jan 28 03:34:09 2020.
