 Gaussian 09, Revision D.01,
 Gaussian 09:  ES64L-G09RevD.01 24-Apr-2013

 -----------------------------
 # b3lyp 6-31G(2df,p) opt Freq
 -----------------------------

 -----
 titel
 -----
 Symbolic Z-matrix:
 Charge =  0 Multiplicity = 1

 SCF Done:  E(RB3LYP) =  -423.181514244     A.U. after   14 cycles
 Optimization completed.
    -- Stationary point found.
 Normal termination of Gaussian 09 at Mon Jan 27 22:03:43 2020.

 ----------------------------------------------------------------------
 #N Geom=AllCheck Guess=TCheck SCRF=Check GenChk RB3LYP/6-31G(2df,p) Fr
 eq
 ----------------------------------------------------------------------

 Structure from the checkpoint file:  "/scratch/puck/g09_4e39daf5-cc5c-4b6f-a204-be9f79b4f19a/Gau-180756.chk"
 -----
 titel
 -----
 Charge =  0 Multiplicity = 1

                         Standard orientation:
 ---------------------------------------------------------------------
 Center     Atomic      Atomic             Coordinates (Angstroms)
 Number     Number       Type             X           Y           Z
 ---------------------------------------------------------------------
      1          6           0       -2.760068   -0.307582   -0.309907
      2          6           0       -1.364212    0.199861   -0.135500
      3          6           0       -0.970000    1.352787    0.416681
      4          6           0        0.526811    1.543350    0.450488
      5          6           0        1.066080    0.210718   -0.090675
      6          8           0        2.126226    0.454543   -0.978420
      7          6           0        1.253362   -0.952170    0.918937
      8          8           0        0.153488   -1.697011    0.354379
      9          6           0       -0.168668   -0.610929   -0.562004
     10          1           0       -2.884884   -1.269541    0.201479
     11          1           0       -3.499582    0.392342    0.088550
     12          1           0       -2.989739   -0.482107   -1.368781
     13          1           0       -1.650553    2.101276    0.811809
     14          1           0        0.857822    2.363191   -0.198793
     15          1           0        0.901126    1.767503    1.457134
     16          1           0        2.434752   -0.389413   -1.325852
     17          1           0        2.207265   -1.488050    0.822662
     18          1           0        1.089671   -0.700909    1.974445
     19          1           0       -0.203425   -0.970762   -1.598450
 ---------------------------------------------------------------------

 SCF Done:  E(RB3LYP) =  -423.181514244     A.U. after    1 cycles

 The electronic state is 1-A.
 Alpha  occ. eigenvalues --  -19.14620 -19.13000 -10.23979 -10.22588 -10.22562
 Alpha  occ. eigenvalues --  -10.18597 -10.18487 -10.18278 -10.18139  -1.04591
 Alpha  occ. eigenvalues --   -1.01594  -0.83343  -0.75393  -0.69192  -0.68416
 Alpha  occ. eigenvalues --   -0.64820  -0.55971  -0.54105  -0.51933  -0.47723
 Alpha  occ. eigenvalues --   -0.45625  -0.43120  -0.42512  -0.41196  -0.40537
 Alpha  occ. eigenvalues --   -0.38798  -0.37993  -0.36395  -0.35666  -0.34959
 Alpha  occ. eigenvalues --   -0.29320  -0.26189  -0.25207  -0.23871
 Alpha virt. eigenvalues --    0.01637   0.06920   0.09111   0.10739   0.11845
 Alpha virt. eigenvalues --    0.12731   0.14583   0.15617   0.16583   0.16789
 Alpha virt. eigenvalues --    0.17684   0.18194   0.19872   0.21650   0.22769

 Mulliken charges:
               1
     1  C   -0.501079
     2  C    0.334095
     3  C   -0.170313
     4  C   -0.311837
     5  C    0.358608
     6  O   -0.482480
     7  C   -0.137281
     8  O   -0.295531
     9  C   -0.052114
    10  H    0.141637
    11  H    0.122054
    12  H    0.125081
    13  H    0.091339
    14  H    0.121830
    15  H    0.107080
    16  H    0.282972
    17  H    0.093068
    18  H    0.102715
    19  H    0.070155
 Sum of Mulliken charges =   0.00000

 Dipole moment (field-independent basis, Debye):
    X=             -0.0950    Y=              0.3353    Z=             -0.1159  Tot=              0.3673
 Quadrupole moment (field-independent basis, Debye-Ang):
   XX=            -50.5923   YY=            -55.9514   ZZ=            -51.5854
   XY=             -4.0413   XZ=              0.7108   YZ=              3.6483

  Exact polarizability:  86.125   0.958  78.404   3.407   6.838  65.425
 Approx polarizability: 112.241   6.515 125.021   4.944  13.525 101.195

                      1                      2                      3
                      A                      A                      A
 Frequencies --     76.8949               179.0584               200.1094
 Red. masses --      3.3128                 1.3009                 2.2354
 Frc consts  --      0.0115                 0.0246                 0.0527
 IR Inten    --      2.2320                 0.6401                 4.5417

                      4                      5                      6
                      A                      A                      A
 Frequencies --    244.8737               257.9371               323.5094
 Red. masses --      2.6476                 2.2495                 1.8844
 Frc consts  --      0.0935                 0.0882                 0.1162
 IR Inten    --      0.8409                 7.9634                11.7041

                      7                      8                      9
                      A                      A                      A
 Frequencies --    352.0663               385.7823               438.7243
 Red. masses --      1.4154                 3.5977                 2.5620
 Frc consts  --      0.1034                 0.3155                 0.2905
 IR Inten    --     68.4426                 9.9294                 9.9897

                     10                     11                     12
                      A                      A                      A
 Frequencies --    557.3800               567.6540               643.4683
 Red. masses --      3.9569                 3.4228                 4.7904
 Frc consts  --      0.7243                 0.6498                 1.1686
 IR Inten    --      3.2244                 0.7191                 1.7949

                     13                     14                     15
                      A                      A                      A
 Frequencies --    711.1705               821.7593               861.4452
 Red. masses --      4.9714                 1.4629                 2.7117
 Frc consts  --      1.4814                 0.5820                 1.1856
 IR Inten    --      4.4862                 4.1111                 6.7605

                     16                     17                     18
                      A                      A                      A
 Frequencies --    910.0258               918.2903               952.4181
 Red. masses --      2.0350                 2.0481                 2.0791
 Frc consts  --      0.9929                 1.0176                 1.1112
 IR Inten    --     12.2148                14.4871                 7.2089

                     19                     20                     21
                      A                      A                      A
 Frequencies --    970.3294               993.3392              1007.0280
 Red. masses --      1.8031                 4.2622                 5.5437
 Frc consts  --      1.0003                 2.4779                 3.3123
 IR Inten    --     16.4656                66.3328                50.3290

                     22                     23                     24
                      A                      A                      A
 Frequencies --   1034.3169              1066.6326              1075.2729
 Red. masses --      1.5392                 1.6088                 2.5920
 Frc consts  --      0.9702                 1.0784                 1.7658
 IR Inten    --     14.7976                 0.9157                 8.5201

                     25                     26                     27
                      A                      A                      A
 Frequencies --   1108.3815              1135.7378              1154.4362
 Red. masses --      1.9297                 1.7660                 1.1792
 Frc consts  --      1.3967                 1.3421                 0.9260
 IR Inten    --     23.0980                24.8460                11.7306

                     28                     29                     30
                      A                      A                      A
 Frequencies --   1180.8990              1234.1191              1268.5778
 Red. masses --      1.8854                 1.9632                 1.5913
 Frc consts  --      1.5491                 1.7617                 1.5088
 IR Inten    --     10.7211                10.3776                35.4846

                     31                     32                     33
                      A                      A                      A
 Frequencies --   1296.4364              1318.3619              1343.0372
 Red. masses --      1.3163                 1.5098                 2.2790
 Frc consts  --      1.3035                 1.5461                 2.4220
 IR Inten    --      3.8898                17.2758                20.8445

                     34                     35                     36
                      A                      A                      A
 Frequencies --   1362.6882              1400.0256              1410.6505
 Red. masses --      1.8841                 1.9146                 1.3010
 Frc consts  --      2.0613                 2.2110                 1.5254
 IR Inten    --     33.3800                20.5980                 1.6313

                     37                     38                     39
                      A                      A                      A
 Frequencies --   1478.4589              1483.9074              1491.2324
 Red. masses --      1.0467                 1.1014                 1.0576
 Frc consts  --      1.3480                 1.4289                 1.3857
 IR Inten    --      6.0643                 1.4591                 8.6114

                     40                     41                     42
                      A                      A                      A
 Frequencies --   1517.3729              1714.1449              3003.7198
 Red. masses --      1.1018                 6.9267                 1.0560
 Frc consts  --      1.4946                11.9914                 5.6135
 IR Inten    --      0.3860                 1.0783                70.7079

                     43                     44                     45
                      A                      A                      A
 Frequencies --   3020.1052              3024.6092              3027.7011
 Red. masses --      1.0425                 1.0644                 1.0756
 Frc consts  --      5.6023                 5.7373                 5.8094
 IR Inten    --     17.9204                69.2949                18.8123

                     46                     47                     48
                      A                      A                      A
 Frequencies --   3051.3606              3057.9709              3071.6992
 Red. masses --      1.1081                 1.1040                 1.0977
 Frc consts  --      6.0790                 6.0827                 6.1024
 IR Inten    --     24.8569                31.4533                15.1922

                     49                     50                     51
                      A                      A                      A
 Frequencies --   3111.1078              3175.5434              3803.5806
 Red. masses --      1.1003                 1.0929                 1.0659
 Frc consts  --      6.2745                 6.4930                 9.0857
 IR Inten    --     18.7961                19.3513                18.5491

 - Thermochemistry -
 -------------------
 Temperature   298.150 Kelvin.  Pressure   1.00000 Atm.
 Atom     1 has atomic number  6 and mass  12.00000

 Molecular mass:   126.06808 amu.
 Principal axes and moments of inertia in atomic units:
                           1         2         3
     Eigenvalues --   669.087511181.181071487.87333
           X            0.99982  -0.00777   0.01726
           Y            0.00703   0.99906   0.04274
           Z           -0.01758  -0.04262   0.99894
 This molecule is an asymmetric top.
 Rotational symmetry number  1.
 Warning -- assumption of classical behavior for rotation
           may cause significant error
 Rotational temperatures (Kelvin)      0.12945     0.07333     0.05821
 Rotational constants (GHZ):           2.69732     1.52791     1.21297
 Zero-point vibrational energy     417468.9 (Joules/Mol)
                                   99.77746 (Kcal/Mol)
 Warning -- explicit consideration of  11 degrees of freedom as
           vibrations may cause significant error
 Vibrational temperatures:    110.63   257.62   287.91   352.32   371.11
          (Kelvin)            465.46   506.54   555.05   631.23   801.94
                              816.73   925.81  1023.21  1182.33  1239.43
                             1309.32  1321.21  1370.32  1396.09  1429.19
                             1448.89  1488.15  1534.64  1547.08  1594.71
                             1634.07  1660.97  1699.05  1775.62  1825.20
                             1865.28  1896.83  1932.33  1960.60  2014.32
                             2029.61  2127.17  2135.01  2145.55  2183.16
                             2466.27  4321.68  4345.25  4351.73  4356.18
                             4390.22  4399.73  4419.48  4476.18  4568.89
                             5472.50

 Zero-point correction=                           0.159006 (Hartree/Particle)
 Thermal correction to Energy=                    0.167371
 Thermal correction to Enthalpy=                  0.168316
 Thermal correction to Gibbs Free Energy=         0.126239
 Sum of electronic and zero-point Energies=           -423.022509
 Sum of electronic and thermal Energies=              -423.014143
 Sum of electronic and thermal Enthalpies=            -423.013199
 Sum of electronic and thermal Free Energies=         -423.055276

                     E (Thermal)             CV                S
                      KCal/Mol        Cal/Mol-Kelvin    Cal/Mol-Kelvin
 Total                  105.027             32.312             88.559
 Electronic               0.000              0.000              0.000
 Translational            0.889              2.981             40.409
 Rotational               0.889              2.981             28.555
 Vibrational            103.250             26.350             19.595
 Vibration     1          0.599              1.965              3.969
 Vibration     2          0.629              1.868              2.338
 Vibration     3          0.638              1.840              2.132
 Vibration     4          0.660              1.771              1.767
 Vibration     5          0.667              1.749              1.676
 Vibration     6          0.708              1.628              1.292
 Vibration     7          0.729              1.571              1.157
 Vibration     8          0.754              1.501              1.016
 Vibration     9          0.799              1.386              0.831
 Vibration    10          0.913              1.124              0.529
 Vibration    11          0.924              1.101              0.509

 Normal termination of Gaussian 09 at Mon Jan 27 22:48:52 2020.
