 Gaussian 09, Revision D.01,
 Gaussian 09:  ES64L-G09RevD.01 24-Apr-2013

 -----------------------------
 # b3lyp 6-31G(2df,p) opt Freq
 -----------------------------

 -----
 titel
 -----
 Symbolic Z-matrix:
 Charge =  0 Multiplicity = 1

 SCF Done:  E(RB3LYP) =  -423.099554415     A.U. after   14 cycles
 Optimization completed.
    -- Stationary point found.
 Normal termination of Gaussian 09 at Mon Jan 27 18:37:14 2020.

 ----------------------------------------------------------------------
 #N Geom=AllCheck Guess=TCheck SCRF=Check GenChk RB3LYP/6-31G(2df,p) Fr
 eq
 ----------------------------------------------------------------------

 Structure from the checkpoint file:  "/scratch/puck/g09_d85d4ede-b1e7-4dea-af66-4ed6e43f9685/Gau-82351.chk"
 -----
 titel
 -----
 Charge =  0 Multiplicity = 1

                         Standard orientation:
 ---------------------------------------------------------------------
 Center     Atomic      Atomic             Coordinates (Angstroms)
 Number     Number       Type             X           Y           Z
 ---------------------------------------------------------------------
      1          6           0       -0.792985    1.931582   -0.099006
      2          6           0       -0.445930    0.536274    0.357241
      3          8           0       -1.707777   -0.226742    0.562531
      4          6           0       -1.474623   -0.988418   -0.671760
      5          6           0       -0.002651   -0.657700   -0.493020
      6          6           0        0.613601   -1.279899    0.807051
      7          6           0        0.903054    0.213214    1.069128
      8          6           0        1.831289    0.443167   -0.186756
      9          8           0        1.115276   -0.269178   -1.262894
     10          1           0       -1.360738    1.921180   -1.034788
     11          1           0       -1.424676    2.402148    0.662598
     12          1           0        0.088515    2.561021   -0.241187
     13          1           0       -1.785391   -2.032433   -0.575518
     14          1           0       -1.968465   -0.516211   -1.529154
     15          1           0       -0.120514   -1.718500    1.477068
     16          1           0        1.472148   -1.936300    0.652477
     17          1           0        1.272369    0.628235    2.009912
     18          1           0        1.964876    1.488352   -0.477589
     19          1           0        2.811353   -0.019449   -0.038176
 ---------------------------------------------------------------------

 SCF Done:  E(RB3LYP) =  -423.099554415     A.U. after    1 cycles

 The electronic state is 1-A.
 Alpha  occ. eigenvalues --  -19.14596 -19.14190 -10.24063 -10.23997 -10.23837
 Alpha  occ. eigenvalues --  -10.23135 -10.20716 -10.18159 -10.17892  -1.05991
 Alpha  occ. eigenvalues --   -1.02153  -0.82853  -0.74515  -0.72381  -0.67434
 Alpha  occ. eigenvalues --   -0.63170  -0.57894  -0.51914  -0.50970  -0.49191
 Alpha  occ. eigenvalues --   -0.46995  -0.46768  -0.42584  -0.40474  -0.40068
 Alpha  occ. eigenvalues --   -0.38697  -0.36987  -0.36292  -0.34049  -0.33107
 Alpha  occ. eigenvalues --   -0.32897  -0.27941  -0.25692  -0.23345
 Alpha virt. eigenvalues --    0.05352   0.09109   0.09890   0.12112   0.12602
 Alpha virt. eigenvalues --    0.13431   0.13763   0.14536   0.15418   0.16682
 Alpha virt. eigenvalues --    0.17370   0.18362   0.19017   0.20928   0.21703

 Mulliken charges:
               1
     1  C   -0.474244
     2  C    0.436473
     3  O   -0.350220
     4  C   -0.195982
     5  C    0.369892
     6  C   -0.270240
     7  C   -0.187441
     8  C   -0.096052
     9  O   -0.354080
    10  H    0.125125
    11  H    0.132801
    12  H    0.117880
    13  H    0.114422
    14  H    0.114295
    15  H    0.122838
    16  H    0.095533
    17  H    0.070873
    18  H    0.112362
    19  H    0.115765
 Sum of Mulliken charges =   0.00000

 Dipole moment (field-independent basis, Debye):
    X=              0.8209    Y=              0.3964    Z=              0.3748  Tot=              0.9856
 Quadrupole moment (field-independent basis, Debye-Ang):
   XX=            -53.6498   YY=            -50.3030   ZZ=            -55.7801
   XY=              1.6567   XZ=              5.0696   YZ=              0.2357

  Exact polarizability:  81.290   2.726  77.177   5.303  -0.449  64.345
 Approx polarizability: 118.164   5.291 109.909   2.501   2.091 103.624

                      1                      2                      3
                      A                      A                      A
 Frequencies --    154.9023               202.3138               284.0985
 Red. masses --      1.0340                 3.2115                 2.4986
 Frc consts  --      0.0146                 0.0774                 0.1188
 IR Inten    --      0.0787                 1.1999                 3.0942

                      4                      5                      6
                      A                      A                      A
 Frequencies --    330.1463               368.7497               417.7376
 Red. masses --      2.5438                 2.9150                 3.5398
 Frc consts  --      0.1634                 0.2335                 0.3639
 IR Inten    --      1.7788                 6.9291                 9.0255

                      7                      8                      9
                      A                      A                      A
 Frequencies --    490.7913               516.7001               554.7721
 Red. masses --      2.0728                 2.9890                 4.8804
 Frc consts  --      0.2942                 0.4702                 0.8850
 IR Inten    --      1.5120                 7.3152                 0.8274

                     10                     11                     12
                      A                      A                      A
 Frequencies --    652.6493               714.1866               744.8118
 Red. masses --      3.7666                 4.7499                 3.4461
 Frc consts  --      0.9453                 1.4274                 1.1264
 IR Inten    --      1.2582                 1.3716                 7.1645

                     13                     14                     15
                      A                      A                      A
 Frequencies --    823.0632               849.5793               856.1852
 Red. masses --      4.1910                 2.9747                 2.7277
 Frc consts  --      1.6728                 1.2650                 1.1781
 IR Inten    --     17.3056                42.8303                11.1180

                     16                     17                     18
                      A                      A                      A
 Frequencies --    874.2434               905.2611               924.2710
 Red. masses --      2.7978                 3.2459                 4.5169
 Frc consts  --      1.2599                 1.5672                 2.2735
 IR Inten    --      9.2227                 9.9468                51.4088

                     19                     20                     21
                      A                      A                      A
 Frequencies --    958.2720               977.3657              1010.8390
 Red. masses --      1.9844                 1.6698                 1.4949
 Frc consts  --      1.0736                 0.9398                 0.9000
 IR Inten    --      8.4712                 3.6400                12.2075

                     22                     23                     24
                      A                      A                      A
 Frequencies --   1072.3455              1086.9913              1100.3122
 Red. masses --      1.5637                 1.6430                 1.8614
 Frc consts  --      1.0594                 1.1438                 1.3278
 IR Inten    --      6.2381                 3.2723                14.7390

                     25                     26                     27
                      A                      A                      A
 Frequencies --   1116.6484              1141.9757              1164.5856
 Red. masses --      1.9403                 1.2707                 1.4565
 Frc consts  --      1.4254                 0.9764                 1.1639
 IR Inten    --      5.3478                 8.2459                 6.6115

                     28                     29                     30
                      A                      A                      A
 Frequencies --   1178.6531              1203.2929              1233.8204
 Red. masses --      1.7048                 1.8268                 1.5836
 Frc consts  --      1.3954                 1.5584                 1.4204
 IR Inten    --      5.2709                 7.6474                 7.0415

                     31                     32                     33
                      A                      A                      A
 Frequencies --   1243.9197              1283.2936              1304.1581
 Red. masses --      1.9242                 1.7935                 2.4923
 Frc consts  --      1.7542                 1.7403                 2.4976
 IR Inten    --     28.7135                 7.6556                 8.5353

                     34                     35                     36
                      A                      A                      A
 Frequencies --   1330.9786              1361.3336              1413.7488
 Red. masses --      2.2213                 1.8602                 1.2796
 Frc consts  --      2.3185                 2.0311                 1.5069
 IR Inten    --      7.9046                14.4641                 7.2147

                     37                     38                     39
                      A                      A                      A
 Frequencies --   1479.7033              1483.9746              1490.4204
 Red. masses --      1.0680                 1.0659                 1.1004
 Frc consts  --      1.3778                 1.3831                 1.4402
 IR Inten    --      2.9278                 4.3476                 5.1174

                     40                     41                     42
                      A                      A                      A
 Frequencies --   1511.5612              1521.2194              3030.3835
 Red. masses --      1.1079                 1.1049                 1.0567
 Frc consts  --      1.4914                 1.5065                 5.7171
 IR Inten    --      0.2045                 2.4688                55.9510

                     43                     44                     45
                      A                      A                      A
 Frequencies --   3038.3648              3054.2079              3081.3426
 Red. masses --      1.0380                 1.0568                 1.0690
 Frc consts  --      5.6460                 5.8084                 5.9799
 IR Inten    --     22.2580                35.5177                34.7855

                     46                     47                     48
                      A                      A                      A
 Frequencies --   3091.2321              3097.5878              3099.0272
 Red. masses --      1.0819                 1.1030                 1.1056
 Frc consts  --      6.0914                 6.2353                 6.2560
 IR Inten    --     43.8280                20.6037                18.7165

                     49                     50                     51
                      A                      A                      A
 Frequencies --   3103.5230              3122.5622              3178.6031
 Red. masses --      1.1101                 1.0999                 1.1052
 Frc consts  --      6.2998                 6.3188                 6.5788
 IR Inten    --     41.7973                23.4107                 9.2266

 - Thermochemistry -
 -------------------
 Temperature   298.150 Kelvin.  Pressure   1.00000 Atm.
 Atom     1 has atomic number  6 and mass  12.00000

 Molecular mass:   126.06808 amu.
 Principal axes and moments of inertia in atomic units:
                           1         2         3
     Eigenvalues --   688.75863 919.275341085.37504
           X            0.99816   0.00328   0.06056
           Y           -0.00031   0.99881  -0.04883
           Z           -0.06065   0.04872   0.99697
 This molecule is an asymmetric top.
 Rotational symmetry number  1.
 Warning -- assumption of classical behavior for rotation
           may cause significant error
 Rotational temperatures (Kelvin)      0.12575     0.09422     0.07980
 Rotational constants (GHZ):           2.62028     1.96322     1.66278
 Zero-point vibrational energy     420072.9 (Joules/Mol)
                                  100.39984 (Kcal/Mol)
 Warning -- explicit consideration of   9 degrees of freedom as
           vibrations may cause significant error
 Vibrational temperatures:    222.87   291.08   408.75   475.01   530.55
          (Kelvin)            601.03   706.14   743.42   798.19   939.02
                             1027.55  1071.62  1184.20  1222.35  1231.86
                             1257.84  1302.47  1329.82  1378.74  1406.21
                             1454.37  1542.86  1563.94  1583.10  1606.61
                             1643.05  1675.58  1695.82  1731.27  1775.19
                             1789.72  1846.37  1876.39  1914.98  1958.65
                             2034.07  2128.96  2135.11  2144.38  2174.80
                             2188.69  4360.04  4371.52  4394.32  4433.36
                             4447.59  4456.73  4458.80  4465.27  4492.66
                             4573.30

 Zero-point correction=                           0.159997 (Hartree/Particle)
 Thermal correction to Energy=                    0.167207
 Thermal correction to Enthalpy=                  0.168151
 Thermal correction to Gibbs Free Energy=         0.128909
 Sum of electronic and zero-point Energies=           -422.939557
 Sum of electronic and thermal Energies=              -422.932348
 Sum of electronic and thermal Enthalpies=            -422.931404
 Sum of electronic and thermal Free Energies=         -422.970645

                     E (Thermal)             CV                S
                      KCal/Mol        Cal/Mol-Kelvin    Cal/Mol-Kelvin
 Total                  104.924             29.942             82.591
 Electronic               0.000              0.000              0.000
 Translational            0.889              2.981             40.409
 Rotational               0.889              2.981             28.021
 Vibrational            103.146             23.981             14.162
 Vibration     1          0.620              1.897              2.611
 Vibration     2          0.639              1.837              2.112
 Vibration     3          0.683              1.703              1.509
 Vibration     4          0.713              1.615              1.259
 Vibration     5          0.741              1.536              1.085
 Vibration     6          0.781              1.432              0.900
 Vibration     7          0.847              1.270              0.682
 Vibration     8          0.872              1.213              0.618
 Vibration     9          0.910              1.129              0.534

 Normal termination of Gaussian 09 at Mon Jan 27 19:32:21 2020.
