 Gaussian 09, Revision D.01,
 Gaussian 09:  ES64L-G09RevD.01 24-Apr-2013

 -----------------------------
 # b3lyp 6-31G(2df,p) opt Freq
 -----------------------------

 -----
 titel
 -----
 Symbolic Z-matrix:
 Charge =  0 Multiplicity = 1

 SCF Done:  E(RB3LYP) =  -423.083033423     A.U. after   12 cycles
 Optimization completed.
    -- Stationary point found.
 Normal termination of Gaussian 09 at Mon Jan 27 22:12:10 2020.

 ----------------------------------------------------------------------
 #N Geom=AllCheck Guess=TCheck SCRF=Check GenChk RB3LYP/6-31G(2df,p) Fr
 eq
 ----------------------------------------------------------------------

 Structure from the checkpoint file:  "/scratch/puck/g09_00a66543-ab77-494b-9e6a-dcc66e1cc776/Gau-29047.chk"
 -----
 titel
 -----
 Charge =  0 Multiplicity = 1

                         Standard orientation:
 ---------------------------------------------------------------------
 Center     Atomic      Atomic             Coordinates (Angstroms)
 Number     Number       Type             X           Y           Z
 ---------------------------------------------------------------------
      1          6           0        1.249607    1.687673    0.016013
      2          6           0        1.357421    0.166130    0.009918
      3          8           0        2.708014   -0.264238    0.049675
      4          6           0        0.548856   -0.832831    0.787856
      5          6           0       -0.987230   -0.643650    0.794081
      6          6           0       -1.562217    0.476211   -0.048655
      7          8           0       -2.956568    0.602802   -0.027956
      8          6           0       -1.006989   -0.733022   -0.741641
      9          6           0        0.532412   -0.872802   -0.742351
     10          1           0        0.960849    2.092349   -0.959489
     11          1           0        0.545462    2.053889    0.765077
     12          1           0        2.232915    2.088855    0.276301
     13          1           0        3.105809   -0.046324   -0.800773
     14          1           0        1.050381   -1.514506    1.463566
     15          1           0       -1.626764   -1.143329    1.512880
     16          1           0       -1.134063    1.464093   -0.133760
     17          1           0       -3.346031   -0.277529    0.018682
     18          1           0       -1.640381   -1.336845   -1.382452
     19          1           0        1.049091   -1.575416   -1.385117
 ---------------------------------------------------------------------

 SCF Done:  E(RB3LYP) =  -423.083033423     A.U. after    1 cycles

 The electronic state is 1-A.
 Alpha  occ. eigenvalues --  -19.14476 -19.14027 -10.24648 -10.23878 -10.19289
 Alpha  occ. eigenvalues --  -10.19258 -10.19100 -10.19064 -10.17741  -1.03193
 Alpha  occ. eigenvalues --   -1.02751  -0.90329  -0.78617  -0.72054  -0.63975
 Alpha  occ. eigenvalues --   -0.62354  -0.57194  -0.53748  -0.52703  -0.48182
 Alpha  occ. eigenvalues --   -0.47337  -0.45172  -0.43979  -0.41906  -0.38999
 Alpha  occ. eigenvalues --   -0.37557  -0.36956  -0.36056  -0.34303  -0.32663
 Alpha  occ. eigenvalues --   -0.29456  -0.26646  -0.23855  -0.21122
 Alpha virt. eigenvalues --    0.06541   0.07102   0.08442   0.09089   0.11889
 Alpha virt. eigenvalues --    0.14209   0.14701   0.16014   0.16212   0.17251
 Alpha virt. eigenvalues --    0.18100   0.19027   0.20424   0.21003   0.22076

 Mulliken charges:
               1
     1  C   -0.494027
     2  C    0.374975
     3  O   -0.461326
     4  C   -0.096401
     5  C   -0.147368
     6  C    0.124068
     7  O   -0.447400
     8  C   -0.131900
     9  C   -0.139119
    10  H    0.123773
    11  H    0.141928
    12  H    0.122042
    13  H    0.280720
    14  H    0.099816
    15  H    0.089184
    16  H    0.101205
    17  H    0.284205
    18  H    0.086366
    19  H    0.089258
 Sum of Mulliken charges =   0.00000

 Dipole moment (field-independent basis, Debye):
    X=              0.1775    Y=             -0.8494    Z=             -1.0539  Tot=              1.3651
 Quadrupole moment (field-independent basis, Debye-Ang):
   XX=            -53.9634   YY=            -52.5180   ZZ=            -52.1507
   XY=              7.0688   XZ=             -4.5137   YZ=             -0.0489

  Exact polarizability:  89.170   2.278  70.396  -1.450  -0.151  65.392
 Approx polarizability: 119.637   0.207 103.631  -1.098  -0.293 109.639

                      1                      2                      3
                      A                      A                      A
 Frequencies --     72.7120               161.0561               216.7095
 Red. masses --      1.4544                 3.0396                 2.1507
 Frc consts  --      0.0045                 0.0465                 0.0595
 IR Inten    --      0.5730                 2.0381                12.1700

                      4                      5                      6
                      A                      A                      A
 Frequencies --    234.9246               267.8380               290.1210
 Red. masses --      1.1990                 2.2745                 2.3399
 Frc consts  --      0.0390                 0.0961                 0.1160
 IR Inten    --     62.7724                19.5172                12.2341

                      7                      8                      9
                      A                      A                      A
 Frequencies --    309.7743               394.4473               409.1706
 Red. masses --      1.4797                 5.3481                 3.7388
 Frc consts  --      0.0837                 0.4903                 0.3688
 IR Inten    --     73.2903                10.5593                 4.0744

                     10                     11                     12
                      A                      A                      A
 Frequencies --    449.1834               465.6655               589.9469
 Red. masses --      3.8201                 2.4944                 2.7571
 Frc consts  --      0.4541                 0.3187                 0.5654
 IR Inten    --      6.0868                 2.5747                 1.3818

                     13                     14                     15
                      A                      A                      A
 Frequencies --    678.0100               754.1426               774.2501
 Red. masses --      5.2705                 3.9301                 1.7273
 Frc consts  --      1.4275                 1.3169                 0.6101
 IR Inten    --      3.4704                 4.8844                 7.3020

                     16                     17                     18
                      A                      A                      A
 Frequencies --    781.2419               830.6613               849.3147
 Red. masses --      2.9744                 1.2620                 2.6183
 Frc consts  --      1.0696                 0.5130                 1.1128
 IR Inten    --     14.2571                21.1410                23.9752

                     19                     20                     21
                      A                      A                      A
 Frequencies --    930.3061               957.6000               979.5346
 Red. masses --      1.8677                 2.3218                 1.9519
 Frc consts  --      0.9524                 1.2544                 1.1035
 IR Inten    --      6.8013                13.7138                 7.9314

                     22                     23                     24
                      A                      A                      A
 Frequencies --    982.6474              1002.1638              1016.3797
 Red. masses --      1.8442                 1.4414                 2.2923
 Frc consts  --      1.0492                 0.8529                 1.3952
 IR Inten    --      3.9461                 5.4003                 0.9880

                     25                     26                     27
                      A                      A                      A
 Frequencies --   1052.1842              1078.4475              1103.3880
 Red. masses --      1.8542                 1.4358                 1.5543
 Frc consts  --      1.2095                 0.9839                 1.1149
 IR Inten    --      2.7365                17.0782                 0.4344

                     28                     29                     30
                      A                      A                      A
 Frequencies --   1115.6900              1140.2858              1152.6874
 Red. masses --      1.7817                 2.5795                 2.2329
 Frc consts  --      1.3067                 1.9761                 1.7480
 IR Inten    --     28.8541               156.3807                75.0054

                     31                     32                     33
                      A                      A                      A
 Frequencies --   1230.2747              1245.1723              1263.2501
 Red. masses --      1.6544                 1.3845                 1.9345
 Frc consts  --      1.4754                 1.2647                 1.8188
 IR Inten    --      3.2308                 1.1381                 3.6980

                     34                     35                     36
                      A                      A                      A
 Frequencies --   1268.1266              1310.5240              1341.6584
 Red. masses --      1.6813                 1.5999                 1.8825
 Frc consts  --      1.5930                 1.6190                 1.9965
 IR Inten    --      0.8267                30.0861                 4.7700

                     37                     38                     39
                      A                      A                      A
 Frequencies --   1403.2309              1424.4975              1453.4845
 Red. masses --      1.2990                 2.3059                 1.7848
 Frc consts  --      1.5070                 2.7569                 2.2216
 IR Inten    --     12.4859                32.0061                49.6997

                     40                     41                     42
                      A                      A                      A
 Frequencies --   1496.3289              1510.2051              3040.7358
 Red. masses --      1.0762                 1.0533                 1.0376
 Frc consts  --      1.4197                 1.4154                 5.6527
 IR Inten    --      4.8897                 9.1031                19.0357

                     43                     44                     45
                      A                      A                      A
 Frequencies --   3109.7766              3127.8497              3160.5223
 Red. masses --      1.1008                 1.1001                 1.0881
 Frc consts  --      6.2723                 6.3414                 6.4040
 IR Inten    --     15.3138                12.9955                 9.3899

                     46                     47                     48
                      A                      A                      A
 Frequencies --   3173.5270              3179.7460              3192.5701
 Red. masses --      1.0931                 1.0896                 1.0958
 Frc consts  --      6.4864                 6.4909                 6.5803
 IR Inten    --     22.6668                19.4061                 9.0792

                     49                     50                     51
                      A                      A                      A
 Frequencies --   3224.5805              3792.9836              3800.6513
 Red. masses --      1.0884                 1.0662                 1.0656
 Frc consts  --      6.6676                 9.0374                 9.0687
 IR Inten    --     13.1636                18.7697                16.4640

 - Thermochemistry -
 -------------------
 Temperature   298.150 Kelvin.  Pressure   1.00000 Atm.
 Atom     1 has atomic number  6 and mass  12.00000

 Molecular mass:   126.06808 amu.
 Principal axes and moments of inertia in atomic units:
                           1         2         3
     Eigenvalues --   481.855081547.578061751.75461
           X            0.99965   0.02572  -0.00670
           Y           -0.02572   0.99967   0.00000
           Z            0.00670   0.00017   0.99998
 This molecule is an asymmetric top.
 Rotational symmetry number  1.
 Warning -- assumption of classical behavior for rotation
           may cause significant error
 Rotational temperatures (Kelvin)      0.17975     0.05597     0.04944
 Rotational constants (GHZ):           3.74540     1.16617     1.03025
 Zero-point vibrational energy     411456.6 (Joules/Mol)
                                   98.34050 (Kcal/Mol)
 Warning -- explicit consideration of  12 degrees of freedom as
           vibrations may cause significant error
 Vibrational temperatures:    104.62   231.72   311.80   338.00   385.36
          (Kelvin)            417.42   445.70   567.52   588.70   646.27
                              669.99   848.80   975.50  1085.04  1113.97
                             1124.03  1195.13  1221.97  1338.50  1377.77
                             1409.33  1413.81  1441.89  1462.34  1513.86
                             1551.64  1587.53  1605.23  1640.61  1658.46
                             1770.09  1791.52  1817.53  1824.55  1885.55
                             1930.34  2018.93  2049.53  2091.24  2152.88
                             2172.85  4374.94  4474.27  4500.27  4547.28
                             4565.99  4574.94  4593.39  4639.45  5457.25
                             5468.28

 Zero-point correction=                           0.156716 (Hartree/Particle)
 Thermal correction to Energy=                    0.165616
 Thermal correction to Enthalpy=                  0.166560
 Thermal correction to Gibbs Free Energy=         0.123554
 Sum of electronic and zero-point Energies=           -422.926318
 Sum of electronic and thermal Energies=              -422.917418
 Sum of electronic and thermal Enthalpies=            -422.916474
 Sum of electronic and thermal Free Energies=         -422.959479

                     E (Thermal)             CV                S
                      KCal/Mol        Cal/Mol-Kelvin    Cal/Mol-Kelvin
 Total                  103.925             34.802             90.512
 Electronic               0.000              0.000              0.000
 Translational            0.889              2.981             40.409
 Rotational               0.889              2.981             28.659
 Vibrational            102.148             28.840             21.445
 Vibration     1          0.599              1.967              4.079
 Vibration     2          0.622              1.890              2.537
 Vibration     3          0.646              1.816              1.986
 Vibration     4          0.655              1.787              1.841
 Vibration     5          0.673              1.732              1.610
 Vibration     6          0.686              1.692              1.473
 Vibration     7          0.699              1.655              1.364
 Vibration     8          0.761              1.482              0.983
 Vibration     9          0.774              1.450              0.930
 Vibration    10          0.808              1.363              0.798
 Vibration    11          0.823              1.326              0.750
 Vibration    12          0.947              1.053              0.467

 Optimization completed.
    -- Stationary point found.
 Normal termination of Gaussian 09 at Tue Jan 28 00:28:25 2020.
