 Gaussian 09, Revision D.01,
 Gaussian 09:  ES64L-G09RevD.01 24-Apr-2013

 -----------------------------
 # b3lyp 6-31G(2df,p) opt Freq
 -----------------------------

 -----
 titel
 -----
 Symbolic Z-matrix:
 Charge =  0 Multiplicity = 1

 SCF Done:  E(RB3LYP) =  -423.200003682     A.U. after   13 cycles
 Optimization completed.
    -- Stationary point found.
 Normal termination of Gaussian 09 at Mon Jan 27 18:10:33 2020.

 ----------------------------------------------------------------------
 #N Geom=AllCheck Guess=TCheck SCRF=Check GenChk RB3LYP/6-31G(2df,p) Fr
 eq
 ----------------------------------------------------------------------

 Structure from the checkpoint file:  "/scratch/puck/g09_597dcc97-01ad-4656-98b8-9fa45f36209b/Gau-168629.chk"
 -----
 titel
 -----
 Charge =  0 Multiplicity = 1

                         Standard orientation:
 ---------------------------------------------------------------------
 Center     Atomic      Atomic             Coordinates (Angstroms)
 Number     Number       Type             X           Y           Z
 ---------------------------------------------------------------------
      1          6           0        2.401621   -0.347702    0.019596
      2          6           0        0.954162    0.061657   -0.080572
      3          6           0        0.533215    1.531771   -0.323394
      4          6           0       -0.789198    1.209930    0.417917
      5          6           0       -1.746164    0.415407   -0.502458
      6          6           0       -1.036558   -0.952103   -0.469558
      7          8           0       -0.823141   -1.161427    0.918178
      8          6           0       -0.056938    0.005464    1.126049
      9          8           0        0.268253   -0.800196   -1.015197
     10          1           0        2.481829   -1.385502    0.355905
     11          1           0        2.892009   -0.267755   -0.956181
     12          1           0        2.937398    0.294832    0.725008
     13          1           0        1.164072    2.227310    0.239361
     14          1           0        0.469390    1.856083   -1.365147
     15          1           0       -1.267883    1.985463    1.014391
     16          1           0       -2.748786    0.327675   -0.075315
     17          1           0       -1.818213    0.829031   -1.510828
     18          1           0       -1.531980   -1.807980   -0.925849
     19          1           0        0.300433    0.087278    2.149326
 ---------------------------------------------------------------------

 SCF Done:  E(RB3LYP) =  -423.200003682     A.U. after    1 cycles

 The electronic state is 1-A.
 Alpha  occ. eigenvalues --  -19.14626 -19.13922 -10.27365 -10.23509 -10.23062
 Alpha  occ. eigenvalues --  -10.19243 -10.18346 -10.18071 -10.17536  -1.09509
 Alpha  occ. eigenvalues --   -0.99154  -0.83730  -0.77300  -0.70775  -0.66139
 Alpha  occ. eigenvalues --   -0.60518  -0.58988  -0.55935  -0.51990  -0.47891
 Alpha  occ. eigenvalues --   -0.45558  -0.43909  -0.42445  -0.40654  -0.40072
 Alpha  occ. eigenvalues --   -0.39553  -0.38314  -0.36727  -0.34413  -0.32497
 Alpha  occ. eigenvalues --   -0.31346  -0.29681  -0.26165  -0.25171
 Alpha virt. eigenvalues --    0.08902   0.10556   0.11661   0.12419   0.13931
 Alpha virt. eigenvalues --    0.14561   0.15382   0.15458   0.16166   0.17144
 Alpha virt. eigenvalues --    0.17388   0.18887   0.19141   0.20557   0.22006

 Mulliken charges:
               1
     1  C   -0.482877
     2  C    0.405602
     3  C   -0.275677
     4  C   -0.088133
     5  C   -0.235334
     6  C    0.167184
     7  O   -0.242886
     8  C    0.030294
     9  O   -0.309772
    10  H    0.130953
    11  H    0.128276
    12  H    0.112212
    13  H    0.097178
    14  H    0.101138
    15  H    0.071204
    16  H    0.107212
    17  H    0.106460
    18  H    0.090511
    19  H    0.086454
 Sum of Mulliken charges =   0.00000

 Dipole moment (field-independent basis, Debye):
    X=             -0.0109    Y=              1.5794    Z=              0.2999  Tot=              1.6076
 Quadrupole moment (field-independent basis, Debye-Ang):
   XX=            -50.5300   YY=            -54.2808   ZZ=            -53.6480
   XY=              0.5057   XZ=              2.7785   YZ=              1.4882

  Exact polarizability:  81.420   1.464  71.216   2.393   1.346  66.445
 Approx polarizability: 108.659   4.458 106.212   1.327   1.914 105.637

                      1                      2                      3
                      A                      A                      A
 Frequencies --    203.8217               227.5392               269.2941
 Red. masses --      1.1128                 2.4314                 2.3725
 Frc consts  --      0.0272                 0.0742                 0.1014
 IR Inten    --      0.2131                 1.0958                 0.5720

                      4                      5                      6
                      A                      A                      A
 Frequencies --    372.4045               400.1460               478.0529
 Red. masses --      2.2496                 2.3972                 2.3708
 Frc consts  --      0.1838                 0.2261                 0.3192
 IR Inten    --      0.1734                 1.2047                 1.1400

                      7                      8                      9
                      A                      A                      A
 Frequencies --    551.8270               612.3616               648.7840
 Red. masses --      4.0407                 5.8747                 5.3318
 Frc consts  --      0.7250                 1.2979                 1.3223
 IR Inten    --      3.7422                 8.9825                 3.0579

                     10                     11                     12
                      A                      A                      A
 Frequencies --    723.0671               784.4099               832.1444
 Red. masses --      4.5238                 2.7934                 2.7554
 Frc consts  --      1.3935                 1.0127                 1.1242
 IR Inten    --      3.5996                 3.3645                 4.6448

                     13                     14                     15
                      A                      A                      A
 Frequencies --    840.5158               858.1452               883.2133
 Red. masses --      3.6743                 2.2660                 2.4653
 Frc consts  --      1.5294                 0.9832                 1.1331
 IR Inten    --      3.3958                 4.4375                32.2516

                     16                     17                     18
                      A                      A                      A
 Frequencies --    893.0108               920.6732               948.2793
 Red. masses --      3.7569                 2.1352                 1.9777
 Frc consts  --      1.7652                 1.0664                 1.0478
 IR Inten    --     14.0698                24.0680                 2.0975

                     19                     20                     21
                      A                      A                      A
 Frequencies --    953.0371               999.1884              1023.0644
 Red. masses --      2.4708                 1.6327                 1.8653
 Frc consts  --      1.3222                 0.9604                 1.1503
 IR Inten    --     35.1386                 2.8319                12.8943

                     22                     23                     24
                      A                      A                      A
 Frequencies --   1041.1806              1065.9128              1116.7230
 Red. masses --      2.0792                 3.4457                 1.9837
 Frc consts  --      1.3280                 2.3066                 1.4576
 IR Inten    --     28.6479                72.1373                14.3199

                     25                     26                     27
                      A                      A                      A
 Frequencies --   1117.4956              1159.2937              1176.6228
 Red. masses --      1.6359                 1.4208                 1.9459
 Frc consts  --      1.2037                 1.1250                 1.5873
 IR Inten    --     40.2996                 0.1969                12.5470

                     28                     29                     30
                      A                      A                      A
 Frequencies --   1206.4133              1218.0392              1241.1419
 Red. masses --      1.6695                 1.6906                 1.7389
 Frc consts  --      1.4316                 1.4778                 1.5782
 IR Inten    --     11.3178                 2.2703                 3.2580

                     31                     32                     33
                      A                      A                      A
 Frequencies --   1252.9176              1274.9038              1323.2111
 Red. masses --      1.5097                 1.6167                 1.5822
 Frc consts  --      1.3963                 1.5482                 1.6322
 IR Inten    --      6.2616                 8.2109                11.9559

                     34                     35                     36
                      A                      A                      A
 Frequencies --   1332.5637              1346.8970              1360.4287
 Red. masses --      1.9775                 1.5369                 1.5934
 Frc consts  --      2.0689                 1.6427                 1.7375
 IR Inten    --     23.7974                 1.2646                10.7360

                     37                     38                     39
                      A                      A                      A
 Frequencies --   1411.0695              1472.1118              1482.1177
 Red. masses --      1.4060                 1.1109                 1.0524
 Frc consts  --      1.6494                 1.4184                 1.3620
 IR Inten    --      9.8067                 0.7865                 1.9857

                     40                     41                     42
                      A                      A                      A
 Frequencies --   1485.7433              1492.8546              3037.0356
 Red. masses --      1.1133                 1.0496                 1.0355
 Frc consts  --      1.4480                 1.3782                 5.6273
 IR Inten    --      6.3624                 3.0892                16.1053

                     43                     44                     45
                      A                      A                      A
 Frequencies --   3049.5851              3064.2576              3105.8036
 Red. masses --      1.0579                 1.0597                 1.1036
 Frc consts  --      5.7966                 5.8623                 6.2721
 IR Inten    --     32.6323                21.3455                 3.3269

                     46                     47                     48
                      A                      A                      A
 Frequencies --   3108.8969              3114.8526              3116.8493
 Red. masses --      1.1041                 1.0926                 1.1021
 Frc consts  --      6.2875                 6.2460                 6.3079
 IR Inten    --     28.7016                23.5121                19.0138

                     49                     50                     51
                      A                      A                      A
 Frequencies --   3121.3065              3141.1318              3160.3223
 Red. masses --      1.1034                 1.0914                 1.0926
 Frc consts  --      6.3339                 6.3448                 6.4296
 IR Inten    --     31.1868                41.5097                15.7029

 - Thermochemistry -
 -------------------
 Temperature   298.150 Kelvin.  Pressure   1.00000 Atm.
 Atom     1 has atomic number  6 and mass  12.00000

 Molecular mass:   126.06808 amu.
 Principal axes and moments of inertia in atomic units:
                           1         2         3
     Eigenvalues --   632.14560 925.343831082.08631
           X            0.99932  -0.02364   0.02823
           Y            0.02333   0.99966   0.01146
           Z           -0.02849  -0.01079   0.99954
 This molecule is an asymmetric top.
 Rotational symmetry number  1.
 Warning -- assumption of classical behavior for rotation
           may cause significant error
 Rotational temperatures (Kelvin)      0.13702     0.09360     0.08004
 Rotational constants (GHZ):           2.85495     1.95035     1.66783
 Zero-point vibrational energy     424797.9 (Joules/Mol)
                                  101.52913 (Kcal/Mol)
 Warning -- explicit consideration of   8 degrees of freedom as
           vibrations may cause significant error
 Vibrational temperatures:    293.25   327.38   387.45   535.81   575.72
          (Kelvin)            687.81   793.95   881.05   933.45  1040.33
                             1128.59  1197.27  1209.31  1234.68  1270.75
                             1284.84  1324.64  1364.36  1371.21  1437.61
                             1471.96  1498.02  1533.61  1606.71  1607.82
                             1667.96  1692.90  1735.76  1752.48  1785.72
                             1802.67  1834.30  1903.80  1917.26  1937.88
                             1957.35  2030.21  2118.04  2132.43  2137.65
                             2147.88  4369.61  4387.67  4408.78  4468.55
                             4473.00  4481.57  4484.45  4490.86  4519.38
                             4546.99

 Zero-point correction=                           0.161797 (Hartree/Particle)
 Thermal correction to Energy=                    0.168520
 Thermal correction to Enthalpy=                  0.169464
 Thermal correction to Gibbs Free Energy=         0.131175
 Sum of electronic and zero-point Energies=           -423.038207
 Sum of electronic and thermal Energies=              -423.031484
 Sum of electronic and thermal Enthalpies=            -423.030540
 Sum of electronic and thermal Free Energies=         -423.068829

                     E (Thermal)             CV                S
                      KCal/Mol        Cal/Mol-Kelvin    Cal/Mol-Kelvin
 Total                  105.748             28.482             80.587
 Electronic               0.000              0.000              0.000
 Translational            0.889              2.981             40.409
 Rotational               0.889              2.981             27.939
 Vibrational            103.970             22.521             12.239
 Vibration     1          0.639              1.834              2.098
 Vibration     2          0.651              1.799              1.898
 Vibration     3          0.674              1.730              1.601
 Vibration     4          0.744              1.529              1.070
 Vibration     5          0.766              1.470              0.962
 Vibration     6          0.835              1.299              0.715
 Vibration     7          0.907              1.136              0.540
 Vibration     8          0.972              1.006              0.429

 Optimization completed.
    -- Stationary point found.
 Normal termination of Gaussian 09 at Mon Jan 27 19:00:51 2020.
