 Gaussian 09, Revision D.01,
 Gaussian 09:  ES64L-G09RevD.01 24-Apr-2013

 -----------------------------
 # b3lyp 6-31G(2df,p) opt Freq
 -----------------------------

 -----
 titel
 -----
 Symbolic Z-matrix:
 Charge =  0 Multiplicity = 1

 SCF Done:  E(RB3LYP) =  -423.116673605     A.U. after   13 cycles
 Optimization completed.
    -- Stationary point found.
 Normal termination of Gaussian 09 at Tue Jan 28 09:42:11 2020.

 ----------------------------------------------------------------------
 #N Geom=AllCheck Guess=TCheck SCRF=Check GenChk RB3LYP/6-31G(2df,p) Fr
 eq
 ----------------------------------------------------------------------

 Structure from the checkpoint file:  "/scratch/puck/g09_690701cf-d7af-4ae8-a136-8ab3669a3164/Gau-106470.chk"
 -----
 titel
 -----
 Charge =  0 Multiplicity = 1

                         Standard orientation:
 ---------------------------------------------------------------------
 Center     Atomic      Atomic             Coordinates (Angstroms)
 Number     Number       Type             X           Y           Z
 ---------------------------------------------------------------------
      1          6           0        2.749143   -0.813015    0.267383
      2          6           0        2.045110    0.343107   -0.457579
      3          6           0        0.572506    0.364212   -0.192648
      4          8           0        0.120647    0.789082    1.099559
      5          6           0       -0.431454    1.444365   -0.045071
      6          6           0       -1.570224    0.551243   -0.595750
      7          6           0       -2.235142   -0.417692    0.410490
      8          8           0       -1.212731   -1.424536    0.182922
      9          6           0       -0.538168   -0.585268   -0.763726
     10          1           0        3.822002   -0.810170    0.054624
     11          1           0        2.612124   -0.728198    1.348954
     12          1           0        2.345300   -1.781345   -0.045282
     13          1           0        2.470460    1.302120   -0.140690
     14          1           0        2.208013    0.263296   -1.539891
     15          1           0       -0.331141    2.523438   -0.093404
     16          1           0       -2.153635    0.946055   -1.424956
     17          1           0       -2.261995   -0.089613    1.453108
     18          1           0       -3.220113   -0.785001    0.100733
     19          1           0       -0.304974   -1.078660   -1.711635
 ---------------------------------------------------------------------

 SCF Done:  E(RB3LYP) =  -423.116673605     A.U. after    1 cycles

 The electronic state is 1-A.
 Alpha  occ. eigenvalues --  -19.15386 -19.13014 -10.23978 -10.23858 -10.23565
 Alpha  occ. eigenvalues --  -10.22738 -10.19586 -10.19263 -10.17654  -1.08613
 Alpha  occ. eigenvalues --   -1.02778  -0.78961  -0.77668  -0.70342  -0.64775
 Alpha  occ. eigenvalues --   -0.62741  -0.58055  -0.53677  -0.51358  -0.48725
 Alpha  occ. eigenvalues --   -0.46824  -0.44885  -0.43901  -0.40589  -0.40404
 Alpha  occ. eigenvalues --   -0.38503  -0.36813  -0.35503  -0.34554  -0.33883
 Alpha  occ. eigenvalues --   -0.30946  -0.27179  -0.25914  -0.23908
 Alpha virt. eigenvalues --    0.05404   0.08777   0.10032   0.11154   0.12625
 Alpha virt. eigenvalues --    0.13379   0.14175   0.15061   0.15857   0.16314
 Alpha virt. eigenvalues --    0.16962   0.17944   0.19157   0.20236   0.20419

 Mulliken charges:
               1
     1  C   -0.377677
     2  C   -0.316469
     3  C    0.432033
     4  O   -0.274386
     5  C   -0.083651
     6  C   -0.127021
     7  C   -0.082253
     8  O   -0.286398
     9  C    0.037366
    10  H    0.113419
    11  H    0.138482
    12  H    0.126694
    13  H    0.111226
    14  H    0.102623
    15  H    0.104197
    16  H    0.086504
    17  H    0.117414
    18  H    0.099334
    19  H    0.078564
 Sum of Mulliken charges =   0.00000

 Dipole moment (field-independent basis, Debye):
    X=              0.0878    Y=              1.5938    Z=             -2.1214  Tot=              2.6549
 Quadrupole moment (field-independent basis, Debye-Ang):
   XX=            -48.4814   YY=            -54.4203   ZZ=            -53.7752
   XY=             -2.2184   XZ=             -0.1779   YZ=             -0.1164

  Exact polarizability:  89.147  -1.489  70.492  -1.459   0.806  64.295
 Approx polarizability: 113.265  -4.123 107.573  -2.075   2.213 103.466

                      1                      2                      3
                      A                      A                      A
 Frequencies --     76.9514               115.8272               192.4743
 Red. masses --      2.5368                 3.3949                 1.2442
 Frc consts  --      0.0089                 0.0268                 0.0272
 IR Inten    --      0.8723                 1.4212                 0.4719

                      4                      5                      6
                      A                      A                      A
 Frequencies --    233.4348               285.7710               335.1688
 Red. masses --      3.0270                 2.5952                 3.7927
 Frc consts  --      0.0972                 0.1249                 0.2510
 IR Inten    --      2.4276                 0.6086                 0.4956

                      7                      8                      9
                      A                      A                      A
 Frequencies --    359.5936               496.4073               589.4297
 Red. masses --      2.6639                 2.9233                 3.8990
 Frc consts  --      0.2030                 0.4244                 0.7981
 IR Inten    --      2.7787                 3.3833                 8.8582

                     10                     11                     12
                      A                      A                      A
 Frequencies --    670.3626               727.6987               772.5375
 Red. masses --      4.2772                 4.4083                 1.3625
 Frc consts  --      1.1325                 1.3754                 0.4791
 IR Inten    --     15.8886                 2.6977                 3.4218

                     13                     14                     15
                      A                      A                      A
 Frequencies --    814.1196               837.1481               861.6209
 Red. masses --      2.3545                 3.0545                 1.9851
 Frc consts  --      0.9195                 1.2612                 0.8683
 IR Inten    --      2.1884                 2.4019                11.2536

                     16                     17                     18
                      A                      A                      A
 Frequencies --    894.8535               916.9085               959.8295
 Red. masses --      2.5919                 2.6905                 2.1059
 Frc consts  --      1.2229                 1.3327                 1.1431
 IR Inten    --      4.1663                17.6378                 4.3425

                     19                     20                     21
                      A                      A                      A
 Frequencies --    977.5756               994.2641               999.9041
 Red. masses --      3.1123                 1.7391                 4.0053
 Frc consts  --      1.7524                 1.0129                 2.3594
 IR Inten    --     13.2477                 9.5564                77.9612

                     22                     23                     24
                      A                      A                      A
 Frequencies --   1034.8954              1059.6853              1075.9947
 Red. masses --      2.1206                 2.4366                 2.4666
 Frc consts  --      1.3381                 1.6121                 1.6826
 IR Inten    --     18.4521                10.7970                 6.7770

                     25                     26                     27
                      A                      A                      A
 Frequencies --   1105.1532              1159.1201              1169.1061
 Red. masses --      1.9488                 1.3388                 1.6474
 Frc consts  --      1.4024                 1.0598                 1.3266
 IR Inten    --      1.3626                 4.5709                 5.7616

                     28                     29                     30
                      A                      A                      A
 Frequencies --   1185.6387              1218.5184              1243.5449
 Red. masses --      1.7915                 1.7800                 1.3593
 Frc consts  --      1.4838                 1.5571                 1.2385
 IR Inten    --      1.1683                 3.8557                13.0184

                     31                     32                     33
                      A                      A                      A
 Frequencies --   1275.5457              1289.3613              1312.8114
 Red. masses --      1.3061                 1.7394                 1.3690
 Frc consts  --      1.2520                 1.7038                 1.3902
 IR Inten    --      2.2886                 2.2470                 2.9232

                     34                     35                     36
                      A                      A                      A
 Frequencies --   1348.9899              1355.8029              1409.9527
 Red. masses --      1.4318                 1.4866                 1.2421
 Frc consts  --      1.5351                 1.6101                 1.4549
 IR Inten    --      4.6411                 2.0020                 1.8024

                     37                     38                     39
                      A                      A                      A
 Frequencies --   1453.1552              1472.5278              1497.8052
 Red. masses --      3.0620                 1.1334                 1.0407
 Frc consts  --      3.8095                 1.4479                 1.3756
 IR Inten    --      4.1773                 2.3860                 5.5059

                     40                     41                     42
                      A                      A                      A
 Frequencies --   1503.5502              1508.6795              3027.2740
 Red. masses --      1.1019                 1.1472                 1.0610
 Frc consts  --      1.4677                 1.5384                 5.7291
 IR Inten    --      0.9890                 4.1994                23.3456

                     43                     44                     45
                      A                      A                      A
 Frequencies --   3032.0848              3041.6730              3068.2041
 Red. masses --      1.0593                 1.0351                 1.0995
 Frc consts  --      5.7379                 5.6424                 6.0986
 IR Inten    --     76.3432                21.3247                 5.0951

                     46                     47                     48
                      A                      A                      A
 Frequencies --   3072.0612              3096.1132              3111.0610
 Red. masses --      1.0896                 1.1064                 1.1017
 Frc consts  --      6.0584                 6.2487                 6.2826
 IR Inten    --     45.7056                20.9980                32.4761

                     49                     50                     51
                      A                      A                      A
 Frequencies --   3121.5917              3137.9953              3174.9345
 Red. masses --      1.1024                 1.0899                 1.0942
 Frc consts  --      6.3293                 6.3231                 6.4988
 IR Inten    --     23.4012                22.2548                22.2774

 - Thermochemistry -
 -------------------
 Temperature   298.150 Kelvin.  Pressure   1.00000 Atm.
 Atom     1 has atomic number  6 and mass  12.00000

 Molecular mass:   126.06808 amu.
 Principal axes and moments of inertia in atomic units:
                           1         2         3
     Eigenvalues --   541.976731323.947741520.82275
           X            0.99972  -0.02355  -0.00020
           Y            0.02353   0.99937  -0.02647
           Z            0.00082   0.02646   0.99965
 This molecule is an asymmetric top.
 Rotational symmetry number  1.
 Warning -- assumption of classical behavior for rotation
           may cause significant error
 Rotational temperatures (Kelvin)      0.15981     0.06542     0.05695
 Rotational constants (GHZ):           3.32992     1.36315     1.18669
 Zero-point vibrational energy     416747.3 (Joules/Mol)
                                   99.60500 (Kcal/Mol)
 Warning -- explicit consideration of   9 degrees of freedom as
           vibrations may cause significant error
 Vibrational temperatures:    110.72   166.65   276.93   335.86   411.16
          (Kelvin)            482.23   517.37   714.22   848.06   964.50
                             1046.99  1111.51  1171.34  1204.47  1239.68
                             1287.49  1319.23  1380.98  1406.51  1430.52
                             1438.64  1488.98  1524.65  1548.11  1590.07
                             1667.71  1682.08  1705.87  1753.17  1789.18
                             1835.22  1855.10  1888.84  1940.89  1950.70
                             2028.60  2090.76  2118.64  2155.00  2163.27
                             2170.65  4355.57  4362.49  4376.28  4414.46
                             4420.01  4454.61  4476.12  4491.27  4514.87
                             4568.02

 Zero-point correction=                           0.158731 (Hartree/Particle)
 Thermal correction to Energy=                    0.166758
 Thermal correction to Enthalpy=                  0.167702
 Thermal correction to Gibbs Free Energy=         0.125966
 Sum of electronic and zero-point Energies=           -422.957943
 Sum of electronic and thermal Energies=              -422.949916
 Sum of electronic and thermal Enthalpies=            -422.948972
 Sum of electronic and thermal Free Energies=         -422.990708

                     E (Thermal)             CV                S
                      KCal/Mol        Cal/Mol-Kelvin    Cal/Mol-Kelvin
 Total                  104.642             30.861             87.841
 Electronic               0.000              0.000              0.000
 Translational            0.889              2.981             40.409
 Rotational               0.889              2.981             28.480
 Vibrational            102.865             24.899             18.952
 Vibration     1          0.599              1.965              3.967
 Vibration     2          0.608              1.936              3.169
 Vibration     3          0.634              1.850              2.204
 Vibration     4          0.654              1.790              1.852
 Vibration     5          0.684              1.700              1.499
 Vibration     6          0.716              1.605              1.235
 Vibration     7          0.734              1.556              1.124
 Vibration     8          0.852              1.258              0.667
 Vibration     9          0.947              1.054              0.468

 Optimization completed.
    -- Stationary point found.
 Normal termination of Gaussian 09 at Tue Jan 28 10:24:51 2020.
