 Gaussian 09, Revision D.01,
 Gaussian 09:  ES64L-G09RevD.01 24-Apr-2013

 -----------------------------
 # b3lyp 6-31G(2df,p) opt Freq
 -----------------------------

 -----
 titel
 -----
 Symbolic Z-matrix:
 Charge =  0 Multiplicity = 1

 SCF Done:  E(RB3LYP) =  -423.191022495     A.U. after   14 cycles
 Optimization completed.
    -- Stationary point found.
 Normal termination of Gaussian 09 at Mon Jan 27 13:15:31 2020.

 ----------------------------------------------------------------------
 #N Geom=AllCheck Guess=TCheck SCRF=Check GenChk RB3LYP/6-31G(2df,p) Fr
 eq
 ----------------------------------------------------------------------

 Structure from the checkpoint file:  "/scratch/puck/g09_a1a8c6bc-c0f1-4fb7-9fcc-aa8d869007b1/Gau-38329.chk"
 -----
 titel
 -----
 Charge =  0 Multiplicity = 1

                         Standard orientation:
 ---------------------------------------------------------------------
 Center     Atomic      Atomic             Coordinates (Angstroms)
 Number     Number       Type             X           Y           Z
 ---------------------------------------------------------------------
      1          8           0        2.692072   -0.802642   -0.534293
      2          6           0        2.025236    0.174992   -0.297777
      3          6           0        0.645947    0.153545    0.251658
      4          6           0        0.250312    1.391686    1.056990
      5          6           0       -0.284077    1.234248   -0.324206
      6          8           0       -1.636031    0.952354   -0.495327
      7          6           0       -1.950587   -0.423601   -0.699705
      8          6           0       -1.461591   -1.265671    0.472830
      9          6           0        0.072767   -1.222628    0.552265
     10          1           0        2.422855    1.199423   -0.492182
     11          1           0       -0.448263    1.236746    1.871238
     12          1           0        1.015296    2.138758    1.243979
     13          1           0        0.118191    1.873172   -1.108783
     14          1           0       -3.038573   -0.457028   -0.797624
     15          1           0       -1.509778   -0.782625   -1.643264
     16          1           0       -1.918769   -0.876676    1.390373
     17          1           0       -1.797961   -2.301743    0.360424
     18          1           0        0.423486   -1.574234    1.528592
     19          1           0        0.497137   -1.908908   -0.188121
 ---------------------------------------------------------------------

 SCF Done:  E(RB3LYP) =  -423.191022495     A.U. after    1 cycles

 The electronic state is 1-A.
 Alpha  occ. eigenvalues --  -19.15293 -19.13573 -10.26911 -10.25372 -10.23573
 Alpha  occ. eigenvalues --  -10.21243 -10.20217 -10.19174 -10.19039  -1.05056
 Alpha  occ. eigenvalues --   -1.04297  -0.87444  -0.79573  -0.69541  -0.67309
 Alpha  occ. eigenvalues --   -0.62344  -0.58825  -0.54720  -0.50382  -0.50327
 Alpha  occ. eigenvalues --   -0.47013  -0.45360  -0.44210  -0.43184  -0.41445
 Alpha  occ. eigenvalues --   -0.39671  -0.38484  -0.37455  -0.35578  -0.34013
 Alpha  occ. eigenvalues --   -0.32036  -0.27704  -0.26145  -0.24927
 Alpha virt. eigenvalues --   -0.02008   0.08881   0.09206   0.09915   0.10833
 Alpha virt. eigenvalues --    0.13065   0.14831   0.15067   0.15508   0.16028
 Alpha virt. eigenvalues --    0.17235   0.17870   0.19470   0.21207   0.22677

 Mulliken charges:
               1
     1  O   -0.269337
     2  C    0.113484
     3  C    0.181580
     4  C   -0.351184
     5  C    0.079779
     6  O   -0.255753
     7  C   -0.067023
     8  C   -0.227189
     9  C   -0.282853
    10  H    0.066525
    11  H    0.132247
    12  H    0.120595
    13  H    0.100934
    14  H    0.112976
    15  H    0.096307
    16  H    0.106851
    17  H    0.105108
    18  H    0.109510
    19  H    0.127441
 Sum of Mulliken charges =   0.00000

 Dipole moment (field-independent basis, Debye):
    X=             -1.5948    Y=              0.5798    Z=              0.8021  Tot=              1.8770
 Quadrupole moment (field-independent basis, Debye-Ang):
   XX=            -60.5836   YY=            -53.1753   ZZ=            -51.8881
   XY=              8.3502   XZ=              1.4495   YZ=             -0.1519

  Exact polarizability:  85.548   1.625  78.590  -1.584   1.865  64.969
 Approx polarizability: 120.647  -9.932 120.790  -4.116   5.410  99.338

                      1                      2                      3
                      A                      A                      A
 Frequencies --     89.3947               118.9694               218.9056
 Red. masses --      3.9175                 3.3724                 2.4289
 Frc consts  --      0.0184                 0.0281                 0.0686
 IR Inten    --      2.2747                 7.2751                 1.9764

                      4                      5                      6
                      A                      A                      A
 Frequencies --    234.2309               320.9330               346.4891
 Red. masses --      4.1789                 1.8373                 2.6414
 Frc consts  --      0.1351                 0.1115                 0.1868
 IR Inten    --      8.1605                 0.8064                 1.3835

                      7                      8                      9
                      A                      A                      A
 Frequencies --    411.7252               453.2274               484.7946
 Red. masses --      3.0665                 2.9447                 3.0987
 Frc consts  --      0.3063                 0.3564                 0.4291
 IR Inten    --      0.4453                 4.4615                 1.7217

                     10                     11                     12
                      A                      A                      A
 Frequencies --    519.2175               660.2451               727.7809
 Red. masses --      3.1654                 2.5388                 3.4288
 Frc consts  --      0.5028                 0.6521                 1.0700
 IR Inten    --      4.1077                21.8971                 6.0645

                     13                     14                     15
                      A                      A                      A
 Frequencies --    773.0726               831.5282               879.9867
 Red. masses --      3.1704                 2.5625                 1.5603
 Frc consts  --      1.1163                 1.0439                 0.7119
 IR Inten    --      1.0755                40.6070                 8.8027

                     16                     17                     18
                      A                      A                      A
 Frequencies --    901.7635               928.0753               953.7129
 Red. masses --      1.8907                 1.4853                 2.2759
 Frc consts  --      0.9059                 0.7538                 1.2196
 IR Inten    --      8.3945                26.7234                11.5444

                     19                     20                     21
                      A                      A                      A
 Frequencies --    981.4542              1031.0113              1050.4455
 Red. masses --      2.4674                 1.7813                 1.3256
 Frc consts  --      1.4003                 1.1156                 0.8618
 IR Inten    --     11.3713                 5.2487                 4.1225

                     22                     23                     24
                      A                      A                      A
 Frequencies --   1065.6656              1067.9617              1113.8731
 Red. masses --      1.9701                 2.2610                 1.8850
 Frc consts  --      1.3182                 1.5194                 1.3779
 IR Inten    --      8.2421                15.5105                22.4064

                     25                     26                     27
                      A                      A                      A
 Frequencies --   1121.4983              1185.1960              1207.1032
 Red. masses --      1.8588                 2.2970                 1.6965
 Frc consts  --      1.3775                 1.9011                 1.4564
 IR Inten    --      0.7565                30.9202                47.6582

                     28                     29                     30
                      A                      A                      A
 Frequencies --   1254.7698              1272.2756              1304.9836
 Red. masses --      1.4981                 1.7331                 1.2748
 Frc consts  --      1.3897                 1.6528                 1.2791
 IR Inten    --     16.9165                38.4617                13.7196

                     31                     32                     33
                      A                      A                      A
 Frequencies --   1317.0187              1363.3608              1373.4779
 Red. masses --      1.8999                 1.4976                 1.4006
 Frc consts  --      1.9417                 1.6401                 1.5567
 IR Inten    --      1.6277                 3.0594                 4.0884

                     34                     35                     36
                      A                      A                      A
 Frequencies --   1399.5645              1419.4244              1441.3735
 Red. masses --      1.5642                 1.3607                 1.2424
 Frc consts  --      1.8052                 1.6153                 1.5208
 IR Inten    --     20.6186                 8.1871                 5.3665

                     37                     38                     39
                      A                      A                      A
 Frequencies --   1466.1078              1483.4812              1497.8575
 Red. masses --      1.2993                 1.0821                 1.1271
 Frc consts  --      1.6454                 1.4031                 1.4899
 IR Inten    --     13.3805                 5.0016                 9.1589

                     40                     41                     42
                      A                      A                      A
 Frequencies --   1503.6378              1812.1509              2848.4785
 Red. masses --      1.0954                10.6332                 1.0820
 Frc consts  --      1.4592                20.5733                 5.1727
 IR Inten    --      2.1313               231.3651               107.9935

                     43                     44                     45
                      A                      A                      A
 Frequencies --   2983.1142              3035.6597              3044.6323
 Red. masses --      1.0704                 1.0615                 1.0613
 Frc consts  --      5.6120                 5.7635                 5.7966
 IR Inten    --     49.1777                17.9931                24.6816

                     46                     47                     48
                      A                      A                      A
 Frequencies --   3074.6423              3089.7043              3098.0018
 Red. masses --      1.1010                 1.1016                 1.0942
 Frc consts  --      6.1321                 6.1960                 6.1873
 IR Inten    --     14.1077                34.6494                37.0158

                     49                     50                     51
                      A                      A                      A
 Frequencies --   3113.8965              3129.3983              3223.3403
 Red. masses --      1.0873                 1.0560                 1.1163
 Frc consts  --      6.2115                 6.0931                 6.8337
 IR Inten    --     25.5921                 9.5532                 4.2356

 - Thermochemistry -
 -------------------
 Temperature   298.150 Kelvin.  Pressure   1.00000 Atm.
 Atom     1 has atomic number  8 and mass  15.99491

 Molecular mass:   126.06808 amu.
 Principal axes and moments of inertia in atomic units:
                           1         2         3
     Eigenvalues --   647.696061301.132321580.56142
           X            0.99802   0.06275   0.00439
           Y           -0.06275   0.99803  -0.00141
           Z           -0.00447   0.00113   0.99999
 This molecule is an asymmetric top.
 Rotational symmetry number  1.
 Warning -- assumption of classical behavior for rotation
           may cause significant error
 Rotational temperatures (Kelvin)      0.13373     0.06657     0.05480
 Rotational constants (GHZ):           2.78640     1.38705     1.14184
 Zero-point vibrational energy     420060.4 (Joules/Mol)
                                  100.39684 (Kcal/Mol)
 Warning -- explicit consideration of  10 degrees of freedom as
           vibrations may cause significant error
 Vibrational temperatures:    128.62   171.17   314.96   337.01   461.75
          (Kelvin)            498.52   592.38   652.09   697.51   747.04
                              949.94  1047.11  1112.28  1196.38  1266.10
                             1297.43  1335.29  1372.18  1412.09  1483.39
                             1511.35  1533.25  1536.56  1602.61  1613.58
                             1705.23  1736.75  1805.33  1830.52  1877.58
                             1894.89  1961.57  1976.13  2013.66  2042.23
                             2073.81  2109.40  2134.40  2155.08  2163.40
                             2607.28  4098.32  4292.03  4367.63  4380.54
                             4423.72  4445.39  4457.33  4480.20  4502.50
                             4637.66

 Zero-point correction=                           0.159993 (Hartree/Particle)
 Thermal correction to Energy=                    0.168024
 Thermal correction to Enthalpy=                  0.168968
 Thermal correction to Gibbs Free Energy=         0.127333
 Sum of electronic and zero-point Energies=           -423.031030
 Sum of electronic and thermal Energies=              -423.022998
 Sum of electronic and thermal Enthalpies=            -423.022054
 Sum of electronic and thermal Free Energies=         -423.063690

                     E (Thermal)             CV                S
                      KCal/Mol        Cal/Mol-Kelvin    Cal/Mol-Kelvin
 Total                  105.437             30.981             87.629
 Electronic               0.000              0.000              0.000
 Translational            0.889              2.981             40.409
 Rotational               0.889              2.981             28.678
 Vibrational            103.659             25.019             18.542
 Vibration     1          0.602              1.957              3.673
 Vibration     2          0.609              1.934              3.117
 Vibration     3          0.647              1.812              1.968
 Vibration     4          0.654              1.788              1.846
 Vibration     5          0.706              1.633              1.305
 Vibration     6          0.724              1.582              1.182
 Vibration     7          0.776              1.445              0.921
 Vibration     8          0.812              1.354              0.786
 Vibration     9          0.841              1.284              0.697
 Vibration    10          0.874              1.207              0.612

 Optimization completed.
    -- Stationary point found.
 Normal termination of Gaussian 09 at Mon Jan 27 13:59:57 2020.
