 Gaussian 09, Revision D.01,
 Gaussian 09:  ES64L-G09RevD.01 24-Apr-2013

 -----------------------------
 # b3lyp 6-31G(2df,p) opt Freq
 -----------------------------

 -----
 titel
 -----
 Symbolic Z-matrix:
 Charge =  0 Multiplicity = 1

 SCF Done:  E(RB3LYP) =  -423.121505860     A.U. after   13 cycles
 Optimization completed.
    -- Stationary point found.
 Normal termination of Gaussian 09 at Mon Jan 27 11:30:31 2020.

 ----------------------------------------------------------------------
 #N Geom=AllCheck Guess=TCheck SCRF=Check GenChk RB3LYP/6-31G(2df,p) Fr
 eq
 ----------------------------------------------------------------------

 Structure from the checkpoint file:  "/scratch/puck/g09_fd7de61b-7027-4e99-be0c-cd7b19725464/Gau-60973.chk"
 -----
 titel
 -----
 Charge =  0 Multiplicity = 1

                         Standard orientation:
 ---------------------------------------------------------------------
 Center     Atomic      Atomic             Coordinates (Angstroms)
 Number     Number       Type             X           Y           Z
 ---------------------------------------------------------------------
      1          6           0       -2.162044    0.423223    0.023903
      2          6           0       -0.813783    0.939814   -0.502442
      3          6           0        0.263073    1.787839    0.115131
      4          8           0        1.504423    1.054293    0.233297
      5          6           0        1.671559   -0.190139   -0.447662
      6          6           0        0.765625   -1.366591    0.032408
      7          6           0       -0.086629   -0.905396    1.224809
      8          6           0       -0.957933   -0.436481    0.065548
      9          8           0       -0.459936   -1.489212   -0.774883
     10          1           0       -2.538535    0.760105    0.986187
     11          1           0       -2.928234    0.271614   -0.728566
     12          1           0       -0.787584    0.914743   -1.588540
     13          1           0        0.453834    2.691228   -0.478150
     14          1           0        0.002227    2.108731    1.131082
     15          1           0        1.554563   -0.090511   -1.536067
     16          1           0        2.715908   -0.449329   -0.246709
     17          1           0        1.302480   -2.317881    0.056670
     18          1           0       -0.546896   -1.743908    1.751343
     19          1           0        0.337133   -0.179042    1.915272
 ---------------------------------------------------------------------

 SCF Done:  E(RB3LYP) =  -423.121505860     A.U. after    1 cycles

 The electronic state is 1-A.
 Alpha  occ. eigenvalues --  -19.13574 -19.13351 -10.24218 -10.23867 -10.23192
 Alpha  occ. eigenvalues --  -10.22891 -10.20241 -10.18793 -10.18636  -1.04846
 Alpha  occ. eigenvalues --   -1.01279  -0.85799  -0.75946  -0.72122  -0.68321
 Alpha  occ. eigenvalues --   -0.61312  -0.56134  -0.53700  -0.50708  -0.49546
 Alpha  occ. eigenvalues --   -0.48354  -0.47507  -0.42923  -0.41807  -0.40859
 Alpha  occ. eigenvalues --   -0.38044  -0.36587  -0.35935  -0.34629  -0.31186
 Alpha  occ. eigenvalues --   -0.30396  -0.29074  -0.25158  -0.22509
 Alpha virt. eigenvalues --    0.07321   0.08611   0.10269   0.10836   0.12106
 Alpha virt. eigenvalues --    0.13590   0.13720   0.14929   0.15572   0.16774
 Alpha virt. eigenvalues --    0.18036   0.18801   0.19682   0.20526   0.22052

 Mulliken charges:
               1
     1  C   -0.435481
     2  C   -0.072259
     3  C   -0.102818
     4  O   -0.274140
     5  C   -0.084200
     6  C    0.064588
     7  C   -0.299048
     8  C    0.429113
     9  O   -0.320526
    10  H    0.123248
    11  H    0.132104
    12  H    0.105690
    13  H    0.102352
    14  H    0.104157
    15  H    0.106363
    16  H    0.110822
    17  H    0.079830
    18  H    0.106871
    19  H    0.123332
 Sum of Mulliken charges =   0.00000

 Dipole moment (field-independent basis, Debye):
    X=             -0.4690    Y=              0.4228    Z=              0.6083  Tot=              0.8767
 Quadrupole moment (field-independent basis, Debye-Ang):
   XX=            -52.3792   YY=            -54.6319   ZZ=            -52.4016
   XY=             -4.6675   XZ=             -1.8456   YZ=             -2.4755

  Exact polarizability:  81.456  -4.918  76.117  -2.082  -1.828  65.923
 Approx polarizability: 114.549  -4.204 110.844  -0.968   0.801 102.313

                      1                      2                      3
                      A                      A                      A
 Frequencies --    151.7369               251.7788               311.5261
 Red. masses --      2.3958                 2.7901                 2.6605
 Frc consts  --      0.0325                 0.1042                 0.1521
 IR Inten    --      2.9892                 7.3699                 1.8481

                      4                      5                      6
                      A                      A                      A
 Frequencies --    344.8460               351.9712               411.4592
 Red. masses --      2.4473                 2.7694                 4.3751
 Frc consts  --      0.1715                 0.2021                 0.4364
 IR Inten    --      1.8250                 2.2960                 1.3952

                      7                      8                      9
                      A                      A                      A
 Frequencies --    466.1846               547.4166               560.5576
 Red. masses --      4.2846                 2.5287                 3.2511
 Frc consts  --      0.5486                 0.4465                 0.6019
 IR Inten    --      0.6350                 3.9649                11.7197

                     10                     11                     12
                      A                      A                      A
 Frequencies --    658.9407               778.4852               808.1353
 Red. masses --      3.4239                 3.1949                 1.9671
 Frc consts  --      0.8759                 1.1408                 0.7569
 IR Inten    --      9.0565                 5.8372                 1.9854

                     13                     14                     15
                      A                      A                      A
 Frequencies --    832.5518               856.9719               864.4350
 Red. masses --      3.1474                 2.3749                 2.2829
 Frc consts  --      1.2853                 1.0276                 1.0051
 IR Inten    --      8.7718                15.9246                11.3676

                     16                     17                     18
                      A                      A                      A
 Frequencies --    887.8504               923.9159               944.0959
 Red. masses --      3.4369                 1.6626                 3.1819
 Frc consts  --      1.5962                 0.8362                 1.6710
 IR Inten    --     44.0439                 1.5472                18.1309

                     19                     20                     21
                      A                      A                      A
 Frequencies --    991.5539              1020.6881              1043.9121
 Red. masses --      2.1924                 1.8302                 2.1676
 Frc consts  --      1.2700                 1.1234                 1.3917
 IR Inten    --     15.1259                 4.2479                35.3691

                     22                     23                     24
                      A                      A                      A
 Frequencies --   1055.8696              1072.3202              1100.1847
 Red. masses --      2.0670                 1.4604                 3.1194
 Frc consts  --      1.3577                 0.9894                 2.2246
 IR Inten    --     13.5322                29.2170                53.7789

                     25                     26                     27
                      A                      A                      A
 Frequencies --   1124.6336              1139.3876              1176.0507
 Red. masses --      1.9705                 1.3714                 2.2217
 Frc consts  --      1.4684                 1.0490                 1.8104
 IR Inten    --     26.1948                 4.1142                13.6693

                     28                     29                     30
                      A                      A                      A
 Frequencies --   1192.8752              1233.0369              1252.6904
 Red. masses --      1.9377                 1.6111                 1.1323
 Frc consts  --      1.6245                 1.4432                 1.0469
 IR Inten    --      8.5011                10.7383                 1.4299

                     31                     32                     33
                      A                      A                      A
 Frequencies --   1271.8562              1311.6515              1327.1416
 Red. masses --      1.3960                 1.3435                 1.3519
 Frc consts  --      1.3305                 1.3619                 1.4029
 IR Inten    --     17.9837                 0.7451                 3.0650

                     34                     35                     36
                      A                      A                      A
 Frequencies --   1351.6118              1384.7847              1393.9176
 Red. masses --      1.4519                 1.3242                 1.3318
 Frc consts  --      1.5628                 1.4962                 1.5246
 IR Inten    --      5.7621                 3.5327                 6.9778

                     37                     38                     39
                      A                      A                      A
 Frequencies --   1427.6790              1476.5342              1481.0779
 Red. masses --      1.3944                 1.1906                 1.1466
 Frc consts  --      1.6745                 1.5293                 1.4819
 IR Inten    --      3.5666                 3.5917                 6.9781

                     40                     41                     42
                      A                      A                      A
 Frequencies --   1500.5420              1513.8638              3006.5098
 Red. masses --      1.8476                 1.0989                 1.0644
 Frc consts  --      2.4511                 1.4839                 5.6686
 IR Inten    --     15.1714                 1.7820                50.7010

                     43                     44                     45
                      A                      A                      A
 Frequencies --   3014.8824              3048.3237              3075.3978
 Red. masses --      1.0594                 1.1062                 1.0923
 Frc consts  --      5.6733                 6.0562                 6.0867
 IR Inten    --     65.1763                28.1886                10.6531

                     46                     47                     48
                      A                      A                      A
 Frequencies --   3082.6302              3095.2780              3121.1795
 Red. masses --      1.0682                 1.0870                 1.0559
 Frc consts  --      5.9805                 6.1356                 6.0605
 IR Inten    --     24.4828                73.2191                 9.6784

                     49                     50                     51
                      A                      A                      A
 Frequencies --   3144.0762              3162.4568              3212.4449
 Red. masses --      1.0868                 1.1060                 1.1148
 Frc consts  --      6.3296                 6.5172                 6.7786
 IR Inten    --      7.0743                13.1507                 4.3903

 - Thermochemistry -
 -------------------
 Temperature   298.150 Kelvin.  Pressure   1.00000 Atm.
 Atom     1 has atomic number  6 and mass  12.00000

 Molecular mass:   126.06808 amu.
 Principal axes and moments of inertia in atomic units:
                           1         2         3
     Eigenvalues --   745.75382 836.691881233.83261
           X            0.97279  -0.23096  -0.01819
           Y            0.23046   0.97273  -0.02602
           Z            0.02371   0.02112   0.99950
 This molecule is an asymmetric top.
 Rotational symmetry number  1.
 Warning -- assumption of classical behavior for rotation
           may cause significant error
 Rotational temperatures (Kelvin)      0.11614     0.10352     0.07020
 Rotational constants (GHZ):           2.42002     2.15700     1.46271
 Zero-point vibrational energy     423238.2 (Joules/Mol)
                                  101.15636 (Kcal/Mol)
 Warning -- explicit consideration of   9 degrees of freedom as
           vibrations may cause significant error
 Vibrational temperatures:    218.32   362.25   448.22   496.16   506.41
          (Kelvin)            592.00   670.73   787.61   806.52   948.07
                             1120.07  1162.72  1197.85  1232.99  1243.73
                             1277.42  1329.31  1358.34  1426.62  1468.54
                             1501.95  1519.16  1542.83  1582.92  1618.09
                             1639.32  1692.07  1716.28  1774.06  1802.34
                             1829.92  1887.17  1909.46  1944.67  1992.39
                             2005.53  2054.11  2124.40  2130.94  2158.94
                             2178.11  4325.69  4337.74  4385.85  4424.81
                             4435.21  4453.41  4490.68  4523.62  4550.06
                             4621.99

 Zero-point correction=                           0.161203 (Hartree/Particle)
 Thermal correction to Energy=                    0.168231
 Thermal correction to Enthalpy=                  0.169175
 Thermal correction to Gibbs Free Energy=         0.130224
 Sum of electronic and zero-point Energies=           -422.960303
 Sum of electronic and thermal Energies=              -422.953275
 Sum of electronic and thermal Enthalpies=            -422.952331
 Sum of electronic and thermal Free Energies=         -422.991282

                     E (Thermal)             CV                S
                      KCal/Mol        Cal/Mol-Kelvin    Cal/Mol-Kelvin
 Total                  105.566             29.298             81.979
 Electronic               0.000              0.000              0.000
 Translational            0.889              2.981             40.409
 Rotational               0.889              2.981             28.134
 Vibrational            103.789             23.336             13.436
 Vibration     1          0.619              1.901              2.650
 Vibration     2          0.664              1.760              1.718
 Vibration     3          0.700              1.652              1.354
 Vibration     4          0.723              1.586              1.190
 Vibration     5          0.729              1.571              1.157
 Vibration     6          0.775              1.445              0.921
 Vibration     7          0.824              1.325              0.748
 Vibration     8          0.903              1.145              0.550
 Vibration     9          0.916              1.117              0.523

 Normal termination of Gaussian 09 at Mon Jan 27 13:54:01 2020.
