 Gaussian 09, Revision D.01,
 Gaussian 09:  ES64L-G09RevD.01 24-Apr-2013

 -----------------------------
 # b3lyp 6-31G(2df,p) opt Freq
 -----------------------------

 -----
 titel
 -----
 Symbolic Z-matrix:
 Charge =  0 Multiplicity = 1

 SCF Done:  E(RB3LYP) =  -423.180808338     A.U. after   14 cycles
 Optimization completed.
    -- Stationary point found.
 Normal termination of Gaussian 09 at Tue Jan 28 12:40:27 2020.

 ----------------------------------------------------------------------
 #N Geom=AllCheck Guess=TCheck SCRF=Check GenChk RB3LYP/6-31G(2df,p) Fr
 eq
 ----------------------------------------------------------------------

 Structure from the checkpoint file:  "/scratch/puck/g09_61c50bbd-bfae-468d-92e5-ef7ffdd41114/Gau-30093.chk"
 -----
 titel
 -----
 Charge =  0 Multiplicity = 1

                         Standard orientation:
 ---------------------------------------------------------------------
 Center     Atomic      Atomic             Coordinates (Angstroms)
 Number     Number       Type             X           Y           Z
 ---------------------------------------------------------------------
      1          8           0       -3.059282   -0.358351   -0.440894
      2          6           0       -2.226352    0.219579    0.563896
      3          6           0       -0.769632    0.212921    0.178755
      4          6           0       -0.069568    1.345902    0.097032
      5          6           0        1.380360    1.445742   -0.287820
      6          6           0        2.080756    0.109580   -0.372507
      7          8           0        2.083124   -0.679004    0.821071
      8          6           0        1.319656   -1.145434   -0.297243
      9          6           0       -0.180968   -1.142438   -0.131746
     10          1           0       -2.951018    0.173540   -1.236635
     11          1           0       -2.547039    1.242122    0.811845
     12          1           0       -2.388738   -0.402315    1.453034
     13          1           0       -0.566309    2.287481    0.324372
     14          1           0        1.472956    1.951726   -1.260646
     15          1           0        1.915082    2.088859    0.425287
     16          1           0        3.033172    0.111477   -0.904085
     17          1           0        1.735370   -2.034260   -0.773574
     18          1           0       -0.643212   -1.541712   -1.044115
     19          1           0       -0.456516   -1.853186    0.660904
 ---------------------------------------------------------------------

 SCF Done:  E(RB3LYP) =  -423.180808338     A.U. after    1 cycles

 The electronic state is 1-A.
 Alpha  occ. eigenvalues --  -19.14303 -19.13621 -10.23531 -10.23452 -10.22816
 Alpha  occ. eigenvalues --  -10.19421 -10.18911 -10.18798 -10.18569  -1.06603
 Alpha  occ. eigenvalues --   -1.01523  -0.82224  -0.76057  -0.71999  -0.66312
 Alpha  occ. eigenvalues --   -0.61895  -0.59679  -0.52315  -0.50435  -0.48812
 Alpha  occ. eigenvalues --   -0.47065  -0.44526  -0.43574  -0.42670  -0.40937
 Alpha  occ. eigenvalues --   -0.39813  -0.38657  -0.35903  -0.34013  -0.32207
 Alpha  occ. eigenvalues --   -0.29286  -0.27135  -0.26217  -0.24505
 Alpha virt. eigenvalues --    0.01528   0.08377   0.10022   0.10136   0.12032
 Alpha virt. eigenvalues --    0.12581   0.13823   0.14443   0.15757   0.17421
 Alpha virt. eigenvalues --    0.18304   0.18678   0.19179   0.20258   0.21859

 Mulliken charges:
               1
     1  O   -0.412737
     2  C   -0.158736
     3  C    0.287213
     4  C   -0.158095
     5  C   -0.289498
     6  C    0.050473
     7  O   -0.259978
     8  C    0.048619
     9  C   -0.318400
    10  H    0.280206
    11  H    0.089945
    12  H    0.113888
    13  H    0.081830
    14  H    0.112403
    15  H    0.121549
    16  H    0.086805
    17  H    0.087284
    18  H    0.119023
    19  H    0.118205
 Sum of Mulliken charges =   0.00000

 Dipole moment (field-independent basis, Debye):
    X=              0.2656    Y=              1.4223    Z=             -1.9118  Tot=              2.3975
 Quadrupole moment (field-independent basis, Debye-Ang):
   XX=            -58.9818   YY=            -50.2951   ZZ=            -52.2571
   XY=             -1.4638   XZ=             -3.1783   YZ=              0.2328

  Exact polarizability:  88.412   8.438  83.812  -4.449   0.247  59.649
 Approx polarizability: 116.247  20.725 130.218  -1.936  -2.053  97.015

                      1                      2                      3
                      A                      A                      A
 Frequencies --     71.8496                96.1254               187.6443
 Red. masses --      3.9495                 2.7556                 3.8644
 Frc consts  --      0.0120                 0.0150                 0.0802
 IR Inten    --      1.6168                 1.9564                 0.4476

                      4                      5                      6
                      A                      A                      A
 Frequencies --    284.5354               319.7197               336.0229
 Red. masses --      2.9340                 1.6814                 2.1852
 Frc consts  --      0.1400                 0.1013                 0.1454
 IR Inten    --      4.0515                53.2269                 4.7515

                      7                      8                      9
                      A                      A                      A
 Frequencies --    362.7855               407.2049               473.4734
 Red. masses --      2.2847                 1.6824                 4.0173
 Frc consts  --      0.1772                 0.1644                 0.5306
 IR Inten    --      6.6546                68.8345                 0.1692

                     10                     11                     12
                      A                      A                      A
 Frequencies --    565.4188               590.3425               725.0200
 Red. masses --      4.9084                 3.4949                 3.6923
 Frc consts  --      0.9245                 0.7176                 1.1435
 IR Inten    --      9.1404                 2.3830                 9.8773

                     13                     14                     15
                      A                      A                      A
 Frequencies --    778.7515               820.3031               841.1915
 Red. masses --      4.5801                 2.4116                 1.7172
 Frc consts  --      1.6365                 0.9561                 0.7159
 IR Inten    --      6.9828                 8.5381                 5.5005

                     16                     17                     18
                      A                      A                      A
 Frequencies --    904.9051               924.3066               940.3599
 Red. masses --      2.4355                 1.9164                 2.6319
 Frc consts  --      1.1750                 0.9647                 1.3712
 IR Inten    --     21.6763                18.3667                 2.3832

                     19                     20                     21
                      A                      A                      A
 Frequencies --    972.3224               996.8057              1037.8026
 Red. masses --      2.6681                 1.7307                 3.5111
 Frc consts  --      1.4862                 1.0132                 2.2280
 IR Inten    --     15.9067                38.3329                47.5517

                     22                     23                     24
                      A                      A                      A
 Frequencies --   1038.9257              1079.1888              1091.0935
 Red. masses --      2.0819                 1.5484                 1.6657
 Frc consts  --      1.3240                 1.0625                 1.1683
 IR Inten    --      6.2789                 5.4381                 3.4346

                     25                     26                     27
                      A                      A                      A
 Frequencies --   1149.8281              1171.7199              1199.4447
 Red. masses --      1.2306                 2.6868                 1.1129
 Frc consts  --      0.9586                 2.1734                 0.9433
 IR Inten    --      0.2412                15.4674                13.5583

                     28                     29                     30
                      A                      A                      A
 Frequencies --   1233.9336              1242.7860              1295.6146
 Red. masses --      1.1774                 1.2334                 1.2614
 Frc consts  --      1.0562                 1.1224                 1.2475
 IR Inten    --      4.6702                 6.9580                 2.4137

                     31                     32                     33
                      A                      A                      A
 Frequencies --   1322.3211              1365.2531              1372.2706
 Red. masses --      1.5265                 1.4484                 1.4215
 Frc consts  --      1.5726                 1.5906                 1.5772
 IR Inten    --      3.7158                 0.6049                 0.4597

                     34                     35                     36
                      A                      A                      A
 Frequencies --   1383.9432              1411.5866              1417.0372
 Red. masses --      2.0547                 1.4795                 1.3136
 Frc consts  --      2.3187                 1.7369                 1.5541
 IR Inten    --      5.7244                26.4746                41.6585

                     37                     38                     39
                      A                      A                      A
 Frequencies --   1463.0059              1464.4291              1485.8673
 Red. masses --      1.1574                 1.0786                 2.6434
 Frc consts  --      1.4596                 1.3629                 3.4385
 IR Inten    --      2.0608                 5.6658                13.2954

                     40                     41                     42
                      A                      A                      A
 Frequencies --   1497.6309              1745.0139              2993.4996
 Red. masses --      1.0918                 7.2382                 1.0640
 Frc consts  --      1.4428                12.9862                 5.6178
 IR Inten    --      1.5830                 2.5962                53.2087

                     43                     44                     45
                      A                      A                      A
 Frequencies --   2999.3696              3008.6391              3025.7729
 Red. masses --      1.0625                 1.0649                 1.0965
 Frc consts  --      5.6318                 5.6796                 5.9147
 IR Inten    --     31.0885                22.6936                18.1928

                     46                     47                     48
                      A                      A                      A
 Frequencies --   3040.5294              3052.2101              3094.5887
 Red. masses --      1.0938                 1.0983                 1.0850
 Frc consts  --      5.9580                 6.0283                 6.1216
 IR Inten    --     10.2071                32.7363                24.1682

                     49                     50                     51
                      A                      A                      A
 Frequencies --   3107.4955              3139.9891              3806.2313
 Red. masses --      1.0917                 1.0886                 1.0661
 Frc consts  --      6.2110                 6.3240                 9.1003
 IR Inten    --     68.0147                21.6478                14.1658

 - Thermochemistry -
 -------------------
 Temperature   298.150 Kelvin.  Pressure   1.00000 Atm.
 Atom     1 has atomic number  8 and mass  15.99491

 Molecular mass:   126.06808 amu.
 Principal axes and moments of inertia in atomic units:
                           1         2         3
     Eigenvalues --   519.112431618.934901915.42904
           X            0.99984   0.00510  -0.01720
           Y           -0.00486   0.99989   0.01416
           Z            0.01727  -0.01407   0.99975
 This molecule is an asymmetric top.
 Rotational symmetry number  1.
 Warning -- assumption of classical behavior for rotation
           may cause significant error
 Rotational temperatures (Kelvin)      0.16685     0.05350     0.04522
 Rotational constants (GHZ):           3.47659     1.11477     0.94221
 Zero-point vibrational energy     420703.4 (Joules/Mol)
                                  100.55052 (Kcal/Mol)
 Warning -- explicit consideration of  11 degrees of freedom as
           vibrations may cause significant error
 Vibrational temperatures:    103.38   138.30   269.98   409.38   460.00
          (Kelvin)            483.46   521.97   585.88   681.22   813.51
                              849.37  1043.14  1120.45  1180.23  1210.29
                             1301.95  1329.87  1352.97  1398.95  1434.18
                             1493.16  1494.78  1552.71  1569.84  1654.34
                             1685.84  1725.73  1775.35  1788.09  1864.10
                             1902.52  1964.29  1974.39  1991.18  2030.96
                             2038.80  2104.94  2106.98  2137.83  2154.75
                             2510.68  4306.97  4315.42  4328.76  4353.41
                             4374.64  4391.44  4452.42  4470.99  4517.74
                             5476.31

 Zero-point correction=                           0.160237 (Hartree/Particle)
 Thermal correction to Energy=                    0.168475
 Thermal correction to Enthalpy=                  0.169419
 Thermal correction to Gibbs Free Energy=         0.127075
 Sum of electronic and zero-point Energies=           -423.020571
 Sum of electronic and thermal Energies=              -423.012334
 Sum of electronic and thermal Enthalpies=            -423.011390
 Sum of electronic and thermal Free Energies=         -423.053733

                     E (Thermal)             CV                S
                      KCal/Mol        Cal/Mol-Kelvin    Cal/Mol-Kelvin
 Total                  105.719             31.504             89.120
 Electronic               0.000              0.000              0.000
 Translational            0.889              2.981             40.409
 Rotational               0.889              2.981             28.867
 Vibrational            103.942             25.543             19.845
 Vibration     1          0.598              1.967              4.102
 Vibration     2          0.603              1.952              3.531
 Vibration     3          0.632              1.857              2.251
 Vibration     4          0.683              1.702              1.506
 Vibration     5          0.706              1.636              1.312
 Vibration     6          0.717              1.604              1.231
 Vibration     7          0.737              1.549              1.110
 Vibration     8          0.772              1.455              0.937
 Vibration     9          0.830              1.309              0.728
 Vibration    10          0.921              1.106              0.513
 Vibration    11          0.948              1.052              0.467

 Normal termination of Gaussian 09 at Tue Jan 28 13:22:25 2020.
