 Gaussian 09, Revision D.01,
 Gaussian 09:  ES64L-G09RevD.01 24-Apr-2013

 -----------------------------
 # b3lyp 6-31G(2df,p) opt Freq
 -----------------------------

 -----
 titel
 -----
 Symbolic Z-matrix:
 Charge =  0 Multiplicity = 1

 SCF Done:  E(RB3LYP) =  -423.168397905     A.U. after   14 cycles
 Optimization completed.
    -- Stationary point found.
 Normal termination of Gaussian 09 at Mon Jan 27 17:28:56 2020.

 ----------------------------------------------------------------------
 #N Geom=AllCheck Guess=TCheck SCRF=Check GenChk RB3LYP/6-31G(2df,p) Fr
 eq
 ----------------------------------------------------------------------

 Structure from the checkpoint file:  "/scratch/puck/g09_90958491-f2a9-4fcc-ace3-2ffb4a42559a/Gau-50309.chk"
 -----
 titel
 -----
 Charge =  0 Multiplicity = 1

                         Standard orientation:
 ---------------------------------------------------------------------
 Center     Atomic      Atomic             Coordinates (Angstroms)
 Number     Number       Type             X           Y           Z
 ---------------------------------------------------------------------
      1          6           0       -2.870564   -0.536083    0.050110
      2          6           0       -1.499386    0.062732    0.162861
      3          6           0       -1.177281    1.481357   -0.201784
      4          6           0       -0.454142    0.362905   -0.915968
      5          6           0        0.672085   -0.240907   -0.050737
      6          8           0        1.153438   -1.448180   -0.569107
      7          6           0       -0.391385   -0.466526    1.092378
      8          6           0        1.836152    0.666406    0.269763
      9          8           0        2.982784    0.312847    0.115688
     10          1           0       -3.464493   -0.338340    0.950862
     11          1           0       -3.414918   -0.115828   -0.801963
     12          1           0       -2.820657   -1.622107   -0.084708
     13          1           0       -1.921635    1.985908   -0.810619
     14          1           0       -0.669033    2.142805    0.495526
     15          1           0       -0.500567    0.226367   -1.989961
     16          1           0        2.121278   -1.372398   -0.543356
     17          1           0       -0.449487   -1.540609    1.275733
     18          1           0       -0.256599    0.061665    2.043169
     19          1           0        1.593453    1.675907    0.652947
 ---------------------------------------------------------------------

 SCF Done:  E(RB3LYP) =  -423.168397905     A.U. after    1 cycles

 The electronic state is 1-A.
 Alpha  occ. eigenvalues --  -19.15745 -19.13393 -10.27826 -10.24976 -10.20726
 Alpha  occ. eigenvalues --  -10.19886 -10.19612 -10.19280 -10.18424  -1.06891
 Alpha  occ. eigenvalues --   -1.01860  -0.90249  -0.74617  -0.72365  -0.67027
 Alpha  occ. eigenvalues --   -0.62430  -0.56224  -0.53233  -0.52320  -0.50432
 Alpha  occ. eigenvalues --   -0.46823  -0.45133  -0.43974  -0.41248  -0.40869
 Alpha  occ. eigenvalues --   -0.40401  -0.38525  -0.35927  -0.35869  -0.33537
 Alpha  occ. eigenvalues --   -0.30280  -0.28693  -0.26469  -0.24720
 Alpha virt. eigenvalues --   -0.03712   0.08166   0.10195   0.10448   0.11554
 Alpha virt. eigenvalues --    0.12040   0.14189   0.14631   0.15211   0.16657
 Alpha virt. eigenvalues --    0.17507   0.18544   0.19325   0.20550   0.22903

 Mulliken charges:
               1
     1  C   -0.500777
     2  C    0.373730
     3  C   -0.346390
     4  C   -0.151139
     5  C    0.341682
     6  O   -0.486455
     7  C   -0.357105
     8  C    0.108770
     9  O   -0.279502
    10  H    0.121557
    11  H    0.119927
    12  H    0.125805
    13  H    0.117379
    14  H    0.104967
    15  H    0.098325
    16  H    0.290857
    17  H    0.129391
    18  H    0.093085
    19  H    0.095892
 Sum of Mulliken charges =   0.00000

 Dipole moment (field-independent basis, Debye):
    X=             -2.1668    Y=              1.3013    Z=              0.5629  Tot=              2.5895
 Quadrupole moment (field-independent basis, Debye-Ang):
   XX=            -58.3835   YY=            -53.7620   ZZ=            -52.0293
   XY=             -0.3437   XZ=              0.7096   YZ=             -0.8488

  Exact polarizability:  93.407  -1.128  72.750  -0.992   0.401  64.589
 Approx polarizability: 128.815  -4.410 109.690  -4.689   2.372 100.368

                      1                      2                      3
                      A                      A                      A
 Frequencies --     83.8944               116.9895               206.3717
 Red. masses --      5.7083                 3.6248                 1.0523
 Frc consts  --      0.0237                 0.0292                 0.0264
 IR Inten    --      0.0859                 0.4113                 0.1374

                      4                      5                      6
                      A                      A                      A
 Frequencies --    232.5702               289.3036               314.8883
 Red. masses --      2.2454                 3.9517                 2.5997
 Frc consts  --      0.0716                 0.1949                 0.1519
 IR Inten    --      1.2822                 8.7581                 5.7394

                      7                      8                      9
                      A                      A                      A
 Frequencies --    344.3017               393.7820               406.7628
 Red. masses --      3.6443                 2.1305                 1.9811
 Frc consts  --      0.2545                 0.1946                 0.1931
 IR Inten    --      7.2185                19.0880                 8.4742

                     10                     11                     12
                      A                      A                      A
 Frequencies --    451.4210               479.5323               501.7812
 Red. masses --      4.3930                 2.5531                 1.3627
 Frc consts  --      0.5274                 0.3459                 0.2022
 IR Inten    --      9.6022                 9.2668                30.1376

                     13                     14                     15
                      A                      A                      A
 Frequencies --    646.1877               768.7781               810.1460
 Red. masses --      2.8690                 3.0057                 3.0290
 Frc consts  --      0.7058                 1.0466                 1.1713
 IR Inten    --      0.9590                 1.8335                11.0784

                     16                     17                     18
                      A                      A                      A
 Frequencies --    839.8069               861.3114               890.6501
 Red. masses --      2.8436                 2.7944                 1.6200
 Frc consts  --      1.1816                 1.2214                 0.7572
 IR Inten    --     23.9182                 6.4857                13.9220

                     19                     20                     21
                      A                      A                      A
 Frequencies --    942.2697               955.4183               996.9392
 Red. masses --      2.2201                 1.3553                 1.4854
 Frc consts  --      1.1614                 0.7289                 0.8698
 IR Inten    --      2.3818                10.1918                 0.6660

                     22                     23                     24
                      A                      A                      A
 Frequencies --   1016.0894              1044.6337              1060.6120
 Red. masses --      1.4540                 1.7082                 1.9471
 Frc consts  --      0.8845                 1.0983                 1.2905
 IR Inten    --      0.0649                 2.4783                46.3699

                     25                     26                     27
                      A                      A                      A
 Frequencies --   1081.3327              1090.6173              1103.8354
 Red. masses --      1.4760                 1.8455                 2.1612
 Frc consts  --      1.0168                 1.2934                 1.5515
 IR Inten    --     25.2190                 5.1888                 1.5068

                     28                     29                     30
                      A                      A                      A
 Frequencies --   1158.2953              1224.5641              1232.6286
 Red. masses --      1.8943                 1.7669                 1.4605
 Frc consts  --      1.4974                 1.5611                 1.3074
 IR Inten    --      2.1182                 9.9583                 6.0737

                     31                     32                     33
                      A                      A                      A
 Frequencies --   1278.0529              1289.2240              1389.7030
 Red. masses --      3.1533                 3.3791                 1.2668
 Frc consts  --      3.0347                 3.3091                 1.4414
 IR Inten    --     33.3791                 7.7815                78.4974

                     34                     35                     36
                      A                      A                      A
 Frequencies --   1390.1814              1424.0325              1448.3931
 Red. masses --      1.6358                 1.5200                 1.4583
 Frc consts  --      1.8626                 1.8160                 1.8025
 IR Inten    --     10.8167                 2.7931                32.2797

                     37                     38                     39
                      A                      A                      A
 Frequencies --   1468.4826              1485.6956              1497.7773
 Red. masses --      1.1181                 1.0482                 1.0531
 Frc consts  --      1.4206                 1.3632                 1.3919
 IR Inten    --      2.3743                 3.4650                 4.5863

                     40                     41                     42
                      A                      A                      A
 Frequencies --   1508.3811              1799.3352              2954.5096
 Red. masses --      1.3704                10.3423                 1.0855
 Frc consts  --      1.8370                19.7285                 5.5826
 IR Inten    --      1.1085               181.3736                55.5136

                     43                     44                     45
                      A                      A                      A
 Frequencies --   3021.9825              3037.7355              3082.1851
 Red. masses --      1.0364                 1.0644                 1.0996
 Frc consts  --      5.5767                 5.7871                 6.1545
 IR Inten    --     35.4125                37.3915                21.0746

                     46                     47                     48
                      A                      A                      A
 Frequencies --   3098.5071              3109.3730              3126.9846
 Red. masses --      1.1008                 1.0566                 1.1004
 Frc consts  --      6.2268                 6.0185                 6.3396
 IR Inten    --     18.5210                20.3978                 9.3249

                     49                     50                     51
                      A                      A                      A
 Frequencies --   3184.4172              3194.7117              3676.2038
 Red. masses --      1.0980                 1.1079                 1.0647
 Frc consts  --      6.5602                 6.6620                 8.4776
 IR Inten    --      4.1456                16.5352                85.3341

 - Thermochemistry -
 -------------------
 Temperature   298.150 Kelvin.  Pressure   1.00000 Atm.
 Atom     1 has atomic number  6 and mass  12.00000

 Molecular mass:   126.06808 amu.
 Principal axes and moments of inertia in atomic units:
                           1         2         3
     Eigenvalues --   493.721031584.543331760.22485
           X            0.99999   0.00370   0.00162
           Y           -0.00367   0.99976  -0.02164
           Z           -0.00170   0.02163   0.99976
 This molecule is an asymmetric top.
 Rotational symmetry number  1.
 Warning -- assumption of classical behavior for rotation
           may cause significant error
 Rotational temperatures (Kelvin)      0.17543     0.05466     0.04921
 Rotational constants (GHZ):           3.65539     1.13897     1.02529
 Zero-point vibrational energy     412780.9 (Joules/Mol)
                                   98.65701 (Kcal/Mol)
 Warning -- explicit consideration of  12 degrees of freedom as
           vibrations may cause significant error
 Vibrational temperatures:    120.71   168.32   296.92   334.62   416.24
          (Kelvin)            453.05   495.37   566.56   585.24   649.49
                              689.94   721.95   929.72  1106.10  1165.62
                             1208.29  1239.23  1281.45  1355.71  1374.63
                             1434.37  1461.92  1502.99  1525.98  1555.79
                             1569.15  1588.17  1666.53  1761.87  1773.48
                             1838.83  1854.90  1999.47  2000.16  2048.86
                             2083.91  2112.82  2137.58  2154.96  2170.22
                             2588.84  4250.87  4347.95  4370.62  4434.57
                             4458.06  4473.69  4499.03  4581.66  4596.47
                             5289.23

 Zero-point correction=                           0.157220 (Hartree/Particle)
 Thermal correction to Energy=                    0.166038
 Thermal correction to Enthalpy=                  0.166983
 Thermal correction to Gibbs Free Energy=         0.124010
 Sum of electronic and zero-point Energies=           -423.011178
 Sum of electronic and thermal Energies=              -423.002359
 Sum of electronic and thermal Enthalpies=            -423.001415
 Sum of electronic and thermal Free Energies=         -423.044388

                     E (Thermal)             CV                S
                      KCal/Mol        Cal/Mol-Kelvin    Cal/Mol-Kelvin
 Total                  104.191             33.957             90.443
 Electronic               0.000              0.000              0.000
 Translational            0.889              2.981             40.409
 Rotational               0.889              2.981             28.712
 Vibrational            102.413             27.995             21.323
 Vibration     1          0.601              1.960              3.798
 Vibration     2          0.608              1.935              3.150
 Vibration     3          0.641              1.831              2.076
 Vibration     4          0.653              1.791              1.859
 Vibration     5          0.686              1.694              1.478
 Vibration     6          0.702              1.645              1.337
 Vibration     7          0.723              1.587              1.192
 Vibration     8          0.761              1.483              0.986
 Vibration     9          0.772              1.456              0.938
 Vibration    10          0.810              1.358              0.791
 Vibration    11          0.836              1.295              0.711
 Vibration    12          0.857              1.246              0.654

 Optimization completed.
    -- Stationary point found.
 Normal termination of Gaussian 09 at Mon Jan 27 18:11:01 2020.
