 Gaussian 09, Revision D.01,
 Gaussian 09:  ES64L-G09RevD.01 24-Apr-2013

 -----------------------------
 # b3lyp 6-31G(2df,p) opt Freq
 -----------------------------

 -----
 titel
 -----
 Symbolic Z-matrix:
 Charge =  0 Multiplicity = 1

 SCF Done:  E(RB3LYP) =  -423.112694990     A.U. after   14 cycles
 Optimization completed.
    -- Stationary point found.
 Normal termination of Gaussian 09 at Tue Jan 28 02:20:19 2020.

 ----------------------------------------------------------------------
 #N Geom=AllCheck Guess=TCheck SCRF=Check GenChk RB3LYP/6-31G(2df,p) Fr
 eq
 ----------------------------------------------------------------------

 Structure from the checkpoint file:  "/scratch/puck/g09_8eb02333-060f-4613-b9ef-ef7ca29b35da/Gau-4994.chk"
 -----
 titel
 -----
 Charge =  0 Multiplicity = 1

                         Standard orientation:
 ---------------------------------------------------------------------
 Center     Atomic      Atomic             Coordinates (Angstroms)
 Number     Number       Type             X           Y           Z
 ---------------------------------------------------------------------
      1          8           0       -2.922253    1.504306    0.083424
      2          6           0       -2.217790    0.426821   -0.456762
      3          6           0       -2.631989   -0.994586   -0.126461
      4          6           0       -1.405749   -0.395551    0.499469
      5          8           0       -0.179636   -0.912723    0.094522
      6          6           0        0.891845    0.000769    0.254739
      7          6           0        2.163792   -0.702229   -0.230282
      8          6           0        3.342512    0.144157   -0.107118
      9          6           0        4.298253    0.863835    0.005976
     10          1           0       -3.782208    1.545071   -0.348271
     11          1           0       -1.782546    0.587067   -1.443377
     12          1           0       -3.496820   -1.135080    0.512389
     13          1           0       -2.480697   -1.751383   -0.887938
     14          1           0       -1.467317   -0.105706    1.549254
     15          1           0        0.714373    0.916887   -0.326159
     16          1           0        0.999351    0.292636    1.310140
     17          1           0        2.295162   -1.625451    0.346413
     18          1           0        2.019890   -1.005620   -1.274138
     19          1           0        5.150678    1.489615    0.100747
 ---------------------------------------------------------------------

 SCF Done:  E(RB3LYP) =  -423.112694990     A.U. after    1 cycles

 The electronic state is 1-A.
 Alpha  occ. eigenvalues --  -19.14924 -19.14550 -10.23509 -10.23482 -10.23468
 Alpha  occ. eigenvalues --  -10.20774 -10.18618 -10.18114 -10.17002  -1.04751
 Alpha  occ. eigenvalues --   -1.02785  -0.84419  -0.79287  -0.71861  -0.64146
 Alpha  occ. eigenvalues --   -0.61168  -0.58755  -0.53763  -0.52366  -0.50394
 Alpha  occ. eigenvalues --   -0.48127  -0.46000  -0.44576  -0.42892  -0.41416
 Alpha  occ. eigenvalues --   -0.39463  -0.37394  -0.35363  -0.32617  -0.30176
 Alpha  occ. eigenvalues --   -0.26729  -0.26353  -0.26130  -0.24687
 Alpha virt. eigenvalues --    0.05400   0.05966   0.07781   0.09821   0.10953
 Alpha virt. eigenvalues --    0.12677   0.13040   0.13304   0.14516   0.15401
 Alpha virt. eigenvalues --    0.16555   0.18137   0.18398   0.21405   0.24133

 Mulliken charges:
               1
     1  O   -0.419770
     2  C    0.065240
     3  C   -0.350706
     4  C    0.108266
     5  O   -0.246334
     6  C   -0.057036
     7  C   -0.350610
     8  C    0.287528
     9  C   -0.447967
    10  H    0.289233
    11  H    0.092683
    12  H    0.117443
    13  H    0.124647
    14  H    0.097609
    15  H    0.109304
    16  H    0.105066
    17  H    0.140740
    18  H    0.138311
    19  H    0.196351
 Sum of Mulliken charges =   0.00000

 Dipole moment (field-independent basis, Debye):
    X=             -1.3228    Y=             -0.0605    Z=             -0.6632  Tot=              1.4810
 Quadrupole moment (field-independent basis, Debye-Ang):
   XX=            -44.7746   YY=            -55.1935   ZZ=            -52.1828
   XY=              2.0099   XZ=              3.0314   YZ=             -0.9439

  Exact polarizability: 106.225  11.262  71.252   1.803   1.626  59.810
 Approx polarizability: 131.082  21.224 110.558   4.225   3.785  90.044

                      1                      2                      3
                      A                      A                      A
 Frequencies --     47.7702                55.9791                82.8221
 Red. masses --      3.9765                 2.2476                 4.0887
 Frc consts  --      0.0053                 0.0041                 0.0165
 IR Inten    --      0.7036                 0.0362                 0.2597

                      4                      5                      6
                      A                      A                      A
 Frequencies --    135.5942               176.9738               286.9517
 Red. masses --      2.9088                 4.0670                 2.4303
 Frc consts  --      0.0315                 0.0750                 0.1179
 IR Inten    --      4.5822                 0.9990                17.1402

                      7                      8                      9
                      A                      A                      A
 Frequencies --    300.4721               321.1885               353.6020
 Red. masses --      2.7563                 1.7536                 3.2080
 Frc consts  --      0.1466                 0.1066                 0.2363
 IR Inten    --      7.2361                70.0784                 6.7385

                     10                     11                     12
                      A                      A                      A
 Frequencies --    372.2481               448.3492               498.9278
 Red. masses --      3.3912                 2.5394                 4.1120
 Frc consts  --      0.2769                 0.3008                 0.6031
 IR Inten    --     21.0260                 2.8355                 5.2995

                     13                     14                     15
                      A                      A                      A
 Frequencies --    538.5772               623.0972               648.2160
 Red. masses --      3.9979                 1.2064                 1.2292
 Frc consts  --      0.6833                 0.2760                 0.3043
 IR Inten    --      4.7502                44.6043                41.8183

                     16                     17                     18
                      A                      A                      A
 Frequencies --    794.5103               810.4615               850.6466
 Red. masses --      1.1715                 1.8081                 1.8386
 Frc consts  --      0.4357                 0.6998                 0.7838
 IR Inten    --      0.4597                10.9211                 3.1691

                     19                     20                     21
                      A                      A                      A
 Frequencies --    917.3391               965.0444               986.4881
 Red. masses --      2.7893                 3.5875                 3.0992
 Frc consts  --      1.3830                 1.9685                 1.7770
 IR Inten    --     21.4765                 4.9753                 1.1619

                     22                     23                     24
                      A                      A                      A
 Frequencies --   1025.7085              1059.8682              1080.9357
 Red. masses --      1.4873                 2.3667                 2.2712
 Frc consts  --      0.9219                 1.5664                 1.5635
 IR Inten    --     16.7775                20.9387                23.1712

                     25                     26                     27
                      A                      A                      A
 Frequencies --   1088.6089              1095.8067              1116.8916
 Red. masses --      1.5446                 1.5559                 1.9833
 Frc consts  --      1.0785                 1.1008                 1.4577
 IR Inten    --      1.6254                13.5999                87.9914

                     28                     29                     30
                      A                      A                      A
 Frequencies --   1179.9830              1198.4561              1225.5370
 Red. masses --      2.6208                 2.8026                 1.2641
 Frc consts  --      2.1500                 2.3717                 1.1186
 IR Inten    --     16.2442               137.4484                13.3093

                     31                     32                     33
                      A                      A                      A
 Frequencies --   1232.3313              1289.8573              1298.3343
 Red. masses --      1.7212                 1.1715                 1.0863
 Frc consts  --      1.5400                 1.1484                 1.0788
 IR Inten    --     44.7131                62.9101                 0.5111

                     34                     35                     36
                      A                      A                      A
 Frequencies --   1304.7872              1349.7069              1408.6178
 Red. masses --      1.4216                 1.3184                 1.3795
 Frc consts  --      1.4260                 1.4151                 1.6127
 IR Inten    --     14.9190                51.3093                13.3662

                     37                     38                     39
                      A                      A                      A
 Frequencies --   1429.2139              1476.5121              1491.7700
 Red. masses --      1.2576                 1.0862                 1.8563
 Frc consts  --      1.5135                 1.3952                 2.4339
 IR Inten    --      3.7717                 2.1802                21.0273

                     40                     41                     42
                      A                      A                      A
 Frequencies --   1524.8368              2242.3421              2990.8661
 Red. masses --      1.1119                 5.9287                 1.0559
 Frc consts  --      1.5232                17.5637                 5.5648
 IR Inten    --      2.7978                 3.2119                27.2285

                     43                     44                     45
                      A                      A                      A
 Frequencies --   3027.2440              3034.7815              3073.0358
 Red. masses --      1.1048                 1.0581                 1.1034
 Frc consts  --      5.9654                 5.7417                 6.1390
 IR Inten    --     25.2152                16.5306                18.8449

                     46                     47                     48
                      A                      A                      A
 Frequencies --   3098.8206              3103.5500              3138.3485
 Red. masses --      1.0885                 1.0858                 1.0547
 Frc consts  --      6.1584                 6.1617                 6.1205
 IR Inten    --      2.6669                48.4366                 5.5285

                     49                     50                     51
                      A                      A                      A
 Frequencies --   3233.0092              3507.5470              3800.8845
 Red. masses --      1.1174                 1.1625                 1.0662
 Frc consts  --      6.8815                 8.4262                 9.0756
 IR Inten    --      5.2652                68.3673                19.3916

 - Thermochemistry -
 -------------------
 Temperature   298.150 Kelvin.  Pressure   1.00000 Atm.
 Atom     1 has atomic number  8 and mass  15.99491

 Molecular mass:   126.06808 amu.
 Principal axes and moments of inertia in atomic units:
                           1         2         3
     Eigenvalues --   397.619462918.486313196.16719
           X            0.99998   0.00621   0.00237
           Y           -0.00622   0.99997   0.00498
           Z           -0.00234  -0.00500   0.99998
 This molecule is an asymmetric top.
 Rotational symmetry number  1.
 Rotational temperatures (Kelvin)      0.21783     0.02968     0.02710
 Rotational constants (GHZ):           4.53887     0.61838     0.56466
 Zero-point vibrational energy     408784.6 (Joules/Mol)
                                   97.70187 (Kcal/Mol)
 Warning -- explicit consideration of  13 degrees of freedom as
           vibrations may cause significant error
 Vibrational temperatures:     68.73    80.54   119.16   195.09   254.63
          (Kelvin)            412.86   432.31   462.12   508.75   535.58
                              645.07   717.84   774.89   896.50   932.64
                             1143.12  1166.07  1223.89  1319.84  1388.48
                             1419.33  1475.76  1524.91  1555.22  1566.26
                             1576.62  1606.96  1697.73  1724.31  1763.27
                             1773.05  1855.81  1868.01  1877.30  1941.92
                             2026.68  2056.32  2124.37  2146.32  2193.90
                             3226.23  4303.18  4355.52  4366.37  4421.41
                             4458.51  4465.31  4515.38  4651.57  5046.57
                             5468.62

 Zero-point correction=                           0.155698 (Hartree/Particle)
 Thermal correction to Energy=                    0.165795
 Thermal correction to Enthalpy=                  0.166739
 Thermal correction to Gibbs Free Energy=         0.119433
 Sum of electronic and zero-point Energies=           -422.956997
 Sum of electronic and thermal Energies=              -422.946900
 Sum of electronic and thermal Enthalpies=            -422.945956
 Sum of electronic and thermal Free Energies=         -422.993262

                     E (Thermal)             CV                S
                      KCal/Mol        Cal/Mol-Kelvin    Cal/Mol-Kelvin
 Total                  104.038             36.217             99.564
 Electronic               0.000              0.000              0.000
 Translational            0.889              2.981             40.409
 Rotational               0.889              2.981             29.696
 Vibrational            102.261             30.255             29.460
 Vibration     1          0.595              1.978              4.908
 Vibration     2          0.596              1.975              4.594
 Vibration     3          0.600              1.961              3.823
 Vibration     4          0.613              1.918              2.865
 Vibration     5          0.628              1.871              2.360
 Vibration     6          0.684              1.698              1.492
 Vibration     7          0.693              1.673              1.414
 Vibration     8          0.707              1.633              1.304
 Vibration     9          0.730              1.568              1.150
 Vibration    10          0.744              1.529              1.071
 Vibration    11          0.807              1.365              0.801
 Vibration    12          0.854              1.252              0.661
 Vibration    13          0.894              1.165              0.568

 Optimization completed.
    -- Stationary point found.
 Normal termination of Gaussian 09 at Tue Jan 28 02:52:31 2020.
