 Gaussian 09, Revision D.01,
 Gaussian 09:  ES64L-G09RevD.01 24-Apr-2013

 -----------------------------
 # b3lyp 6-31G(2df,p) opt Freq
 -----------------------------

 -----
 titel
 -----
 Symbolic Z-matrix:
 Charge =  0 Multiplicity = 1

 SCF Done:  E(RB3LYP) =  -423.137049769     A.U. after   15 cycles
 Optimization completed.
    -- Stationary point found.
 Normal termination of Gaussian 09 at Tue Jan 28 08:22:07 2020.

 ----------------------------------------------------------------------
 #N Geom=AllCheck Guess=TCheck SCRF=Check GenChk RB3LYP/6-31G(2df,p) Fr
 eq
 ----------------------------------------------------------------------

 Structure from the checkpoint file:  "/scratch/puck/g09_e5267c28-b1ed-4954-90b5-9d2149b2f285/Gau-106668.chk"
 -----
 titel
 -----
 Charge =  0 Multiplicity = 1

                         Standard orientation:
 ---------------------------------------------------------------------
 Center     Atomic      Atomic             Coordinates (Angstroms)
 Number     Number       Type             X           Y           Z
 ---------------------------------------------------------------------
      1          6           0        2.171723   -0.645897   -0.913430
      2          6           0        0.698497   -0.439350   -1.273049
      3          6           0       -0.142335    0.134732   -0.095470
      4          8           0        0.022729   -0.583474    1.105491
      5          6           0       -0.506758   -1.896854    1.129111
      6          6           0        0.355047    1.573788    0.176849
      7          8           0        0.847383    1.946333    1.200899
      8          6           0       -1.551287    0.260759   -0.500261
      9          6           0       -2.696128    0.398713   -0.841525
     10          1           0        2.712763   -1.070497   -1.763719
     11          1           0        2.658202    0.296162   -0.641993
     12          1           0        2.278592   -1.323418   -0.063128
     13          1           0        0.596248    0.245233   -2.122900
     14          1           0        0.240692   -1.381051   -1.591767
     15          1           0        0.015690   -2.571172    0.436671
     16          1           0       -0.361680   -2.262198    2.147828
     17          1           0       -1.577979   -1.907162    0.891820
     18          1           0        0.214766    2.241449   -0.701967
     19          1           0       -3.710741    0.514441   -1.135322
 ---------------------------------------------------------------------

 SCF Done:  E(RB3LYP) =  -423.137049769     A.U. after    1 cycles

 The electronic state is 1-A.
 Alpha  occ. eigenvalues --  -19.15295 -19.14719 -10.27601 -10.27287 -10.22873
 Alpha  occ. eigenvalues --  -10.20186 -10.19671 -10.19302 -10.18251  -1.06366
 Alpha  occ. eigenvalues --   -1.03953  -0.82062  -0.76087  -0.72609  -0.67610
 Alpha  occ. eigenvalues --   -0.62571  -0.58598  -0.54563  -0.50965  -0.49426
 Alpha  occ. eigenvalues --   -0.48110  -0.45372  -0.43981  -0.42382  -0.41082
 Alpha  occ. eigenvalues --   -0.39237  -0.37931  -0.37132  -0.35640  -0.32800
 Alpha  occ. eigenvalues --   -0.29590  -0.28635  -0.27273  -0.25052
 Alpha virt. eigenvalues --   -0.02986   0.02582   0.05172   0.08323   0.10955
 Alpha virt. eigenvalues --    0.11511   0.13185   0.14565   0.15016   0.15572
 Alpha virt. eigenvalues --    0.16373   0.17443   0.18350   0.20088   0.21630

 Mulliken charges:
               1
     1  C   -0.401801
     2  C   -0.224129
     3  C    0.088520
     4  O   -0.250937
     5  C   -0.251048
     6  C    0.148304
     7  O   -0.238754
     8  C    0.302854
     9  C   -0.456960
    10  H    0.116093
    11  H    0.132866
    12  H    0.138894
    13  H    0.114767
    14  H    0.116844
    15  H    0.108895
    16  H    0.136371
    17  H    0.123131
    18  H    0.090582
    19  H    0.205508
 Sum of Mulliken charges =   0.00000

 Dipole moment (field-independent basis, Debye):
    X=             -1.2070    Y=             -1.8316    Z=             -2.6379  Tot=              3.4308
 Quadrupole moment (field-independent basis, Debye-Ang):
   XX=            -48.7705   YY=            -53.1884   ZZ=            -55.7410
   XY=             -1.9728   XZ=             -1.3638   YZ=             -4.9631

  Exact polarizability:  91.938  -1.392  72.859   6.638  -2.710  70.517
 Approx polarizability: 136.362  -0.484 100.484  19.745   0.491 109.987

                      1                      2                      3
                      A                      A                      A
 Frequencies --     77.8087                93.8379               110.5778
 Red. masses --      5.8567                 2.2968                 1.7989
 Frc consts  --      0.0209                 0.0119                 0.0130
 IR Inten    --      2.2681                 1.5397                 0.9824

                      4                      5                      6
                      A                      A                      A
 Frequencies --    134.8807               158.1332               196.2293
 Red. masses --      3.5619                 2.1393                 1.1272
 Frc consts  --      0.0382                 0.0315                 0.0256
 IR Inten    --      0.7495                 1.1524                 0.0726

                      7                      8                      9
                      A                      A                      A
 Frequencies --    214.1176               228.9316               277.2541
 Red. masses --      5.0249                 1.6637                 3.1028
 Frc consts  --      0.1357                 0.0514                 0.1405
 IR Inten    --      3.4865                 7.8133                 1.6667

                     10                     11                     12
                      A                      A                      A
 Frequencies --    329.2681               387.5110               461.1253
 Red. masses --      2.2878                 3.5959                 4.1517
 Frc consts  --      0.1461                 0.3181                 0.5201
 IR Inten    --      4.5180                 6.9073                 0.2599

                     13                     14                     15
                      A                      A                      A
 Frequencies --    486.0289               553.8090               620.2266
 Red. masses --      6.5719                 5.4663                 2.5016
 Frc consts  --      0.9147                 0.9878                 0.5670
 IR Inten    --      3.8048                 8.6206                 4.7927

                     16                     17                     18
                      A                      A                      A
 Frequencies --    627.9656               681.8797               738.6561
 Red. masses --      1.4448                 1.2528                 4.6464
 Frc consts  --      0.3357                 0.3432                 1.4936
 IR Inten    --     47.7813                33.1773                20.0351

                     19                     20                     21
                      A                      A                      A
 Frequencies --    775.7665               910.3122               978.1470
 Red. masses --      1.3096                 2.0147                 2.0869
 Frc consts  --      0.4644                 0.9836                 1.1764
 IR Inten    --     16.9168                 5.2553                 4.2245

                     22                     23                     24
                      A                      A                      A
 Frequencies --    982.0514              1041.2813              1087.7289
 Red. masses --      1.9758                 3.2035                 3.5078
 Frc consts  --      1.1227                 2.0465                 2.4453
 IR Inten    --     19.6373                11.7093                28.1658

                     25                     26                     27
                      A                      A                      A
 Frequencies --   1121.0035              1146.9344              1182.9489
 Red. masses --      3.9512                 2.5044                 1.2832
 Frc consts  --      2.9254                 1.9411                 1.0579
 IR Inten    --     78.1081                28.4886                 2.4835

                     28                     29                     30
                      A                      A                      A
 Frequencies --   1200.1603              1228.8856              1305.8325
 Red. masses --      2.9321                 1.5826                 1.2932
 Frc consts  --      2.4883                 1.4081                 1.2993
 IR Inten    --     51.7371                 6.3167                 5.3363

                     31                     32                     33
                      A                      A                      A
 Frequencies --   1348.1205              1411.2113              1418.1346
 Red. masses --      1.4288                 1.1871                 1.2234
 Frc consts  --      1.5299                 1.3929                 1.4496
 IR Inten    --      1.4540                10.3101                 2.7203

                     34                     35                     36
                      A                      A                      A
 Frequencies --   1472.1629              1482.4470              1495.8855
 Red. masses --      1.1243                 1.0673                 1.0383
 Frc consts  --      1.4356                 1.3819                 1.3688
 IR Inten    --      0.7964                 2.2591                 4.1839

                     37                     38                     39
                      A                      A                      A
 Frequencies --   1499.7201              1504.0111              1511.2253
 Red. masses --      1.0474                 1.0794                 1.0526
 Frc consts  --      1.3880                 1.4386                 1.4164
 IR Inten    --      0.8891                10.4401                 3.3479

                     40                     41                     42
                      A                      A                      A
 Frequencies --   1857.5746              2221.7531              2887.9313
 Red. masses --     10.8411                 5.9024                 1.0844
 Frc consts  --     22.0402                17.1662                 5.3287
 IR Inten    --    164.6932                 2.4323                83.6763

                     43                     44                     45
                      A                      A                      A
 Frequencies --   3002.2583              3046.3026              3047.9850
 Red. masses --      1.0364                 1.0614                 1.0365
 Frc consts  --      5.5040                 5.8034                 5.6736
 IR Inten    --     41.9830                17.2895                16.0916

                     46                     47                     48
                      A                      A                      A
 Frequencies --   3061.4957              3081.4178              3114.6735
 Red. masses --      1.1010                 1.1005                 1.1015
 Frc consts  --      6.0802                 6.1567                 6.2957
 IR Inten    --     38.7398                 9.6496                25.6560

                     49                     50                     51
                      A                      A                      A
 Frequencies --   3126.0207              3130.1681              3497.1825
 Red. masses --      1.0991                 1.1011                 1.1620
 Frc consts  --      6.3282                 6.3562                 8.3735
 IR Inten    --     23.0955                17.0517                69.3685

 - Thermochemistry -
 -------------------
 Temperature   298.150 Kelvin.  Pressure   1.00000 Atm.
 Atom     1 has atomic number  6 and mass  12.00000

 Molecular mass:   126.06808 amu.
 Principal axes and moments of inertia in atomic units:
                           1         2         3
     Eigenvalues --  1040.319831244.399641453.87998
           X            0.99645  -0.06549  -0.05292
           Y            0.05993   0.99312  -0.10062
           Z            0.05915   0.09710   0.99352
 This molecule is an asymmetric top.
 Rotational symmetry number  1.
 Warning -- assumption of classical behavior for rotation
           may cause significant error
 Rotational temperatures (Kelvin)      0.08326     0.06960     0.05957
 Rotational constants (GHZ):           1.73479     1.45029     1.24133
 Zero-point vibrational energy     404080.4 (Joules/Mol)
                                   96.57754 (Kcal/Mol)
 Warning -- explicit consideration of  15 degrees of freedom as
           vibrations may cause significant error
 Vibrational temperatures:    111.95   135.01   159.10   194.06   227.52
          (Kelvin)            282.33   308.07   329.38   398.91   473.74
                              557.54   663.46   699.29   796.81   892.37
                              903.50   981.07  1062.76  1116.15  1309.73
                             1407.33  1412.95  1498.17  1565.00  1612.87
                             1650.18  1702.00  1726.76  1768.09  1878.80
                             1939.64  2030.42  2040.38  2118.11  2132.91
                             2152.24  2157.76  2163.93  2174.31  2672.63
                             3196.60  4155.08  4319.57  4382.94  4385.37
                             4404.80  4433.47  4481.31  4497.64  4503.61
                             5031.66

 Zero-point correction=                           0.153906 (Hartree/Particle)
 Thermal correction to Energy=                    0.164678
 Thermal correction to Enthalpy=                  0.165622
 Thermal correction to Gibbs Free Energy=         0.118084
 Sum of electronic and zero-point Energies=           -422.983144
 Sum of electronic and thermal Energies=              -422.972372
 Sum of electronic and thermal Enthalpies=            -422.971428
 Sum of electronic and thermal Free Energies=         -423.018966

                     E (Thermal)             CV                S
                      KCal/Mol        Cal/Mol-Kelvin    Cal/Mol-Kelvin
 Total                  103.337             37.928            100.052
 Electronic               0.000              0.000              0.000
 Translational            0.889              2.981             40.409
 Rotational               0.889              2.981             29.022
 Vibrational            101.560             31.966             30.621
 Vibration     1          0.599              1.964              3.945
 Vibration     2          0.603              1.954              3.578
 Vibration     3          0.606              1.941              3.259
 Vibration     4          0.613              1.919              2.875
 Vibration     5          0.621              1.894              2.572
 Vibration     6          0.636              1.845              2.168
 Vibration     7          0.644              1.819              2.008
 Vibration     8          0.652              1.797              1.887
 Vibration     9          0.678              1.716              1.551
 Vibration    10          0.712              1.617              1.264
 Vibration    11          0.756              1.497              1.010
 Vibration    12          0.819              1.336              0.763
 Vibration    13          0.842              1.281              0.694
 Vibration    14          0.909              1.131              0.536
 Vibration    15          0.980              0.989              0.416

 Optimization completed.
    -- Stationary point found.
 Normal termination of Gaussian 09 at Tue Jan 28 09:08:16 2020.
