 Gaussian 09, Revision D.01,
 Gaussian 09:  ES64L-G09RevD.01 24-Apr-2013

 -----------------------------
 # b3lyp 6-31G(2df,p) opt Freq
 -----------------------------

 -----
 titel
 -----
 Symbolic Z-matrix:
 Charge =  0 Multiplicity = 1

 SCF Done:  E(RB3LYP) =  -423.152528982     A.U. after   14 cycles
 Optimization completed.
    -- Stationary point found.
 Normal termination of Gaussian 09 at Tue Jan 28 08:22:23 2020.

 ----------------------------------------------------------------------
 #N Geom=AllCheck Guess=TCheck SCRF=Check GenChk RB3LYP/6-31G(2df,p) Fr
 eq
 ----------------------------------------------------------------------

 Structure from the checkpoint file:  "/scratch/puck/g09_ebf841c0-b68c-4ea7-84ed-4575d6ea727e/Gau-60359.chk"
 -----
 titel
 -----
 Charge =  0 Multiplicity = 1

                         Standard orientation:
 ---------------------------------------------------------------------
 Center     Atomic      Atomic             Coordinates (Angstroms)
 Number     Number       Type             X           Y           Z
 ---------------------------------------------------------------------
      1          6           0        1.753649    0.117039    1.211156
      2          6           0        0.501257    0.146207    0.308146
      3          6           0        0.765808   -0.575829   -1.016120
      4          8           0        1.117022   -1.920946   -0.713995
      5          6           0       -0.684295   -0.508873    1.075799
      6          6           0       -1.960340   -0.413126    0.376904
      7          6           0       -3.002340   -0.312316   -0.214198
      8          6           0        0.167937    1.607586    0.045578
      9          8           0        0.285590    2.167906   -1.012991
     10          1           0        2.010498   -0.916800    1.452080
     11          1           0        2.608779    0.570987    0.701431
     12          1           0        1.583523    0.662542    2.145252
     13          1           0       -0.135098   -0.526162   -1.641455
     14          1           0        1.572386   -0.058493   -1.552465
     15          1           0        1.199492   -2.401646   -1.541988
     16          1           0       -0.427781   -1.559896    1.243417
     17          1           0       -0.774075   -0.040690    2.064257
     18          1           0       -3.926993   -0.227246   -0.729342
     19          1           0       -0.181679    2.157604    0.951106
 ---------------------------------------------------------------------

 SCF Done:  E(RB3LYP) =  -423.152528982     A.U. after    1 cycles

 The electronic state is 1-A.
 Alpha  occ. eigenvalues --  -19.14284 -19.14230 -10.27144 -10.22844 -10.21446
 Alpha  occ. eigenvalues --  -10.21218 -10.18851 -10.18534 -10.17533  -1.05040
 Alpha  occ. eigenvalues --   -1.02254  -0.83719  -0.76058  -0.69676  -0.68820
 Alpha  occ. eigenvalues --   -0.64110  -0.54775  -0.53110  -0.51960  -0.47646
 Alpha  occ. eigenvalues --   -0.47433  -0.45721  -0.44151  -0.42639  -0.40177
 Alpha  occ. eigenvalues --   -0.39686  -0.38161  -0.37528  -0.35722  -0.32947
 Alpha  occ. eigenvalues --   -0.27754  -0.26941  -0.26607  -0.25074
 Alpha virt. eigenvalues --   -0.02290   0.04654   0.05525   0.06872   0.10257
 Alpha virt. eigenvalues --    0.12151   0.12778   0.14506   0.15322   0.15526
 Alpha virt. eigenvalues --    0.16831   0.18287   0.19730   0.20628   0.22331

 Mulliken charges:
               1
     1  C   -0.431445
     2  C    0.131277
     3  C   -0.094125
     4  O   -0.434624
     5  C   -0.382832
     6  C    0.290931
     7  C   -0.435286
     8  C    0.153253
     9  O   -0.258346
    10  H    0.147483
    11  H    0.127755
    12  H    0.115679
    13  H    0.113437
    14  H    0.102951
    15  H    0.292728
    16  H    0.156353
    17  H    0.127061
    18  H    0.198745
    19  H    0.079007
 Sum of Mulliken charges =   0.00000

 Dipole moment (field-independent basis, Debye):
    X=              0.3499    Y=             -1.4230    Z=              0.6828  Tot=              1.6167
 Quadrupole moment (field-independent basis, Debye-Ang):
   XX=            -50.4637   YY=            -57.4888   ZZ=            -49.9537
   XY=             -0.9289   XZ=              1.0957   YZ=              7.1106

  Exact polarizability:  88.281  -1.480  69.260   7.388  -0.177  73.580
 Approx polarizability: 126.156  -4.218  99.709  16.462  -7.266 117.623

                      1                      2                      3
                      A                      A                      A
 Frequencies --     60.3926                79.2560               133.5287
 Red. masses --      4.4975                 5.4382                 3.3204
 Frc consts  --      0.0097                 0.0201                 0.0349
 IR Inten    --      0.0620                 2.9797                 0.4357

                      4                      5                      6
                      A                      A                      A
 Frequencies --    145.7147               203.1570               216.1223
 Red. masses --      2.8215                 4.8986                 1.0609
 Frc consts  --      0.0353                 0.1191                 0.0292
 IR Inten    --      4.7425                 9.7012                 4.8929

                      7                      8                      9
                      A                      A                      A
 Frequencies --    232.2136               287.9687               313.5366
 Red. masses --      1.0894                 3.3239                 2.3553
 Frc consts  --      0.0346                 0.1624                 0.1364
 IR Inten    --     93.6028                 1.2756                 3.5596

                     10                     11                     12
                      A                      A                      A
 Frequencies --    320.4775               348.3921               367.5595
 Red. masses --      3.2884                 2.5507                 2.6390
 Frc consts  --      0.1990                 0.1824                 0.2101
 IR Inten    --      1.5754                 5.8365                 1.0154

                     13                     14                     15
                      A                      A                      A
 Frequencies --    459.1777               535.8214               624.7042
 Red. masses --      3.9708                 4.0654                 1.2407
 Frc consts  --      0.4933                 0.6877                 0.2853
 IR Inten    --      6.0350                 5.2025                34.0499

                     16                     17                     18
                      A                      A                      A
 Frequencies --    640.2543               655.5532               758.0834
 Red. masses --      1.6220                 2.3840                 3.3534
 Frc consts  --      0.3917                 0.6036                 1.1355
 IR Inten    --     25.9512                46.0361                 1.6084

                     19                     20                     21
                      A                      A                      A
 Frequencies --    874.5294               906.8714               933.0257
 Red. masses --      1.9623                 2.6239                 1.5938
 Frc consts  --      0.8842                 1.2714                 0.8175
 IR Inten    --     29.3105                 1.7135                 8.3989

                     22                     23                     24
                      A                      A                      A
 Frequencies --    961.2764               997.9707              1047.4578
 Red. masses --      1.8076                 2.2110                 1.7938
 Frc consts  --      0.9841                 1.2974                 1.1596
 IR Inten    --      6.7784                 9.8470                 0.8503

                     25                     26                     27
                      A                      A                      A
 Frequencies --   1081.0647              1134.6729              1175.4185
 Red. masses --      6.3533                 2.1055                 1.6711
 Frc consts  --      4.3747                 1.5971                 1.3603
 IR Inten    --     49.9333                 7.8268                 1.0416

                     28                     29                     30
                      A                      A                      A
 Frequencies --   1195.0632              1258.4464              1283.9648
 Red. masses --      1.5926                 1.3033                 1.3319
 Frc consts  --      1.3401                 1.2161                 1.2937
 IR Inten    --     13.1300                27.9317                 5.9546

                     31                     32                     33
                      A                      A                      A
 Frequencies --   1313.2170              1334.0009              1399.1384
 Red. masses --      1.6773                 1.4629                 1.2112
 Frc consts  --      1.7043                 1.5339                 1.3970
 IR Inten    --     11.8931                 8.1197                 3.3480

                     34                     35                     36
                      A                      A                      A
 Frequencies --   1425.1263              1455.4772              1466.2847
 Red. masses --      1.2118                 1.3148                 1.1503
 Frc consts  --      1.4501                 1.6410                 1.4571
 IR Inten    --      6.3192                 2.9123                 4.5128

                     37                     38                     39
                      A                      A                      A
 Frequencies --   1490.2761              1503.5892              1515.8860
 Red. masses --      1.0616                 1.0781                 1.0759
 Frc consts  --      1.3892                 1.4360                 1.4566
 IR Inten    --      6.3330                 8.9648                 6.3493

                     40                     41                     42
                      A                      A                      A
 Frequencies --   1830.3994              2236.4186              2855.1261
 Red. masses --     10.9005                 5.9292                 1.0825
 Frc consts  --     21.5174                17.4724                 5.1989
 IR Inten    --    145.6014                 0.8926               103.1488

                     43                     44                     45
                      A                      A                      A
 Frequencies --   3009.3412              3028.2002              3039.8070
 Red. masses --      1.0558                 1.0630                 1.0370
 Frc consts  --      5.6332                 5.7431                 5.6455
 IR Inten    --     32.1484                10.2481                19.8997

                     46                     47                     48
                      A                      A                      A
 Frequencies --   3048.0864              3080.9158              3107.9440
 Red. masses --      1.1064                 1.0957                 1.1014
 Frc consts  --      6.0566                 6.1280                 6.2683
 IR Inten    --     37.0952                 2.0821                21.5824

                     49                     50                     51
                      A                      A                      A
 Frequencies --   3131.8823              3505.6585              3842.3673
 Red. masses --      1.1008                 1.1621                 1.0666
 Frc consts  --      6.3617                 8.4146                 9.2777
 IR Inten    --      8.3213                66.4096                31.9348

 - Thermochemistry -
 -------------------
 Temperature   298.150 Kelvin.  Pressure   1.00000 Atm.
 Atom     1 has atomic number  6 and mass  12.00000

 Molecular mass:   126.06808 amu.
 Principal axes and moments of inertia in atomic units:
                           1         2         3
     Eigenvalues --  1016.125611270.517261618.96224
           X            0.99945  -0.01854   0.02737
           Y            0.01705   0.99842   0.05345
           Z           -0.02832  -0.05295   0.99820
 This molecule is an asymmetric top.
 Rotational symmetry number  1.
 Warning -- assumption of classical behavior for rotation
           may cause significant error
 Rotational temperatures (Kelvin)      0.08524     0.06817     0.05350
 Rotational constants (GHZ):           1.77610     1.42048     1.11475
 Zero-point vibrational energy     405838.0 (Joules/Mol)
                                   96.99761 (Kcal/Mol)
 Warning -- explicit consideration of  14 degrees of freedom as
           vibrations may cause significant error
 Vibrational temperatures:     86.89   114.03   192.12   209.65   292.30
          (Kelvin)            310.95   334.10   414.32   451.11   461.10
                              501.26   528.84   660.65   770.93   898.81
                              921.18   943.19  1090.71  1258.25  1304.78
                             1342.41  1383.06  1435.86  1507.06  1555.41
                             1632.54  1691.16  1719.43  1810.62  1847.34
                             1889.42  1919.33  2013.05  2050.44  2094.10
                             2109.65  2144.17  2163.33  2181.02  2633.53
                             3217.70  4107.88  4329.77  4356.90  4373.60
                             4385.51  4432.75  4471.63  4506.07  5043.85
                             5528.30

 Zero-point correction=                           0.154576 (Hartree/Particle)
 Thermal correction to Energy=                    0.165269
 Thermal correction to Enthalpy=                  0.166213
 Thermal correction to Gibbs Free Energy=         0.118829
 Sum of electronic and zero-point Energies=           -422.997953
 Sum of electronic and thermal Energies=              -422.987260
 Sum of electronic and thermal Enthalpies=            -422.986316
 Sum of electronic and thermal Free Energies=         -423.033700

                     E (Thermal)             CV                S
                      KCal/Mol        Cal/Mol-Kelvin    Cal/Mol-Kelvin
 Total                  103.708             38.158             99.728
 Electronic               0.000              0.000              0.000
 Translational            0.889              2.981             40.409
 Rotational               0.889              2.981             29.126
 Vibrational            101.930             32.197             30.193
 Vibration     1          0.597              1.973              4.444
 Vibration     2          0.600              1.963              3.909
 Vibration     3          0.613              1.920              2.895
 Vibration     4          0.617              1.907              2.727
 Vibration     5          0.639              1.835              2.104
 Vibration     6          0.645              1.816              1.991
 Vibration     7          0.653              1.792              1.862
 Vibration     8          0.685              1.696              1.486
 Vibration     9          0.701              1.648              1.344
 Vibration    10          0.706              1.634              1.308
 Vibration    11          0.726              1.579              1.173
 Vibration    12          0.740              1.539              1.090
 Vibration    13          0.817              1.341              0.769
 Vibration    14          0.891              1.171              0.574

 Optimization completed.
    -- Stationary point found.
 Normal termination of Gaussian 09 at Tue Jan 28 10:17:50 2020.
