 Gaussian 09, Revision D.01,
 Gaussian 09:  ES64L-G09RevD.01 24-Apr-2013

 -----------------------------
 # b3lyp 6-31G(2df,p) opt Freq
 -----------------------------

 -----
 titel
 -----
 Symbolic Z-matrix:
 Charge =  0 Multiplicity = 1

 SCF Done:  E(RB3LYP) =  -423.158303846     A.U. after   14 cycles
 Optimization completed.
    -- Stationary point found.
 Normal termination of Gaussian 09 at Tue Jan 28 02:00:24 2020.

 ----------------------------------------------------------------------
 #N Geom=AllCheck Guess=TCheck SCRF=Check GenChk RB3LYP/6-31G(2df,p) Fr
 eq
 ----------------------------------------------------------------------

 Structure from the checkpoint file:  "/scratch/puck/g09_368f38e8-dcbe-4f7c-b4a1-75fc7ca99d34/Gau-26701.chk"
 -----
 titel
 -----
 Charge =  0 Multiplicity = 1

                         Standard orientation:
 ---------------------------------------------------------------------
 Center     Atomic      Atomic             Coordinates (Angstroms)
 Number     Number       Type             X           Y           Z
 ---------------------------------------------------------------------
      1          8           0       -2.793582   -0.153034   -0.430086
      2          6           0       -1.539557   -0.767302   -0.457154
      3          6           0       -0.902980   -1.234204    0.828990
      4          6           0       -0.415542    0.018419    0.139571
      5          6           0       -0.527684    1.468571    0.616818
      6          6           0        0.735377    1.801869   -0.230232
      7          6           0        0.950228    0.280474   -0.537252
      8          6           0        2.098581   -0.332626    0.218090
      9          8           0        2.880348   -1.129562   -0.235132
     10          1           0       -3.452505   -0.824812   -0.226180
     11          1           0       -1.324842   -1.339299   -1.361037
     12          1           0       -1.473684   -1.095747    1.742385
     13          1           0       -0.282021   -2.124591    0.804294
     14          1           0       -1.451142    1.976847    0.333199
     15          1           0       -0.376054    1.593004    1.693032
     16          1           0        0.521561    2.376812   -1.132475
     17          1           0        1.554948    2.289187    0.304333
     18          1           0        1.024470   -0.003889   -1.589472
     19          1           0        2.174603    0.002055    1.280680
 ---------------------------------------------------------------------

 SCF Done:  E(RB3LYP) =  -423.158303846     A.U. after    1 cycles

 The electronic state is 1-A.
 Alpha  occ. eigenvalues --  -19.15038 -19.13526 -10.26585 -10.24090 -10.20560
 Alpha  occ. eigenvalues --  -10.19651 -10.19486 -10.19019 -10.18728  -1.04191
 Alpha  occ. eigenvalues --   -1.03532  -0.87862  -0.80655  -0.69996  -0.62609
 Alpha  occ. eigenvalues --   -0.61739  -0.58405  -0.53476  -0.51997  -0.50830
 Alpha  occ. eigenvalues --   -0.46916  -0.44903  -0.43395  -0.41253  -0.40205
 Alpha  occ. eigenvalues --   -0.39608  -0.37112  -0.35613  -0.34556  -0.32428
 Alpha  occ. eigenvalues --   -0.31567  -0.28080  -0.26159  -0.24272
 Alpha virt. eigenvalues --   -0.01996   0.06988   0.08669   0.10002   0.10462
 Alpha virt. eigenvalues --    0.11324   0.13482   0.14605   0.15050   0.16674
 Alpha virt. eigenvalues --    0.17712   0.19115   0.19501   0.22730   0.23713

 Mulliken charges:
               1
     1  O   -0.422078
     2  C    0.042520
     3  C   -0.397786
     4  C    0.340197
     5  C   -0.293870
     6  C   -0.238145
     7  C   -0.178928
     8  C    0.177654
     9  O   -0.264102
    10  H    0.291172
    11  H    0.091662
    12  H    0.116670
    13  H    0.124221
    14  H    0.124933
    15  H    0.103176
    16  H    0.118986
    17  H    0.107019
    18  H    0.088901
    19  H    0.067801
 Sum of Mulliken charges =   0.00000

 Dipole moment (field-independent basis, Debye):
    X=             -2.3773    Y=              0.4719    Z=              0.8166  Tot=              2.5576
 Quadrupole moment (field-independent basis, Debye-Ang):
   XX=            -58.8405   YY=            -52.6446   ZZ=            -52.0547
   XY=              9.4632   XZ=              0.4022   YZ=             -0.2623

  Exact polarizability:  86.111  -0.973  76.598  -0.988   1.115  67.569
 Approx polarizability: 117.305  -7.510 111.579  -2.722   3.575 103.536

                      1                      2                      3
                      A                      A                      A
 Frequencies --     39.0993                56.4587               133.9241
 Red. masses --      3.4370                 3.9044                 3.3869
 Frc consts  --      0.0031                 0.0073                 0.0358
 IR Inten    --      2.8703                 4.6347                 0.3777

                      4                      5                      6
                      A                      A                      A
 Frequencies --    193.9676               257.2108               269.5845
 Red. masses --      2.9868                 1.7646                 2.7448
 Frc consts  --      0.0662                 0.0688                 0.1175
 IR Inten    --      1.4902                44.1245                 3.4476

                      7                      8                      9
                      A                      A                      A
 Frequencies --    288.6618               359.3146               447.8578
 Red. masses --      1.4526                 2.5822                 3.4289
 Frc consts  --      0.0713                 0.1964                 0.4052
 IR Inten    --     61.3238                 5.4544                 1.3898

                     10                     11                     12
                      A                      A                      A
 Frequencies --    454.1475               518.2982               585.0712
 Red. masses --      3.1230                 3.0926                 3.4034
 Frc consts  --      0.3795                 0.4895                 0.6864
 IR Inten    --     11.2916                 0.2365                 9.3423

                     13                     14                     15
                      A                      A                      A
 Frequencies --    738.8163               812.6671               852.5997
 Red. masses --      1.2514                 2.1708                 2.5058
 Frc consts  --      0.4025                 0.8447                 1.0732
 IR Inten    --      6.5915                 0.1524                 2.3322

                     16                     17                     18
                      A                      A                      A
 Frequencies --    865.4375               895.5407               911.1934
 Red. masses --      2.0015                 2.2750                 1.5923
 Frc consts  --      0.8832                 1.0750                 0.7789
 IR Inten    --      2.4207                20.2154                 3.0220

                     19                     20                     21
                      A                      A                      A
 Frequencies --    947.3800               979.0442              1011.7208
 Red. masses --      2.7667                 2.3980                 2.2042
 Frc consts  --      1.4631                 1.3543                 1.3293
 IR Inten    --      1.9056                 4.8451                13.9329

                     22                     23                     24
                      A                      A                      A
 Frequencies --   1037.5464              1052.3038              1096.4706
 Red. masses --      1.3195                 1.7525                 1.8300
 Frc consts  --      0.8369                 1.1434                 1.2962
 IR Inten    --      6.0122                 1.3200                34.3237

                     25                     26                     27
                      A                      A                      A
 Frequencies --   1127.6809              1158.0728              1172.2098
 Red. masses --      1.6224                 2.3178                 2.5433
 Frc consts  --      1.2156                 1.8315                 2.0590
 IR Inten    --      6.2041                14.8727                41.9682

                     28                     29                     30
                      A                      A                      A
 Frequencies --   1201.6242              1221.0604              1229.9275
 Red. masses --      1.9972                 1.3187                 1.3362
 Frc consts  --      1.6991                 1.1584                 1.1909
 IR Inten    --      4.6440                 1.5817                 7.0828

                     31                     32                     33
                      A                      A                      A
 Frequencies --   1253.2264              1272.7026              1292.2106
 Red. masses --      1.3815                 1.4223                 1.4905
 Frc consts  --      1.2784                 1.3574                 1.4663
 IR Inten    --      4.8677                 7.8829                 0.5212

                     34                     35                     36
                      A                      A                      A
 Frequencies --   1296.9487              1341.9359              1420.1116
 Red. masses --      1.3484                 1.8609                 1.3624
 Frc consts  --      1.3363                 1.9744                 1.6188
 IR Inten    --     54.5715                 0.2857                 7.7507

                     37                     38                     39
                      A                      A                      A
 Frequencies --   1431.8921              1473.1953              1485.9177
 Red. masses --      1.2029                 1.1563                 1.6163
 Frc consts  --      1.4532                 1.4785                 2.1026
 IR Inten    --      2.8385                 2.5054                11.3595

                     40                     41                     42
                      A                      A                      A
 Frequencies --   1495.1248              1827.1568              2843.1795
 Red. masses --      1.1435                10.3075                 1.0812
 Frc consts  --      1.5061                20.2747                 5.1495
 IR Inten    --      1.5162               198.6858                92.6700

                     43                     44                     45
                      A                      A                      A
 Frequencies --   3057.0557              3067.1504              3085.4982
 Red. masses --      1.0618                 1.0613                 1.0876
 Frc consts  --      5.8464                 5.8827                 6.1008
 IR Inten    --     25.1763                41.8358                 9.1965

                     46                     47                     48
                      A                      A                      A
 Frequencies --   3089.9129              3111.9709              3119.5123
 Red. masses --      1.0869                 1.1034                 1.0542
 Frc consts  --      6.1141                 6.2959                 6.0444
 IR Inten    --     33.7049                 3.3908                 6.9288

                     49                     50                     51
                      A                      A                      A
 Frequencies --   3129.9394              3209.8412              3808.4492
 Red. masses --      1.1053                 1.1169                 1.0663
 Frc consts  --      6.3795                 6.7800                 9.1124
 IR Inten    --     24.9310                 5.4440                27.2978

 - Thermochemistry -
 -------------------
 Temperature   298.150 Kelvin.  Pressure   1.00000 Atm.
 Atom     1 has atomic number  8 and mass  15.99491

 Molecular mass:   126.06808 amu.
 Principal axes and moments of inertia in atomic units:
                           1         2         3
     Eigenvalues --   631.765861559.199181917.73652
           X            0.99952   0.03090  -0.00096
           Y           -0.03090   0.99952  -0.00201
           Z            0.00090   0.00204   1.00000
 This molecule is an asymmetric top.
 Rotational symmetry number  1.
 Warning -- assumption of classical behavior for rotation
           may cause significant error
 Rotational temperatures (Kelvin)      0.13710     0.05555     0.04516
 Rotational constants (GHZ):           2.85666     1.15748     0.94108
 Zero-point vibrational energy     412878.1 (Joules/Mol)
                                   98.68023 (Kcal/Mol)
 Warning -- explicit consideration of  12 degrees of freedom as
           vibrations may cause significant error
 Vibrational temperatures:     56.26    81.23   192.69   279.08   370.07
          (Kelvin)            387.87   415.32   516.97   644.37   653.42
                              745.71   841.79  1062.99  1169.25  1226.70
                             1245.17  1288.48  1311.00  1363.07  1408.62
                             1455.64  1492.80  1514.03  1577.57  1622.48
                             1666.21  1686.55  1728.87  1756.83  1769.59
                             1803.11  1831.13  1859.20  1866.02  1930.74
                             2043.22  2060.17  2119.60  2137.90  2151.15
                             2628.87  4090.70  4398.42  4412.94  4439.34
                             4445.69  4477.43  4488.28  4503.28  4618.24
                             5479.50

 Zero-point correction=                           0.157257 (Hartree/Particle)
 Thermal correction to Energy=                    0.166447
 Thermal correction to Enthalpy=                  0.167391
 Thermal correction to Gibbs Free Energy=         0.122240
 Sum of electronic and zero-point Energies=           -423.001047
 Sum of electronic and thermal Energies=              -422.991857
 Sum of electronic and thermal Enthalpies=            -422.990913
 Sum of electronic and thermal Free Energies=         -423.036064

                     E (Thermal)             CV                S
                      KCal/Mol        Cal/Mol-Kelvin    Cal/Mol-Kelvin
 Total                  104.447             33.566             95.029
 Electronic               0.000              0.000              0.000
 Translational            0.889              2.981             40.409
 Rotational               0.889              2.981             29.026
 Vibrational            102.670             27.604             25.595
 Vibration     1          0.594              1.981              5.304
 Vibration     2          0.596              1.975              4.577
 Vibration     3          0.613              1.919              2.889
 Vibration     4          0.635              1.848              2.190
 Vibration     5          0.667              1.751              1.681
 Vibration     6          0.674              1.729              1.599
 Vibration     7          0.685              1.695              1.482
 Vibration     8          0.734              1.556              1.125
 Vibration     9          0.807              1.366              0.802
 Vibration    10          0.813              1.352              0.783
 Vibration    11          0.873              1.209              0.614
 Vibration    12          0.942              1.064              0.476

 Optimization completed.
    -- Stationary point found.
 Normal termination of Gaussian 09 at Tue Jan 28 02:46:05 2020.
