 Gaussian 09, Revision D.01,
 Gaussian 09:  ES64L-G09RevD.01 24-Apr-2013

 -----------------------------
 # b3lyp 6-31G(2df,p) opt Freq
 -----------------------------

 -----
 titel
 -----
 Symbolic Z-matrix:
 Charge =  0 Multiplicity = 1

 SCF Done:  E(RB3LYP) =  -423.123826949     A.U. after   12 cycles
 Optimization completed.
    -- Stationary point found.
 Normal termination of Gaussian 09 at Mon Jan 27 22:02:09 2020.

 ----------------------------------------------------------------------
 #N Geom=AllCheck Guess=TCheck SCRF=Check GenChk RB3LYP/6-31G(2df,p) Fr
 eq
 ----------------------------------------------------------------------

 Structure from the checkpoint file:  "/scratch/puck/g09_c788eb01-735a-4814-812f-8fb047a56b99/Gau-98645.chk"
 -----
 titel
 -----
 Charge =  0 Multiplicity = 1

                         Standard orientation:
 ---------------------------------------------------------------------
 Center     Atomic      Atomic             Coordinates (Angstroms)
 Number     Number       Type             X           Y           Z
 ---------------------------------------------------------------------
      1          6           0        2.597000   -0.552298   -0.443113
      2          6           0        1.250947   -0.837533    0.211326
      3          6           0        0.730125    0.312141    1.079965
      4          6           0       -0.823269    0.226414    1.079679
      5          6           0       -1.204511   -0.938647    0.184425
      6          8           0       -2.452296   -0.651784   -0.423760
      7          6           0        0.018738   -0.558222   -0.696591
      8          6           0       -0.067833    0.899989   -0.040091
      9          8           0       -0.073087    2.171550   -0.539883
     10          1           0        2.833300   -1.306359   -1.201988
     11          1           0        2.595287    0.429768   -0.928357
     12          1           0        3.405107   -0.559059    0.296698
     13          1           0        1.257615   -1.831549    0.678470
     14          1           0        1.239834    0.838127    1.878274
     15          1           0       -1.408516    0.677369    1.870667
     16          1           0       -1.198775   -1.951796    0.614414
     17          1           0       -2.601335   -1.311044   -1.109615
     18          1           0        0.029596   -0.804704   -1.758405
     19          1           0       -0.956234    2.350057   -0.884616
 ---------------------------------------------------------------------

 SCF Done:  E(RB3LYP) =  -423.123826949     A.U. after    1 cycles

 The electronic state is 1-A.
 Alpha  occ. eigenvalues --  -19.15338 -19.13648 -10.23551 -10.23077 -10.18841
 Alpha  occ. eigenvalues --  -10.18673 -10.18423 -10.18269 -10.17071  -1.03993
 Alpha  occ. eigenvalues --   -1.01902  -0.91590  -0.75353  -0.70190  -0.65511
 Alpha  occ. eigenvalues --   -0.61207  -0.56086  -0.53019  -0.51932  -0.50537
 Alpha  occ. eigenvalues --   -0.46458  -0.44465  -0.42363  -0.40123  -0.38815
 Alpha  occ. eigenvalues --   -0.37820  -0.37317  -0.34839  -0.33198  -0.31104
 Alpha  occ. eigenvalues --   -0.30143  -0.26892  -0.24738  -0.23156
 Alpha virt. eigenvalues --    0.07510   0.08568   0.10333   0.11899   0.12411
 Alpha virt. eigenvalues --    0.13432   0.13753   0.16452   0.16810   0.17336
 Alpha virt. eigenvalues --    0.18228   0.19054   0.20455   0.21799   0.22646

 Mulliken charges:
               1
     1  C   -0.409639
     2  C    0.007416
     3  C   -0.124295
     4  C   -0.171522
     5  C    0.125548
     6  O   -0.452074
     7  C   -0.186779
     8  C    0.391510
     9  O   -0.459212
    10  H    0.109140
    11  H    0.127527
    12  H    0.111857
    13  H    0.058834
    14  H    0.088127
    15  H    0.091746
    16  H    0.056464
    17  H    0.279805
    18  H    0.061431
    19  H    0.294116
 Sum of Mulliken charges =   0.00000

 Dipole moment (field-independent basis, Debye):
    X=             -0.3472    Y=             -1.2311    Z=             -0.6930  Tot=              1.4548
 Quadrupole moment (field-independent basis, Debye-Ang):
   XX=            -54.3452   YY=            -51.9614   ZZ=            -50.2650
   XY=             -1.0999   XZ=              3.3568   YZ=              2.0049

  Exact polarizability:  83.854  -1.202  72.514   1.349   1.863  69.191
 Approx polarizability: 113.315  -1.090 109.432   3.350   0.020 107.553

                      1                      2                      3
                      A                      A                      A
 Frequencies --    139.9693               162.2684               229.3917
 Red. masses --      4.7250                 3.5617                 2.7848
 Frc consts  --      0.0545                 0.0553                 0.0863
 IR Inten    --      1.8604                 0.2099                 3.1422

                      4                      5                      6
                      A                      A                      A
 Frequencies --    248.6240               314.5889               333.0696
 Red. masses --      1.0480                 1.1431                 1.6024
 Frc consts  --      0.0382                 0.0667                 0.1047
 IR Inten    --      0.0979                69.2205                49.0636

                      7                      8                      9
                      A                      A                      A
 Frequencies --    375.7239               379.8951               425.4524
 Red. masses --      2.9127                 2.6000                 2.0483
 Frc consts  --      0.2423                 0.2211                 0.2184
 IR Inten    --     33.0213                 6.2080                51.2461

                     10                     11                     12
                      A                      A                      A
 Frequencies --    459.0665               549.7696               619.3362
 Red. masses --      4.7381                 3.9210                 3.7166
 Frc consts  --      0.5883                 0.6982                 0.8399
 IR Inten    --      7.9089                 8.0959                13.2494

                     13                     14                     15
                      A                      A                      A
 Frequencies --    742.3552               814.5943               849.4436
 Red. masses --      2.5829                 4.1085                 1.8774
 Frc consts  --      0.8387                 1.6062                 0.7982
 IR Inten    --      1.6115                 9.7000                 5.0106

                     16                     17                     18
                      A                      A                      A
 Frequencies --    852.4977               887.9323               919.2524
 Red. masses --      2.7392                 2.2858                 2.1497
 Frc consts  --      1.1729                 1.0618                 1.0703
 IR Inten    --      9.9966                 9.8826                12.8380

                     19                     20                     21
                      A                      A                      A
 Frequencies --    950.3008               973.6595              1009.5783
 Red. masses --      1.5433                 1.6480                 1.9763
 Frc consts  --      0.8212                 0.9205                 1.1868
 IR Inten    --     11.4082                 6.7539                 6.7875

                     22                     23                     24
                      A                      A                      A
 Frequencies --   1013.9084              1050.1928              1052.2934
 Red. masses --      2.2735                 1.9141                 1.6787
 Frc consts  --      1.3770                 1.2438                 1.0952
 IR Inten    --      2.9883                 1.5176                14.4280

                     25                     26                     27
                      A                      A                      A
 Frequencies --   1088.1864              1103.0654              1130.6988
 Red. masses --      1.9693                 1.6954                 3.0170
 Frc consts  --      1.3739                 1.2154                 2.2726
 IR Inten    --     20.2865                 4.7922                24.1032

                     28                     29                     30
                      A                      A                      A
 Frequencies --   1148.1965              1184.7034              1204.2239
 Red. masses --      2.1797                 1.7648                 1.3148
 Frc consts  --      1.6931                 1.4593                 1.1234
 IR Inten    --     10.6392                 2.0552                59.9651

                     31                     32                     33
                      A                      A                      A
 Frequencies --   1229.2162              1262.4899              1275.6374
 Red. masses --      2.2727                 1.4940                 1.5581
 Frc consts  --      2.0232                 1.4030                 1.4938
 IR Inten    --     27.2091                11.3365                11.7009

                     34                     35                     36
                      A                      A                      A
 Frequencies --   1313.3351              1323.6383              1380.9240
 Red. masses --      1.5104                 1.4490                 1.5595
 Frc consts  --      1.5349                 1.4957                 1.7522
 IR Inten    --    136.9494                51.9999                 8.6477

                     37                     38                     39
                      A                      A                      A
 Frequencies --   1410.5613              1425.8746              1494.2158
 Red. masses --      1.2742                 1.5498                 2.0446
 Frc consts  --      1.4937                 1.8565                 2.6896
 IR Inten    --      2.7516                 4.8914                28.3169

                     40                     41                     42
                      A                      A                      A
 Frequencies --   1496.9531              1500.1243              2981.4983
 Red. masses --      1.2308                 1.2211                 1.0837
 Frc consts  --      1.6250                 1.6191                 5.6756
 IR Inten    --     17.8111                24.3904                57.1208

                     43                     44                     45
                      A                      A                      A
 Frequencies --   3012.0897              3025.9376              3091.1516
 Red. masses --      1.0826                 1.0355                 1.1013
 Frc consts  --      5.7871                 5.5861                 6.2001
 IR Inten    --     72.0208                32.1828                24.5482

                     46                     47                     48
                      A                      A                      A
 Frequencies --   3099.7138              3117.6947              3188.8919
 Red. masses --      1.1014                 1.0910                 1.0923
 Frc consts  --      6.2352                 6.2481                 6.5447
 IR Inten    --     32.6733                30.2813                 8.7583

                     49                     50                     51
                      A                      A                      A
 Frequencies --   3205.1802              3780.4777              3807.2517
 Red. masses --      1.0942                 1.0658                 1.0660
 Frc consts  --      6.6227                 8.9751                 9.1043
 IR Inten    --     13.4351                27.6592                16.8000

 - Thermochemistry -
 -------------------
 Temperature   298.150 Kelvin.  Pressure   1.00000 Atm.
 Atom     1 has atomic number  6 and mass  12.00000

 Molecular mass:   126.06808 amu.
 Principal axes and moments of inertia in atomic units:
                           1         2         3
     Eigenvalues --   709.340121174.311781454.59589
           X            0.99966  -0.02534  -0.00678
           Y            0.02552   0.99928   0.02816
           Z            0.00606  -0.02832   0.99958
 This molecule is an asymmetric top.
 Rotational symmetry number  1.
 Warning -- assumption of classical behavior for rotation
           may cause significant error
 Rotational temperatures (Kelvin)      0.12210     0.07376     0.05954
 Rotational constants (GHZ):           2.54425     1.53685     1.24072
 Zero-point vibrational energy     416510.4 (Joules/Mol)
                                   99.54837 (Kcal/Mol)
 Warning -- explicit consideration of  12 degrees of freedom as
           vibrations may cause significant error
 Vibrational temperatures:    201.38   233.47   330.04   357.71   452.62
          (Kelvin)            479.21   540.58   546.58   612.13   660.49
                              790.99   891.09  1068.08  1172.02  1222.16
                             1226.55  1277.53  1322.60  1367.27  1400.88
                             1452.56  1458.79  1510.99  1514.01  1565.66
                             1587.06  1626.82  1652.00  1704.52  1732.61
                             1768.57  1816.44  1835.36  1889.59  1904.42
                             1986.84  2029.48  2051.51  2149.84  2153.78
                             2158.34  4289.71  4333.72  4353.64  4447.47
                             4459.79  4485.66  4588.10  4611.53  5439.26
                             5477.78

 Zero-point correction=                           0.158640 (Hartree/Particle)
 Thermal correction to Energy=                    0.166937
 Thermal correction to Enthalpy=                  0.167881
 Thermal correction to Gibbs Free Energy=         0.126353
 Sum of electronic and zero-point Energies=           -422.965187
 Sum of electronic and thermal Energies=              -422.956890
 Sum of electronic and thermal Enthalpies=            -422.955946
 Sum of electronic and thermal Free Energies=         -422.997474

                     E (Thermal)             CV                S
                      KCal/Mol        Cal/Mol-Kelvin    Cal/Mol-Kelvin
 Total                  104.754             33.045             87.403
 Electronic               0.000              0.000              0.000
 Translational            0.889              2.981             40.409
 Rotational               0.889              2.981             28.584
 Vibrational            102.977             27.083             18.410
 Vibration     1          0.615              1.913              2.804
 Vibration     2          0.622              1.889              2.523
 Vibration     3          0.652              1.796              1.884
 Vibration     4          0.662              1.765              1.740
 Vibration     5          0.702              1.646              1.338
 Vibration     6          0.715              1.609              1.245
 Vibration     7          0.747              1.522              1.056
 Vibration     8          0.750              1.513              1.040
 Vibration     9          0.787              1.415              0.874
 Vibration    10          0.817              1.341              0.769
 Vibration    11          0.905              1.140              0.545
 Vibration    12          0.979              0.991              0.418

 Normal termination of Gaussian 09 at Mon Jan 27 22:52:53 2020.
