 Gaussian 09, Revision D.01,
 Gaussian 09:  ES64L-G09RevD.01 24-Apr-2013

 -----------------------------
 # b3lyp 6-31G(2df,p) opt Freq
 -----------------------------

 -----
 titel
 -----
 Symbolic Z-matrix:
 Charge =  0 Multiplicity = 1

 SCF Done:  E(RB3LYP) =  -423.119055871     A.U. after   14 cycles
 Optimization completed.
    -- Stationary point found.
 Normal termination of Gaussian 09 at Mon Jan 27 15:28:27 2020.

 ----------------------------------------------------------------------
 #N Geom=AllCheck Guess=TCheck SCRF=Check GenChk RB3LYP/6-31G(2df,p) Fr
 eq
 ----------------------------------------------------------------------

 Structure from the checkpoint file:  "/scratch/puck/g09_a20f731c-c889-4198-a707-c4b88e106fc5/Gau-44354.chk"
 -----
 titel
 -----
 Charge =  0 Multiplicity = 1

                         Standard orientation:
 ---------------------------------------------------------------------
 Center     Atomic      Atomic             Coordinates (Angstroms)
 Number     Number       Type             X           Y           Z
 ---------------------------------------------------------------------
      1          6           0        2.497635   -0.549880   -0.319100
      2          6           0        1.129915   -0.719685    0.337608
      3          8           0        0.603542   -2.022962    0.109698
      4          6           0        0.072444    0.261606   -0.223421
      5          6           0        0.490534    1.651075   -0.046878
      6          6           0        0.821290    2.792614    0.132473
      7          6           0       -1.287209    0.038340    0.430302
      8          6           0       -2.265558   -0.894418   -0.127337
      9          8           0       -2.420127    0.519870   -0.287148
     10          1           0        3.214377   -1.262795    0.104636
     11          1           0        2.427208   -0.734178   -1.396017
     12          1           0        2.888487    0.457537   -0.158605
     13          1           0        1.222771   -0.531443    1.419917
     14          1           0        1.274449   -2.661682    0.369830
     15          1           0       -0.039175    0.049761   -1.294885
     16          1           0        1.107284    3.805597    0.272932
     17          1           0       -1.310964    0.245561    1.501184
     18          1           0       -2.017047   -1.446878   -1.030777
     19          1           0       -2.989019   -1.374654    0.529505
 ---------------------------------------------------------------------

 SCF Done:  E(RB3LYP) =  -423.119055871     A.U. after    1 cycles

 The electronic state is 1-A.
 Alpha  occ. eigenvalues --  -19.14536 -19.14425 -10.24606 -10.23717 -10.22682
 Alpha  occ. eigenvalues --  -10.21541 -10.18260 -10.18199 -10.17382  -1.06662
 Alpha  occ. eigenvalues --   -1.02766  -0.81608  -0.74048  -0.71562  -0.65771
 Alpha  occ. eigenvalues --   -0.62000  -0.59788  -0.54360  -0.51144  -0.49632
 Alpha  occ. eigenvalues --   -0.48103  -0.45165  -0.43769  -0.42020  -0.40543
 Alpha  occ. eigenvalues --   -0.38276  -0.37116  -0.36743  -0.33591  -0.30615
 Alpha  occ. eigenvalues --   -0.27700  -0.27278  -0.26737  -0.25717
 Alpha virt. eigenvalues --    0.05008   0.05094   0.06742   0.11176   0.11420
 Alpha virt. eigenvalues --    0.12366   0.12790   0.12985   0.13433   0.15674
 Alpha virt. eigenvalues --    0.16578   0.16942   0.18358   0.19547   0.21167

 Mulliken charges:
               1
     1  C   -0.417264
     2  C    0.125317
     3  O   -0.437074
     4  C   -0.203307
     5  C    0.315200
     6  C   -0.444583
     7  C    0.099720
     8  C   -0.166319
     9  O   -0.243331
    10  H    0.105161
    11  H    0.125396
    12  H    0.139928
    13  H    0.076883
    14  H    0.284726
    15  H    0.114861
    16  H    0.196393
    17  H    0.096198
    18  H    0.119650
    19  H    0.112443
 Sum of Mulliken charges =   0.00000

 Dipole moment (field-independent basis, Debye):
    X=              2.3789    Y=             -1.6566    Z=              0.9868  Tot=              3.0622
 Quadrupole moment (field-independent basis, Debye-Ang):
   XX=            -53.8042   YY=            -48.2440   ZZ=            -52.4223
   XY=              1.8020   XZ=             -0.4431   YZ=              0.1800

  Exact polarizability:  80.139   8.984  93.254   0.853   3.666  59.125
 Approx polarizability: 103.618  14.295 141.830   5.567   7.762  91.724

                      1                      2                      3
                      A                      A                      A
 Frequencies --     62.0137                73.4016               141.5437
 Red. masses --      3.4770                 4.1650                 3.8587
 Frc consts  --      0.0079                 0.0132                 0.0455
 IR Inten    --      2.0047                 1.2419                 1.6109

                      4                      5                      6
                      A                      A                      A
 Frequencies --    158.6752               183.2580               244.7990
 Red. masses --      3.8599                 2.8587                 1.0519
 Frc consts  --      0.0573                 0.0566                 0.0371
 IR Inten    --      2.6988                 0.8991                22.8093

                      7                      8                      9
                      A                      A                      A
 Frequencies --    262.9746               322.7477               345.9253
 Red. masses --      1.1664                 3.3167                 6.2203
 Frc consts  --      0.0475                 0.2036                 0.4386
 IR Inten    --     78.0783                 0.3057                 3.7026

                     10                     11                     12
                      A                      A                      A
 Frequencies --    384.7934               451.2555               471.4763
 Red. masses --      3.0098                 4.6535                 2.8715
 Frc consts  --      0.2626                 0.5583                 0.3761
 IR Inten    --      3.6765                 6.6447                 3.6530

                     13                     14                     15
                      A                      A                      A
 Frequencies --    520.9334               550.6252               637.6009
 Red. masses --      4.8173                 4.2525                 1.2248
 Frc consts  --      0.7702                 0.7596                 0.2934
 IR Inten    --      0.8715                20.9432                41.6050

                     16                     17                     18
                      A                      A                      A
 Frequencies --    645.3723               837.4501               859.2665
 Red. masses --      1.2468                 1.7578                 4.5302
 Frc consts  --      0.3060                 0.7263                 1.9707
 IR Inten    --     40.6528                 4.4820                15.7739

                     19                     20                     21
                      A                      A                      A
 Frequencies --    893.8055               930.7888               959.0220
 Red. masses --      2.3687                 3.3405                 1.8794
 Frc consts  --      1.1149                 1.7051                 1.0184
 IR Inten    --     10.4055                55.0368                18.0360

                     22                     23                     24
                      A                      A                      A
 Frequencies --   1020.4873              1073.6108              1078.2486
 Red. masses --      2.4791                 2.0400                 1.6051
 Frc consts  --      1.5211                 1.3854                 1.0995
 IR Inten    --     10.9852                 5.0054                 2.1940

                     25                     26                     27
                      A                      A                      A
 Frequencies --   1098.6981              1123.5792              1149.5178
 Red. masses --      1.6999                 2.4222                 1.5673
 Frc consts  --      1.2090                 1.8016                 1.2202
 IR Inten    --      1.2779                53.5226                 7.1473

                     28                     29                     30
                      A                      A                      A
 Frequencies --   1158.8056              1179.4026              1233.2390
 Red. masses --      1.5745                 1.7789                 1.2989
 Frc consts  --      1.2457                 1.4579                 1.1640
 IR Inten    --     13.2800                 9.0540                 8.5207

                     31                     32                     33
                      A                      A                      A
 Frequencies --   1277.0484              1297.5544              1304.4188
 Red. masses --      1.2828                 1.4231                 1.3684
 Frc consts  --      1.2326                 1.4117                 1.3718
 IR Inten    --     21.0767                 4.6321                10.2044

                     34                     35                     36
                      A                      A                      A
 Frequencies --   1371.5193              1406.1641              1415.5541
 Red. masses --      1.2486                 1.2547                 1.5168
 Frc consts  --      1.3838                 1.4617                 1.7907
 IR Inten    --      5.7852                 7.4248                24.4935

                     37                     38                     39
                      A                      A                      A
 Frequencies --   1440.5839              1492.7924              1498.5927
 Red. masses --      1.7323                 1.0458                 1.0794
 Frc consts  --      2.1181                 1.3731                 1.4282
 IR Inten    --     11.1080                 5.5992                 3.2122

                     40                     41                     42
                      A                      A                      A
 Frequencies --   1532.3202              2236.4755              2966.4319
 Red. masses --      1.3602                 5.9300                 1.0824
 Frc consts  --      1.8818                17.4757                 5.6117
 IR Inten    --      4.5044                 1.0260                37.7129

                     43                     44                     45
                      A                      A                      A
 Frequencies --   3030.0774              3032.6003              3091.0282
 Red. masses --      1.0746                 1.0448                 1.0518
 Frc consts  --      5.8131                 5.6613                 5.9212
 IR Inten    --      8.2505                21.8701                25.3802

                     46                     47                     48
                      A                      A                      A
 Frequencies --   3098.8072              3102.0395              3131.7271
 Red. masses --      1.0996                 1.0873                 1.1001
 Frc consts  --      6.2210                 6.1647                 6.3568
 IR Inten    --     20.2806                28.3695                13.9707

                     49                     50                     51
                      A                      A                      A
 Frequencies --   3180.7204              3504.3695              3824.5887
 Red. masses --      1.1193                 1.1621                 1.0662
 Frc consts  --      6.6721                 8.4083                 9.1887
 IR Inten    --     24.1247                68.2534                20.9212

 - Thermochemistry -
 -------------------
 Temperature   298.150 Kelvin.  Pressure   1.00000 Atm.
 Atom     1 has atomic number  6 and mass  12.00000

 Molecular mass:   126.06808 amu.
 Principal axes and moments of inertia in atomic units:
                           1         2         3
     Eigenvalues --   934.051461224.481982037.91562
           X            0.99961   0.02682  -0.00768
           Y           -0.02679   0.99963   0.00505
           Z            0.00781  -0.00485   0.99996
 This molecule is an asymmetric top.
 Rotational symmetry number  1.
 Warning -- assumption of classical behavior for rotation
           may cause significant error
 Rotational temperatures (Kelvin)      0.09273     0.07074     0.04250
 Rotational constants (GHZ):           1.93216     1.47388     0.88558
 Zero-point vibrational energy     408457.3 (Joules/Mol)
                                   97.62364 (Kcal/Mol)
 Warning -- explicit consideration of  14 degrees of freedom as
           vibrations may cause significant error
 Vibrational temperatures:     89.22   105.61   203.65   228.30   263.67
          (Kelvin)            352.21   378.36   464.36   497.71   553.63
                              649.26   678.35   749.51   792.23   917.36
                              928.55  1204.90  1236.29  1285.99  1339.20
                             1379.82  1468.25  1544.68  1551.36  1580.78
                             1616.58  1653.90  1667.26  1696.90  1774.35
                             1837.39  1866.89  1876.77  1973.31  2023.15
                             2036.66  2072.68  2147.79  2156.14  2204.66
                             3217.79  4268.03  4359.60  4363.23  4447.29
                             4458.49  4463.14  4505.85  4576.34  5042.00
                             5502.72

 Zero-point correction=                           0.155573 (Hartree/Particle)
 Thermal correction to Energy=                    0.165671
 Thermal correction to Enthalpy=                  0.166615
 Thermal correction to Gibbs Free Energy=         0.120278
 Sum of electronic and zero-point Energies=           -422.963483
 Sum of electronic and thermal Energies=              -422.953385
 Sum of electronic and thermal Enthalpies=            -422.952441
 Sum of electronic and thermal Free Energies=         -422.998778

                     E (Thermal)             CV                S
                      KCal/Mol        Cal/Mol-Kelvin    Cal/Mol-Kelvin
 Total                  103.960             36.709             97.525
 Electronic               0.000              0.000              0.000
 Translational            0.889              2.981             40.409
 Rotational               0.889              2.981             29.234
 Vibrational            102.183             30.748             27.882
 Vibration     1          0.597              1.972              4.392
 Vibration     2          0.599              1.967              4.060
 Vibration     3          0.615              1.912              2.783
 Vibration     4          0.621              1.893              2.566
 Vibration     5          0.631              1.863              2.295
 Vibration     6          0.660              1.771              1.768
 Vibration     7          0.670              1.741              1.642
 Vibration     8          0.708              1.630              1.296
 Vibration     9          0.724              1.584              1.185
 Vibration    10          0.754              1.503              1.020
 Vibration    11          0.810              1.358              0.792
 Vibration    12          0.828              1.313              0.733
 Vibration    13          0.876              1.204              0.608
 Vibration    14          0.906              1.138              0.543

 Optimization completed.
    -- Stationary point found.
 Normal termination of Gaussian 09 at Mon Jan 27 16:07:32 2020.
