 Gaussian 09, Revision D.01,
 Gaussian 09:  ES64L-G09RevD.01 24-Apr-2013

 -----------------------------
 # b3lyp 6-31G(2df,p) opt Freq
 -----------------------------

 -----
 titel
 -----
 Symbolic Z-matrix:
 Charge =  0 Multiplicity = 1

 SCF Done:  E(RB3LYP) =  -423.117620674     A.U. after   13 cycles
 Optimization completed.
    -- Stationary point found.
 Normal termination of Gaussian 09 at Tue Jan 28 14:05:29 2020.

 ----------------------------------------------------------------------
 #N Geom=AllCheck Guess=TCheck SCRF=Check GenChk RB3LYP/6-31G(2df,p) Fr
 eq
 ----------------------------------------------------------------------

 Structure from the checkpoint file:  "/scratch/puck/g09_891efffa-5c68-4590-bf8c-21697b946777/Gau-43866.chk"
 -----
 titel
 -----
 Charge =  0 Multiplicity = 1

                         Standard orientation:
 ---------------------------------------------------------------------
 Center     Atomic      Atomic             Coordinates (Angstroms)
 Number     Number       Type             X           Y           Z
 ---------------------------------------------------------------------
      1          6           0       -3.024961   -0.254442    0.104587
      2          6           0       -1.614448   -0.755588   -0.221450
      3          6           0       -0.518939    0.071415    0.449153
      4          6           0       -0.208028    1.435872   -0.211511
      5          8           0        0.945169    1.974073    0.442764
      6          6           0        1.147959    1.012550   -0.605048
      7          6           0        0.922569   -0.347331    0.037481
      8          6           0        1.868789   -1.306879    0.596799
      9          8           0        1.178284   -1.561637   -0.642040
     10          1           0       -3.783737   -0.870224   -0.387639
     11          1           0       -3.217054   -0.285963    1.182643
     12          1           0       -3.174186    0.779433   -0.225375
     13          1           0       -1.505652   -1.799327    0.093532
     14          1           0       -1.456244   -0.756138   -1.306844
     15          1           0       -0.688248    0.149957    1.528151
     16          1           0       -0.887429    2.134158   -0.686153
     17          1           0        1.780650    1.287676   -1.440800
     18          1           0        2.939974   -1.134246    0.505783
     19          1           0        1.566652   -1.938391    1.430837
 ---------------------------------------------------------------------

 SCF Done:  E(RB3LYP) =  -423.117620674     A.U. after    1 cycles

 The electronic state is 1-A.
 Alpha  occ. eigenvalues --  -19.15738 -19.15694 -10.24734 -10.24142 -10.24056
 Alpha  occ. eigenvalues --  -10.23564 -10.19724 -10.18654 -10.17875  -1.08757
 Alpha  occ. eigenvalues --   -1.07136  -0.81534  -0.74848  -0.67299  -0.66214
 Alpha  occ. eigenvalues --   -0.62869  -0.60045  -0.54074  -0.52538  -0.49834
 Alpha  occ. eigenvalues --   -0.47096  -0.44914  -0.42955  -0.41222  -0.40223
 Alpha  occ. eigenvalues --   -0.39453  -0.37377  -0.35500  -0.34338  -0.33179
 Alpha  occ. eigenvalues --   -0.31951  -0.29125  -0.26964  -0.25386
 Alpha virt. eigenvalues --    0.07073   0.08161   0.09475   0.10085   0.12357
 Alpha virt. eigenvalues --    0.13129   0.13615   0.14825   0.15532   0.15730
 Alpha virt. eigenvalues --    0.16925   0.17681   0.18118   0.19783   0.20304

 Mulliken charges:
               1
     1  C   -0.391623
     2  C   -0.175166
     3  C   -0.141925
     4  C    0.035499
     5  O   -0.245581
     6  C   -0.094941
     7  C    0.431753
     8  C   -0.260923
     9  O   -0.270893
    10  H    0.117380
    11  H    0.117961
    12  H    0.115937
    13  H    0.110771
    14  H    0.103790
    15  H    0.085367
    16  H    0.109702
    17  H    0.112938
    18  H    0.120631
    19  H    0.119322
 Sum of Mulliken charges =   0.00000

 Dipole moment (field-independent basis, Debye):
    X=             -0.7007    Y=             -0.1992    Z=              0.0556  Tot=              0.7306
 Quadrupole moment (field-independent basis, Debye-Ang):
   XX=            -49.9991   YY=            -57.4964   ZZ=            -52.7858
   XY=             -1.7172   XZ=              0.2466   YZ=             -5.7130

  Exact polarizability:  87.961  -3.662  74.653  -0.143  -4.388  62.907
 Approx polarizability: 114.400  -4.806 110.439   0.502   0.731 101.455

                      1                      2                      3
                      A                      A                      A
 Frequencies --     91.0855               115.5648               151.6053
 Red. masses --      2.1003                 2.8186                 3.8691
 Frc consts  --      0.0103                 0.0222                 0.0524
 IR Inten    --      0.0417                 2.0301                 0.4250

                      4                      5                      6
                      A                      A                      A
 Frequencies --    201.0708               269.8237               285.4802
 Red. masses --      1.6054                 2.1059                 2.3072
 Frc consts  --      0.0382                 0.0903                 0.1108
 IR Inten    --      2.3999                 0.4117                 1.7691

                      7                      8                      9
                      A                      A                      A
 Frequencies --    305.1725               422.4732               496.9820
 Red. masses --      3.6930                 3.9421                 4.2946
 Frc consts  --      0.2026                 0.4145                 0.6250
 IR Inten    --      9.5190                 1.1725                 4.8979

                     10                     11                     12
                      A                      A                      A
 Frequencies --    552.6178               598.0958               761.4335
 Red. masses --      5.7901                 3.4600                 1.3393
 Frc consts  --      1.0418                 0.7292                 0.4575
 IR Inten    --      3.3239                 2.6129                 5.8013

                     13                     14                     15
                      A                      A                      A
 Frequencies --    829.6618               839.1888               854.5296
 Red. masses --      5.0044                 1.9046                 1.6043
 Frc consts  --      2.0296                 0.7903                 0.6902
 IR Inten    --     12.0997                 1.1894                33.0594

                     16                     17                     18
                      A                      A                      A
 Frequencies --    878.9845               909.4942               916.4565
 Red. masses --      2.4842                 4.7035                 1.8545
 Frc consts  --      1.1308                 2.2923                 0.9177
 IR Inten    --      1.5853                19.3359                 1.0281

                     19                     20                     21
                      A                      A                      A
 Frequencies --    953.7476               973.5857               995.3814
 Red. masses --      3.1281                 2.1569                 2.6157
 Frc consts  --      1.6765                 1.2046                 1.5269
 IR Inten    --     12.4311                14.7355                35.1538

                     22                     23                     24
                      A                      A                      A
 Frequencies --   1044.4095              1065.0659              1116.9601
 Red. masses --      1.2883                 2.3337                 1.4628
 Frc consts  --      0.8280                 1.5597                 1.0753
 IR Inten    --      0.2725                 0.7898                 2.6996

                     25                     26                     27
                      A                      A                      A
 Frequencies --   1120.3353              1144.4172              1148.1531
 Red. masses --      1.4546                 2.0768                 1.5722
 Frc consts  --      1.0757                 1.6026                 1.2211
 IR Inten    --      2.8830                 2.5173                 1.7241

                     28                     29                     30
                      A                      A                      A
 Frequencies --   1164.6611              1211.2724              1230.8370
 Red. masses --      1.8443                 1.4693                 1.5002
 Frc consts  --      1.4740                 1.2701                 1.3391
 IR Inten    --      2.4322                 3.0790                 2.4925

                     31                     32                     33
                      A                      A                      A
 Frequencies --   1247.9172              1278.3247              1338.0840
 Red. masses --      1.4518                 1.3826                 1.3880
 Frc consts  --      1.3321                 1.3311                 1.4642
 IR Inten    --      1.6467                 0.1499                 2.4282

                     34                     35                     36
                      A                      A                      A
 Frequencies --   1367.2772              1381.8328              1415.9067
 Red. masses --      4.3279                 1.5417                 1.2324
 Frc consts  --      4.7669                 1.7344                 1.4557
 IR Inten    --     21.8254                 1.6274                 1.1927

                     37                     38                     39
                      A                      A                      A
 Frequencies --   1445.7824              1483.4386              1500.7184
 Red. masses --      2.1628                 1.0639                 1.0400
 Frc consts  --      2.6636                 1.3794                 1.3800
 IR Inten    --     13.6309                 1.2641                 5.4613

                     40                     41                     42
                      A                      A                      A
 Frequencies --   1505.8834              1536.8400              3032.2473
 Red. masses --      1.0672                 1.6965                 1.0399
 Frc consts  --      1.4259                 2.3608                 5.6336
 IR Inten    --      3.2415                 7.3632                16.2168

                     43                     44                     45
                      A                      A                      A
 Frequencies --   3034.6195              3054.6323              3069.2755
 Red. masses --      1.0584                 1.0847                 1.0987
 Frc consts  --      5.7425                 5.9632                 6.0982
 IR Inten    --     18.9276                19.4750                10.1176

                     46                     47                     48
                      A                      A                      A
 Frequencies --   3085.6250              3100.0557              3105.7938
 Red. masses --      1.0504                 1.1019                 1.1009
 Frc consts  --      5.8926                 6.2395                 6.2566
 IR Inten    --     24.4381                45.9376                32.3362

                     49                     50                     51
                      A                      A                      A
 Frequencies --   3173.5046              3182.6009              3197.3673
 Red. masses --      1.1195                 1.0879                 1.1017
 Frc consts  --      6.6431                 6.4924                 6.6360
 IR Inten    --     16.4801                13.5463                14.9532

 - Thermochemistry -
 -------------------
 Temperature   298.150 Kelvin.  Pressure   1.00000 Atm.
 Atom     1 has atomic number  6 and mass  12.00000

 Molecular mass:   126.06808 amu.
 Principal axes and moments of inertia in atomic units:
                           1         2         3
     Eigenvalues --   775.989761200.776451745.00290
           X            0.99999  -0.00279   0.00302
           Y            0.00290   0.99928  -0.03778
           Z           -0.00291   0.03779   0.99928
 This molecule is an asymmetric top.
 Rotational symmetry number  1.
 Warning -- assumption of classical behavior for rotation
           may cause significant error
 Rotational temperatures (Kelvin)      0.11162     0.07213     0.04964
 Rotational constants (GHZ):           2.32573     1.50298     1.03423
 Zero-point vibrational energy     413825.8 (Joules/Mol)
                                   98.90674 (Kcal/Mol)
 Warning -- explicit consideration of  11 degrees of freedom as
           vibrations may cause significant error
 Vibrational temperatures:    131.05   166.27   218.13   289.30   388.22
          (Kelvin)            410.74   439.07   607.84   715.05   795.09
                              860.53  1095.53  1193.70  1207.40  1229.48
                             1264.66  1308.56  1318.57  1372.23  1400.77
                             1432.13  1502.67  1532.39  1607.05  1611.91
                             1646.56  1651.93  1675.69  1742.75  1770.90
                             1795.47  1839.22  1925.20  1967.20  1988.15
                             2037.17  2080.16  2134.33  2159.20  2166.63
                             2211.17  4362.72  4366.14  4394.93  4416.00
                             4439.52  4460.28  4468.54  4565.96  4579.05
                             4600.29

 Zero-point correction=                           0.157618 (Hartree/Particle)
 Thermal correction to Energy=                    0.166140
 Thermal correction to Enthalpy=                  0.167085
 Thermal correction to Gibbs Free Energy=         0.124278
 Sum of electronic and zero-point Energies=           -422.960003
 Sum of electronic and thermal Energies=              -422.951480
 Sum of electronic and thermal Enthalpies=            -422.950536
 Sum of electronic and thermal Free Energies=         -422.993343

                     E (Thermal)             CV                S
                      KCal/Mol        Cal/Mol-Kelvin    Cal/Mol-Kelvin
 Total                  104.255             32.171             90.094
 Electronic               0.000              0.000              0.000
 Translational            0.889              2.981             40.409
 Rotational               0.889              2.981             28.877
 Vibrational            102.477             26.210             20.809
 Vibration     1          0.602              1.956              3.637
 Vibration     2          0.608              1.936              3.173
 Vibration     3          0.619              1.901              2.652
 Vibration     4          0.638              1.838              2.123
 Vibration     5          0.674              1.729              1.597
 Vibration     6          0.683              1.701              1.501
 Vibration     7          0.696              1.664              1.388
 Vibration     8          0.785              1.421              0.884
 Vibration     9          0.853              1.257              0.666
 Vibration    10          0.908              1.134              0.539
 Vibration    11          0.956              1.036              0.453

 Optimization completed.
    -- Stationary point found.
 Normal termination of Gaussian 09 at Tue Jan 28 14:51:02 2020.
