 Gaussian 09, Revision D.01,
 Gaussian 09:  ES64L-G09RevD.01 24-Apr-2013

 -----------------------------
 # b3lyp 6-31G(2df,p) opt Freq
 -----------------------------

 -----
 titel
 -----
 Symbolic Z-matrix:
 Charge =  0 Multiplicity = 1

 SCF Done:  E(RB3LYP) =  -423.174264771     A.U. after   14 cycles
 Optimization completed.
    -- Stationary point found.
 Normal termination of Gaussian 09 at Tue Jan 28 00:02:18 2020.

 ----------------------------------------------------------------------
 #N Geom=AllCheck Guess=TCheck SCRF=Check GenChk RB3LYP/6-31G(2df,p) Fr
 eq
 ----------------------------------------------------------------------

 Structure from the checkpoint file:  "/scratch/puck/g09_c760d880-38ff-48ba-b4a8-e1c4d606b1f6/Gau-104161.chk"
 -----
 titel
 -----
 Charge =  0 Multiplicity = 1

                         Standard orientation:
 ---------------------------------------------------------------------
 Center     Atomic      Atomic             Coordinates (Angstroms)
 Number     Number       Type             X           Y           Z
 ---------------------------------------------------------------------
      1          6           0       -2.466759   -0.490724    0.637924
      2          6           0       -1.200032   -0.600139   -0.212654
      3          6           0        0.100628   -1.037199    0.527171
      4          6           0        1.172795   -1.622397   -0.396998
      5          8           0        1.635353   -0.304761   -0.782148
      6          6           0        0.781358    0.344194    0.202412
      7          6           0        1.516094    1.285845    1.112658
      8          6           0       -0.535710    0.770049   -0.492659
      9          8           0       -0.924623    1.790283   -0.981372
     10          1           0       -2.280135    0.066671    1.562247
     11          1           0       -3.250619    0.034538    0.085186
     12          1           0       -2.839998   -1.482364    0.911683
     13          1           0       -1.407016   -1.175837   -1.121899
     14          1           0       -0.011856   -1.435032    1.534471
     15          1           0        1.967511   -2.182002    0.111776
     16          1           0        0.816239   -2.204866   -1.255013
     17          1           0        1.927689    2.114386    0.527235
     18          1           0        0.841502    1.706151    1.865367
     19          1           0        2.340603    0.776409    1.619982
 ---------------------------------------------------------------------

 SCF Done:  E(RB3LYP) =  -423.174264771     A.U. after    1 cycles

 The electronic state is 1-A.
 Alpha  occ. eigenvalues --  -19.14593 -19.14172 -10.26530 -10.24524 -10.23927
 Alpha  occ. eigenvalues --  -10.20206 -10.20128 -10.19136 -10.18587  -1.05647
 Alpha  occ. eigenvalues --   -1.04102  -0.83621  -0.75892  -0.72626  -0.68691
 Alpha  occ. eigenvalues --   -0.61142  -0.57987  -0.51112  -0.49444  -0.48938
 Alpha  occ. eigenvalues --   -0.46629  -0.44607  -0.42449  -0.41977  -0.41288
 Alpha  occ. eigenvalues --   -0.39413  -0.38800  -0.38079  -0.37014  -0.34405
 Alpha  occ. eigenvalues --   -0.32024  -0.29525  -0.27886  -0.22928
 Alpha virt. eigenvalues --   -0.03057   0.08374   0.09353   0.10509   0.11209
 Alpha virt. eigenvalues --    0.12133   0.13019   0.14528   0.15301   0.16064
 Alpha virt. eigenvalues --    0.17194   0.17386   0.19345   0.19561   0.21904

 Mulliken charges:
               1
     1  C   -0.410963
     2  C   -0.116402
     3  C   -0.151677
     4  C   -0.092436
     5  O   -0.322079
     6  C    0.322451
     7  C   -0.484961
     8  C    0.379233
     9  O   -0.303040
    10  H    0.120466
    11  H    0.140088
    12  H    0.122450
    13  H    0.101768
    14  H    0.084493
    15  H    0.105585
    16  H    0.105952
    17  H    0.148040
    18  H    0.124793
    19  H    0.126241
 Sum of Mulliken charges =   0.00000

 Dipole moment (field-independent basis, Debye):
    X=             -0.3121    Y=             -2.5808    Z=              2.2825  Tot=              3.4594
 Quadrupole moment (field-independent basis, Debye-Ang):
   XX=            -54.1139   YY=            -54.4010   ZZ=            -53.8815
   XY=              2.3917   XZ=              1.1286   YZ=              3.4525

  Exact polarizability:  81.908  -0.811  80.388   1.913   0.486  65.355
 Approx polarizability: 109.890  -4.425 121.086   1.471  -4.635 100.228

                      1                      2                      3
                      A                      A                      A
 Frequencies --     61.1658               161.7571               190.3598
 Red. masses --      3.7581                 3.8710                 1.0896
 Frc consts  --      0.0083                 0.0597                 0.0233
 IR Inten    --      1.2627                 4.6000                 0.2426

                      4                      5                      6
                      A                      A                      A
 Frequencies --    199.8343               215.9970               235.5296
 Red. masses --      2.8358                 1.0730                 2.4818
 Frc consts  --      0.0667                 0.0295                 0.0811
 IR Inten    --      3.2886                 0.4576                 0.5520

                      7                      8                      9
                      A                      A                      A
 Frequencies --    264.6372               310.9840               371.3399
 Red. masses --      3.9941                 2.8029                 3.1888
 Frc consts  --      0.1648                 0.1597                 0.2591
 IR Inten    --      0.8726                 1.7580                 2.8337

                     10                     11                     12
                      A                      A                      A
 Frequencies --    478.7902               602.0796               648.3558
 Red. masses --      3.2431                 4.3674                 4.4033
 Frc consts  --      0.4380                 0.9328                 1.0906
 IR Inten    --      2.8882                 1.5967                 0.1529

                     13                     14                     15
                      A                      A                      A
 Frequencies --    743.2785               784.1235               804.4456
 Red. masses --      3.8255                 2.2406                 2.3633
 Frc consts  --      1.2452                 0.8117                 0.9011
 IR Inten    --     10.4246                 0.4526                 2.0971

                     16                     17                     18
                      A                      A                      A
 Frequencies --    863.9346               910.7140               956.1845
 Red. masses --      2.0585                 3.3662                 2.4679
 Frc consts  --      0.9052                 1.6450                 1.3294
 IR Inten    --      8.9009                20.5513                20.8859

                     19                     20                     21
                      A                      A                      A
 Frequencies --    983.2393              1003.7938              1008.1087
 Red. masses --      1.3690                 2.2087                 4.9094
 Frc consts  --      0.7798                 1.3112                 2.9396
 IR Inten    --      2.9367                12.4301                82.7068

                     22                     23                     24
                      A                      A                      A
 Frequencies --   1056.4390              1072.2977              1110.4094
 Red. masses --      1.8237                 1.8261                 2.2832
 Frc consts  --      1.1992                 1.2371                 1.6587
 IR Inten    --      5.6338                21.0692                 1.1704

                     25                     26                     27
                      A                      A                      A
 Frequencies --   1139.7375              1145.2268              1169.8986
 Red. masses --      1.8525                 1.9746                 1.3396
 Frc consts  --      1.4178                 1.5259                 1.0802
 IR Inten    --      6.2235                11.8367                 5.7903

                     28                     29                     30
                      A                      A                      A
 Frequencies --   1188.1921              1229.5685              1266.5279
 Red. masses --      2.3640                 1.7015                 1.4755
 Frc consts  --      1.9664                 1.5156                 1.3945
 IR Inten    --      9.8141                 2.7655                 0.6283

                     31                     32                     33
                      A                      A                      A
 Frequencies --   1310.6583              1334.7160              1349.3404
 Red. masses --      2.8484                 1.8110                 1.4564
 Frc consts  --      2.8829                 1.9008                 1.5623
 IR Inten    --      3.7498                 3.8615                 3.2811

                     34                     35                     36
                      A                      A                      A
 Frequencies --   1405.4745              1408.1580              1476.2880
 Red. masses --      1.2768                 1.2869                 1.0514
 Frc consts  --      1.4860                 1.5035                 1.3501
 IR Inten    --      2.3035                 7.6788                 2.6749

                     37                     38                     39
                      A                      A                      A
 Frequencies --   1482.6904              1494.7564              1496.5072
 Red. masses --      1.0528                 1.0472                 1.0475
 Frc consts  --      1.3637                 1.3785                 1.3822
 IR Inten    --      4.3985                 4.4078                 4.8805

                     40                     41                     42
                      A                      A                      A
 Frequencies --   1521.5308              1886.2039              3014.9745
 Red. masses --      1.0992                12.8175                 1.0557
 Frc consts  --      1.4993                26.8678                 5.6541
 IR Inten    --      0.7320               215.7904                76.9793

                     43                     44                     45
                      A                      A                      A
 Frequencies --   3034.8658              3037.4739              3045.5598
 Red. masses --      1.0352                 1.0345                 1.0839
 Frc consts  --      5.6176                 5.6237                 5.9233
 IR Inten    --     21.0568                11.1886                 7.7460

                     46                     47                     48
                      A                      A                      A
 Frequencies --   3060.8121              3102.3636              3111.2353
 Red. masses --      1.1100                 1.1014                 1.1006
 Frc consts  --      6.1268                 6.2456                 6.2769
 IR Inten    --     36.7645                25.2476                10.0932

                     49                     50                     51
                      A                      A                      A
 Frequencies --   3115.1413              3117.5674              3127.4175
 Red. masses --      1.1024                 1.1016                 1.0901
 Frc consts  --      6.3031                 6.3084                 6.2818
 IR Inten    --     13.1081                10.8421                23.5016

 - Thermochemistry -
 -------------------
 Temperature   298.150 Kelvin.  Pressure   1.00000 Atm.
 Atom     1 has atomic number  6 and mass  12.00000

 Molecular mass:   126.06808 amu.
 Principal axes and moments of inertia in atomic units:
                           1         2         3
     Eigenvalues --   801.464101111.469631424.16594
           X            0.99690   0.07845   0.00609
           Y           -0.07868   0.99474   0.06560
           Z           -0.00092  -0.06587   0.99783
 This molecule is an asymmetric top.
 Rotational symmetry number  1.
 Warning -- assumption of classical behavior for rotation
           may cause significant error
 Rotational temperatures (Kelvin)      0.10807     0.07793     0.06082
 Rotational constants (GHZ):           2.25181     1.62374     1.26723
 Zero-point vibrational energy     413373.7 (Joules/Mol)
                                   98.79868 (Kcal/Mol)
 Warning -- explicit consideration of  11 degrees of freedom as
           vibrations may cause significant error
 Vibrational temperatures:     88.00   232.73   273.88   287.52   310.77
          (Kelvin)            338.87   380.75   447.44   534.27   688.87
                              866.26   932.84  1069.41  1128.18  1157.42
                             1243.01  1310.31  1375.73  1414.66  1444.23
                             1450.44  1519.98  1542.80  1597.63  1639.83
                             1647.72  1683.22  1709.54  1769.07  1822.25
                             1885.74  1920.36  1941.40  2022.16  2026.02
                             2124.05  2133.26  2150.62  2153.14  2189.14
                             2713.82  4337.87  4366.49  4370.24  4381.88
                             4403.82  4463.60  4476.37  4481.99  4485.48
                             4499.65

 Zero-point correction=                           0.157446 (Hartree/Particle)
 Thermal correction to Energy=                    0.166422
 Thermal correction to Enthalpy=                  0.167366
 Thermal correction to Gibbs Free Energy=         0.123759
 Sum of electronic and zero-point Energies=           -423.016819
 Sum of electronic and thermal Energies=              -423.007843
 Sum of electronic and thermal Enthalpies=            -423.006899
 Sum of electronic and thermal Free Energies=         -423.050506

                     E (Thermal)             CV                S
                      KCal/Mol        Cal/Mol-Kelvin    Cal/Mol-Kelvin
 Total                  104.431             33.154             91.779
 Electronic               0.000              0.000              0.000
 Translational            0.889              2.981             40.409
 Rotational               0.889              2.981             28.630
 Vibrational            102.654             27.193             22.740
 Vibration     1          0.597              1.973              4.419
 Vibration     2          0.622              1.889              2.529
 Vibration     3          0.634              1.853              2.224
 Vibration     4          0.638              1.840              2.135
 Vibration     5          0.645              1.817              1.992
 Vibration     6          0.655              1.786              1.836
 Vibration     7          0.671              1.738              1.631
 Vibration     8          0.700              1.653              1.357
 Vibration     9          0.743              1.531              1.074
 Vibration    10          0.835              1.297              0.713
 Vibration    11          0.960              1.027              0.446

 Optimization completed.
    -- Stationary point found.
 Normal termination of Gaussian 09 at Tue Jan 28 00:49:15 2020.
