 Gaussian 09, Revision D.01,
 Gaussian 09:  ES64L-G09RevD.01 24-Apr-2013

 -----------------------------
 # b3lyp 6-31G(2df,p) opt Freq
 -----------------------------

 -----
 titel
 -----
 Symbolic Z-matrix:
 Charge =  0 Multiplicity = 1

 SCF Done:  E(RB3LYP) =  -423.182307121     A.U. after   13 cycles
 Optimization completed.
    -- Stationary point found.
 Normal termination of Gaussian 09 at Tue Jan 28 03:00:00 2020.

 ----------------------------------------------------------------------
 #N Geom=AllCheck Guess=TCheck SCRF=Check GenChk RB3LYP/6-31G(2df,p) Fr
 eq
 ----------------------------------------------------------------------

 Structure from the checkpoint file:  "/scratch/puck/g09_72df14bb-cc4e-4cac-80c8-940b87158cde/Gau-6279.chk"
 -----
 titel
 -----
 Charge =  0 Multiplicity = 1

                         Standard orientation:
 ---------------------------------------------------------------------
 Center     Atomic      Atomic             Coordinates (Angstroms)
 Number     Number       Type             X           Y           Z
 ---------------------------------------------------------------------
      1          8           0       -2.355350   -0.495922   -0.221226
      2          6           0       -1.339408    0.329128    0.300065
      3          6           0       -0.608793    1.236419   -0.726767
      4          6           0        0.788528    1.404216   -0.136406
      5          6           0        1.755630    0.235468   -0.187547
      6          6           0        1.287086   -1.076938   -0.788829
      7          8           0        0.212234   -1.543395    0.023534
      8          6           0       -0.211308   -0.518082    0.921405
      9          6           0        0.947961    0.473673    1.055418
     10          1           0       -3.066254    0.068678   -0.539035
     11          1           0       -1.728604    0.973127    1.107559
     12          1           0       -0.604268    0.748840   -1.708180
     13          1           0       -1.108738    2.202174   -0.845945
     14          1           0        1.229731    2.394225   -0.110318
     15          1           0        2.815483    0.462026   -0.206339
     16          1           0        0.950807   -0.969892   -1.830681
     17          1           0        2.090174   -1.824600   -0.772164
     18          1           0       -0.520453   -1.000256    1.851702
     19          1           0        1.368877    0.756919    2.010902
 ---------------------------------------------------------------------

 SCF Done:  E(RB3LYP) =  -423.182307121     A.U. after    1 cycles

 The electronic state is 1-A.
 Alpha  occ. eigenvalues --  -19.13074 -19.12517 -10.22524 -10.22463 -10.22211
 Alpha  occ. eigenvalues --  -10.19402 -10.19262 -10.18789 -10.18021  -1.03136
 Alpha  occ. eigenvalues --   -1.00941  -0.87356  -0.76577  -0.71481  -0.66380
 Alpha  occ. eigenvalues --   -0.58547  -0.56936  -0.54740  -0.53085  -0.50375
 Alpha  occ. eigenvalues --   -0.45604  -0.43888  -0.42964  -0.42348  -0.40097
 Alpha  occ. eigenvalues --   -0.38878  -0.36612  -0.35029  -0.32426  -0.30863
 Alpha  occ. eigenvalues --   -0.28206  -0.27935  -0.25920  -0.23695
 Alpha virt. eigenvalues --    0.06772   0.09042   0.11442   0.11604   0.12835
 Alpha virt. eigenvalues --    0.14732   0.14877   0.15952   0.16248   0.18000
 Alpha virt. eigenvalues --    0.18440   0.19134   0.19791   0.20308   0.24507

 Mulliken charges:
               1
     1  O   -0.431243
     2  C    0.150556
     3  C   -0.291620
     4  C   -0.051445
     5  C   -0.070202
     6  C   -0.093318
     7  O   -0.260846
     8  C    0.061928
     9  C   -0.099671
    10  H    0.283044
    11  H    0.060026
    12  H    0.111446
    13  H    0.091067
    14  H    0.083023
    15  H    0.089967
    16  H    0.097964
    17  H    0.100225
    18  H    0.081845
    19  H    0.087255
 Sum of Mulliken charges =   0.00000

 Dipole moment (field-independent basis, Debye):
    X=              0.5200    Y=              2.7357    Z=              0.0972  Tot=              2.7863
 Quadrupole moment (field-independent basis, Debye-Ang):
   XX=            -47.6349   YY=            -56.0767   ZZ=            -51.1250
   XY=             -3.9182   XZ=              0.6060   YZ=              0.0224

  Exact polarizability:  79.635  -2.876  71.111  -0.981   0.633  68.641
 Approx polarizability: 108.558  -2.707 106.660  -2.171   0.945 105.660

                      1                      2                      3
                      A                      A                      A
 Frequencies --     84.8094               226.0068               250.5678
 Red. masses --      3.7841                 3.6781                 1.1125
 Frc consts  --      0.0160                 0.1107                 0.0412
 IR Inten    --      1.8536                 8.6742                93.1316

                      4                      5                      6
                      A                      A                      A
 Frequencies --    260.4270               375.0267               439.1865
 Red. masses --      2.7541                 3.3518                 2.6358
 Frc consts  --      0.1101                 0.2777                 0.2995
 IR Inten    --      3.3663                 6.5203                 0.2309

                      7                      8                      9
                      A                      A                      A
 Frequencies --    517.8286               600.8229               667.6957
 Red. masses --      5.0801                 3.7910                 3.3348
 Frc consts  --      0.8026                 0.8063                 0.8759
 IR Inten    --      3.1112                16.1874                 1.4830

                     10                     11                     12
                      A                      A                      A
 Frequencies --    725.4090               739.9113               783.0220
 Red. masses --      4.3832                 3.7169                 2.7777
 Frc consts  --      1.3590                 1.1989                 1.0034
 IR Inten    --      0.5005                 1.1804                 3.9589

                     13                     14                     15
                      A                      A                      A
 Frequencies --    813.3157               841.0201               897.3922
 Red. masses --      1.6942                 2.7888                 2.3377
 Frc consts  --      0.6603                 1.1622                 1.1092
 IR Inten    --      7.9975                 7.6902                 6.8849

                     16                     17                     18
                      A                      A                      A
 Frequencies --    940.7792               967.5181               979.5491
 Red. masses --      2.2516                 1.5217                 2.6173
 Frc consts  --      1.1741                 0.8393                 1.4797
 IR Inten    --     11.4394                12.8580                 3.7036

                     19                     20                     21
                      A                      A                      A
 Frequencies --    993.0174              1013.8650              1026.5604
 Red. masses --      2.0554                 1.5205                 3.0018
 Frc consts  --      1.1941                 0.9209                 1.8638
 IR Inten    --     22.9816                26.9001                 2.8914

                     22                     23                     24
                      A                      A                      A
 Frequencies --   1061.8864              1073.2581              1104.8359
 Red. masses --      2.4447                 2.0717                 1.7114
 Frc consts  --      1.6242                 1.4060                 1.2309
 IR Inten    --     17.3200                17.7725                28.4139

                     25                     26                     27
                      A                      A                      A
 Frequencies --   1120.3809              1133.7579              1153.2976
 Red. masses --      2.2492                 2.6202                 1.6429
 Frc consts  --      1.6634                 1.9844                 1.2875
 IR Inten    --     23.1377                73.5015                17.5696

                     28                     29                     30
                      A                      A                      A
 Frequencies --   1200.4093              1222.3543              1232.5457
 Red. masses --      1.4278                 1.0903                 1.1230
 Frc consts  --      1.2122                 0.9598                 1.0052
 IR Inten    --      2.2065                 0.4823                51.5993

                     31                     32                     33
                      A                      A                      A
 Frequencies --   1260.6179              1287.7291              1293.1352
 Red. masses --      1.4291                 1.6488                 1.6304
 Frc consts  --      1.3381                 1.6109                 1.6063
 IR Inten    --      0.9763                 7.5805                 8.0785

                     34                     35                     36
                      A                      A                      A
 Frequencies --   1331.3218              1347.7308              1363.9930
 Red. masses --      1.3285                 1.3191                 1.7636
 Frc consts  --      1.3873                 1.4117                 1.9331
 IR Inten    --      4.3531                 8.9159                 1.7882

                     37                     38                     39
                      A                      A                      A
 Frequencies --   1383.8312              1411.9395              1433.1969
 Red. masses --      1.4587                 1.9813                 1.5503
 Frc consts  --      1.6458                 2.3272                 1.8762
 IR Inten    --     17.3535                 0.4176                 0.7279

                     40                     41                     42
                      A                      A                      A
 Frequencies --   1496.1095              1530.9104              2950.4042
 Red. masses --      1.0945                 1.0861                 1.0828
 Frc consts  --      1.4434                 1.4997                 5.5535
 IR Inten    --      1.7019                 0.9056                52.2870

                     43                     44                     45
                      A                      A                      A
 Frequencies --   2994.9233              3035.7518              3041.6507
 Red. masses --      1.0636                 1.0993                 1.0603
 Frc consts  --      5.6210                 5.9691                 5.7795
 IR Inten    --     67.8433                51.6317                32.4549

                     46                     47                     48
                      A                      A                      A
 Frequencies --   3084.1437              3088.7907              3167.8853
 Red. masses --      1.1027                 1.0896                 1.0895
 Frc consts  --      6.1801                 6.1248                 6.4419
 IR Inten    --     23.9713                35.6367                12.1636

                     49                     50                     51
                      A                      A                      A
 Frequencies --   3178.3146              3200.3181              3825.6556
 Red. masses --      1.0901                 1.0950                 1.0663
 Frc consts  --      6.4878                 6.6075                 9.1948
 IR Inten    --     19.1971                15.6010                21.9875

 - Thermochemistry -
 -------------------
 Temperature   298.150 Kelvin.  Pressure   1.00000 Atm.
 Atom     1 has atomic number  8 and mass  15.99491

 Molecular mass:   126.06808 amu.
 Principal axes and moments of inertia in atomic units:
                           1         2         3
     Eigenvalues --   644.59674 995.977431236.18178
           X            0.99931  -0.03704  -0.00361
           Y            0.03706   0.99930   0.00554
           Z            0.00341  -0.00567   0.99998
 This molecule is an asymmetric top.
 Rotational symmetry number  1.
 Warning -- assumption of classical behavior for rotation
           may cause significant error
 Rotational temperatures (Kelvin)      0.13437     0.08696     0.07007
 Rotational constants (GHZ):           2.79980     1.81203     1.45993
 Zero-point vibrational energy     425600.3 (Joules/Mol)
                                  101.72091 (Kcal/Mol)
 Warning -- explicit consideration of   8 degrees of freedom as
           vibrations may cause significant error
 Vibrational temperatures:    122.02   325.17   360.51   374.70   539.58
          (Kelvin)            631.89   745.04   864.45   960.66  1043.70
                             1064.57  1126.59  1170.18  1210.04  1291.15
                             1353.57  1392.04  1409.35  1428.73  1458.72
                             1476.99  1527.82  1544.18  1589.61  1611.98
                             1631.22  1659.34  1727.12  1758.69  1773.36
                             1813.75  1852.75  1860.53  1915.47  1939.08
                             1962.48  1991.02  2031.46  2062.05  2152.57
                             2202.64  4244.97  4309.02  4367.76  4376.25
                             4437.39  4444.08  4557.87  4572.88  4604.54
                             5504.26

 Zero-point correction=                           0.162103 (Hartree/Particle)
 Thermal correction to Energy=                    0.169285
 Thermal correction to Enthalpy=                  0.170229
 Thermal correction to Gibbs Free Energy=         0.130544
 Sum of electronic and zero-point Energies=           -423.020205
 Sum of electronic and thermal Energies=              -423.013022
 Sum of electronic and thermal Enthalpies=            -423.012078
 Sum of electronic and thermal Free Energies=         -423.051763

                     E (Thermal)             CV                S
                      KCal/Mol        Cal/Mol-Kelvin    Cal/Mol-Kelvin
 Total                  106.228             29.093             83.525
 Electronic               0.000              0.000              0.000
 Translational            0.889              2.981             40.409
 Rotational               0.889              2.981             28.164
 Vibrational            104.450             23.132             14.952
 Vibration     1          0.601              1.960              3.776
 Vibration     2          0.650              1.801              1.910
 Vibration     3          0.663              1.762              1.727
 Vibration     4          0.668              1.745              1.659
 Vibration     5          0.746              1.523              1.059
 Vibration     6          0.799              1.385              0.829
 Vibration     7          0.873              1.211              0.615
 Vibration     8          0.959              1.030              0.448

 Optimization completed.
    -- Stationary point found.
 Normal termination of Gaussian 09 at Tue Jan 28 03:46:24 2020.
