 Gaussian 09, Revision D.01,
 Gaussian 09:  ES64L-G09RevD.01 24-Apr-2013

 -----------------------------
 # b3lyp 6-31G(2df,p) opt Freq
 -----------------------------

 -----
 titel
 -----
 Symbolic Z-matrix:
 Charge =  0 Multiplicity = 1

 SCF Done:  E(RB3LYP) =  -423.169633376     A.U. after   15 cycles
 Optimization completed.
    -- Stationary point found.
 Normal termination of Gaussian 09 at Mon Jan 27 14:17:30 2020.

 ----------------------------------------------------------------------
 #N Geom=AllCheck Guess=TCheck SCRF=Check GenChk RB3LYP/6-31G(2df,p) Fr
 eq
 ----------------------------------------------------------------------

 Structure from the checkpoint file:  "/scratch/puck/g09_77ff5c94-d892-4905-88fc-4e1bf72dadb0/Gau-157970.chk"
 -----
 titel
 -----
 Charge =  0 Multiplicity = 1

                         Standard orientation:
 ---------------------------------------------------------------------
 Center     Atomic      Atomic             Coordinates (Angstroms)
 Number     Number       Type             X           Y           Z
 ---------------------------------------------------------------------
      1          6           0       -1.094245   -1.005135    1.333416
      2          6           0       -0.934216   -0.381233   -0.062999
      3          6           0       -2.295787   -0.044987   -0.681765
      4          8           0       -0.303525   -1.281361   -0.964442
      5          6           0       -0.134043    0.935334    0.080621
      6          8           0       -0.561051    1.865820    0.716779
      7          6           0        1.230280    1.024670   -0.637148
      8          6           0        2.183092    0.050401   -0.119680
      9          6           0        2.940635   -0.765256    0.337786
     10          1           0       -1.576424   -0.300181    2.014604
     11          1           0       -1.700901   -1.912010    1.260005
     12          1           0       -0.118611   -1.271317    1.754084
     13          1           0       -2.804785    0.713090   -0.084186
     14          1           0       -2.167913    0.333463   -1.700089
     15          1           0       -2.908778   -0.948861   -0.728645
     16          1           0        0.514945   -1.595443   -0.560756
     17          1           0        1.068219    0.844215   -1.706365
     18          1           0        1.600864    2.044084   -0.500295
     19          1           0        3.635689   -1.465481    0.731562
 ---------------------------------------------------------------------

 SCF Done:  E(RB3LYP) =  -423.169633376     A.U. after    1 cycles

 The electronic state is 1-A.
 Alpha  occ. eigenvalues --  -19.14226 -19.14085 -10.27796 -10.25027 -10.22244
 Alpha  occ. eigenvalues --  -10.20492 -10.19151 -10.18270 -10.17919  -1.05589
 Alpha  occ. eigenvalues --   -1.02576  -0.80713  -0.78338  -0.72768  -0.69813
 Alpha  occ. eigenvalues --   -0.62715  -0.55470  -0.54748  -0.50628  -0.47977
 Alpha  occ. eigenvalues --   -0.47142  -0.45163  -0.43738  -0.42795  -0.40890
 Alpha  occ. eigenvalues --   -0.38636  -0.37293  -0.36924  -0.36340  -0.33654
 Alpha  occ. eigenvalues --   -0.30621  -0.29223  -0.28293  -0.23761
 Alpha virt. eigenvalues --   -0.02723   0.03841   0.04454   0.07738   0.11244
 Alpha virt. eigenvalues --    0.11620   0.13026   0.14195   0.15419   0.15796
 Alpha virt. eigenvalues --    0.17306   0.18697   0.19145   0.19820   0.21760

 Mulliken charges:
               1
     1  C   -0.421511
     2  C    0.245932
     3  C   -0.388911
     4  O   -0.463722
     5  C    0.364640
     6  O   -0.312464
     7  C   -0.423270
     8  C    0.276646
     9  C   -0.453898
    10  H    0.140538
    11  H    0.123599
    12  H    0.120439
    13  H    0.138305
    14  H    0.122467
    15  H    0.122910
    16  H    0.285875
    17  H    0.161059
    18  H    0.152309
    19  H    0.209058
 Sum of Mulliken charges =   0.00000

 Dipole moment (field-independent basis, Debye):
    X=              0.9845    Y=             -1.3161    Z=             -0.0910  Tot=              1.6461
 Quadrupole moment (field-independent basis, Debye-Ang):
   XX=            -49.3551   YY=            -55.5934   ZZ=            -54.5803
   XY=             -1.1775   XZ=              0.8222   YZ=             -6.0143

  Exact polarizability:  90.402  -8.514  76.556   3.182  -4.230  64.686
 Approx polarizability: 121.888 -22.848 124.135   6.838  -4.036 100.424

                      1                      2                      3
                      A                      A                      A
 Frequencies --     39.9524                79.5750               133.2491
 Red. masses --      4.1652                 3.7942                 4.9150
 Frc consts  --      0.0039                 0.0142                 0.0514
 IR Inten    --      2.7182                 1.3155                 1.2294

                      4                      5                      6
                      A                      A                      A
 Frequencies --    208.7576               237.4559               244.8062
 Red. masses --      1.3066                 1.8363                 1.6234
 Frc consts  --      0.0335                 0.0610                 0.0573
 IR Inten    --      0.3942                 4.0078                 3.1209

                      7                      8                      9
                      A                      A                      A
 Frequencies --    273.8521               302.6515               339.5201
 Red. masses --      1.7729                 2.8728                 3.1795
 Frc consts  --      0.0783                 0.1550                 0.2159
 IR Inten    --      4.7742                 0.9615                 3.1465

                     10                     11                     12
                      A                      A                      A
 Frequencies --    362.3727               411.0330               437.1382
 Red. masses --      3.0997                 3.2670                 3.9720
 Frc consts  --      0.2398                 0.3252                 0.4472
 IR Inten    --      0.3062                 1.6003                 9.5656

                     13                     14                     15
                      A                      A                      A
 Frequencies --    449.1769               496.3458               546.2606
 Red. masses --      1.1220                 3.2872                 4.2937
 Frc consts  --      0.1334                 0.4771                 0.7549
 IR Inten    --    125.8100                26.1928                 8.8930

                     16                     17                     18
                      A                      A                      A
 Frequencies --    622.4430               644.3046               656.5836
 Red. masses --      1.2193                 1.4851                 2.4630
 Frc consts  --      0.2783                 0.3632                 0.6256
 IR Inten    --     45.3616                38.1509                14.8686

                     19                     20                     21
                      A                      A                      A
 Frequencies --    735.4477               850.4300               921.3336
 Red. masses --      3.9217                 2.8873                 2.3295
 Frc consts  --      1.2498                 1.2303                 1.1651
 IR Inten    --     13.2702                 1.1736                 2.5830

                     22                     23                     24
                      A                      A                      A
 Frequencies --    941.9148               968.6403               985.5331
 Red. masses --      1.5179                 3.3398                 2.1386
 Frc consts  --      0.7934                 1.8463                 1.2238
 IR Inten    --      0.5547                 2.5968                29.6165

                     25                     26                     27
                      A                      A                      A
 Frequencies --   1019.8132              1097.6912              1118.6846
 Red. masses --      1.3492                 2.5340                 1.9642
 Frc consts  --      0.8268                 1.7989                 1.4483
 IR Inten    --      1.2186                75.3802                25.6594

                     28                     29                     30
                      A                      A                      A
 Frequencies --   1205.1889              1225.4697              1260.9524
 Red. masses --      1.3251                 3.0089                 2.4676
 Frc consts  --      1.1340                 2.6624                 2.3116
 IR Inten    --     12.2388                50.9568                30.2285

                     31                     32                     33
                      A                      A                      A
 Frequencies --   1285.3252              1371.9930              1387.6912
 Red. masses --      1.4530                 1.3555                 1.3471
 Frc consts  --      1.4143                 1.5033                 1.5284
 IR Inten    --      4.2675                29.5263                23.5241

                     34                     35                     36
                      A                      A                      A
 Frequencies --   1406.6901              1440.9641              1478.8833
 Red. masses --      1.2468                 1.0915                 1.0542
 Frc consts  --      1.4536                 1.3352                 1.3584
 IR Inten    --      9.1112                 9.4921                 2.3058

                     37                     38                     39
                      A                      A                      A
 Frequencies --   1483.0645              1495.7913              1508.0351
 Red. masses --      1.0455                 1.0646                 1.0586
 Frc consts  --      1.3549                 1.4033                 1.4184
 IR Inten    --      0.4773                 5.6803                 4.0765

                     40                     41                     42
                      A                      A                      A
 Frequencies --   1815.5257              2226.5750              3038.0817
 Red. masses --     11.9769                 5.9557                 1.0352
 Frc consts  --     23.2594                17.3962                 5.6297
 IR Inten    --    149.0340                 2.9980                14.5872

                     43                     44                     45
                      A                      A                      A
 Frequencies --   3043.2701              3049.9064              3104.3363
 Red. masses --      1.0588                 1.0350                 1.1012
 Frc consts  --      5.7774                 5.6723                 6.2525
 IR Inten    --      3.0641                13.3641                 2.0223

                     46                     47                     48
                      A                      A                      A
 Frequencies --   3110.1662              3120.5774              3134.2461
 Red. masses --      1.1010                 1.1018                 1.1022
 Frc consts  --      6.2748                 6.3216                 6.3794
 IR Inten    --     18.4902                19.5389                 6.6981

                     49                     50                     51
                      A                      A                      A
 Frequencies --   3148.3557              3500.4026              3776.2523
 Red. masses --      1.1019                 1.1611                 1.0659
 Frc consts  --      6.4351                 8.3821                 8.9553
 IR Inten    --     10.9398                76.7728                45.1074

 - Thermochemistry -
 -------------------
 Temperature   298.150 Kelvin.  Pressure   1.00000 Atm.
 Atom     1 has atomic number  6 and mass  12.00000

 Molecular mass:   126.06808 amu.
 Principal axes and moments of inertia in atomic units:
                           1         2         3
     Eigenvalues --   768.846491391.762561646.51161
           X            0.99993   0.01179   0.00007
           Y           -0.01172   0.99393  -0.10938
           Z           -0.00136   0.10938   0.99400
 This molecule is an asymmetric top.
 Rotational symmetry number  1.
 Warning -- assumption of classical behavior for rotation
           may cause significant error
 Rotational temperatures (Kelvin)      0.11265     0.06223     0.05260
 Rotational constants (GHZ):           2.34734     1.29673     1.09610
 Zero-point vibrational energy     405191.4 (Joules/Mol)
                                   96.84307 (Kcal/Mol)
 Warning -- explicit consideration of  15 degrees of freedom as
           vibrations may cause significant error
 Vibrational temperatures:     57.48   114.49   191.72   300.36   341.65
          (Kelvin)            352.22   394.01   435.45   488.49   521.37
                              591.38   628.94   646.26   714.13   785.95
                              895.56   927.01   944.68  1058.14  1223.58
                             1325.59  1355.20  1393.66  1417.96  1467.28
                             1579.33  1609.54  1734.00  1763.18  1814.23
                             1849.29  1973.99  1996.58  2023.91  2073.22
                             2127.78  2133.80  2152.11  2169.72  2612.13
                             3203.54  4371.12  4378.58  4388.13  4466.44
                             4474.83  4489.81  4509.48  4529.78  5036.29
                             5433.18

 Zero-point correction=                           0.154329 (Hartree/Particle)
 Thermal correction to Energy=                    0.164807
 Thermal correction to Enthalpy=                  0.165751
 Thermal correction to Gibbs Free Energy=         0.118875
 Sum of electronic and zero-point Energies=           -423.015304
 Sum of electronic and thermal Energies=              -423.004826
 Sum of electronic and thermal Enthalpies=            -423.003882
 Sum of electronic and thermal Free Energies=         -423.050758

                     E (Thermal)             CV                S
                      KCal/Mol        Cal/Mol-Kelvin    Cal/Mol-Kelvin
 Total                  103.418             38.622             98.659
 Electronic               0.000              0.000              0.000
 Translational            0.889              2.981             40.409
 Rotational               0.889              2.981             28.956
 Vibrational            101.641             32.660             29.294
 Vibration     1          0.594              1.981              5.261
 Vibration     2          0.600              1.963              3.901
 Vibration     3          0.613              1.920              2.899
 Vibration     4          0.642              1.827              2.055
 Vibration     5          0.656              1.783              1.822
 Vibration     6          0.660              1.771              1.768
 Vibration     7          0.676              1.722              1.572
 Vibration     8          0.694              1.669              1.402
 Vibration     9          0.719              1.597              1.214
 Vibration    10          0.736              1.550              1.112
 Vibration    11          0.775              1.446              0.923
 Vibration    12          0.797              1.389              0.836
 Vibration    13          0.808              1.363              0.798
 Vibration    14          0.852              1.258              0.667
 Vibration    15          0.901              1.148              0.552

 Optimization completed.
    -- Stationary point found.
 Normal termination of Gaussian 09 at Mon Jan 27 15:01:40 2020.
