 Gaussian 09, Revision D.01,
 Gaussian 09:  ES64L-G09RevD.01 24-Apr-2013

 -----------------------------
 # b3lyp 6-31G(2df,p) opt Freq
 -----------------------------

 -----
 titel
 -----
 Symbolic Z-matrix:
 Charge =  0 Multiplicity = 1

 SCF Done:  E(RB3LYP) =  -423.135255284     A.U. after   14 cycles
 Optimization completed.
    -- Stationary point found.
 Normal termination of Gaussian 09 at Tue Jan 28 08:11:49 2020.

 ----------------------------------------------------------------------
 #N Geom=AllCheck Guess=TCheck SCRF=Check GenChk RB3LYP/6-31G(2df,p) Fr
 eq
 ----------------------------------------------------------------------

 Structure from the checkpoint file:  "/scratch/puck/g09_f6b76539-4b1b-4cc5-8026-ae4b19ce2ede/Gau-104653.chk"
 -----
 titel
 -----
 Charge =  0 Multiplicity = 1

                         Standard orientation:
 ---------------------------------------------------------------------
 Center     Atomic      Atomic             Coordinates (Angstroms)
 Number     Number       Type             X           Y           Z
 ---------------------------------------------------------------------
      1          6           0        3.955052   -0.083110    0.508464
      2          6           0        3.036923   -0.097370   -0.727613
      3          6           0        1.619465    0.002416   -0.397720
      4          6           0        0.455546    0.080476   -0.088764
      5          6           0       -0.936695    0.197221    0.228642
      6          8           0       -1.433879    1.516074    0.375836
      7          6           0       -1.638451   -0.797398    1.134490
      8          6           0       -1.972925   -0.773215   -0.335446
      9          8           0       -3.174654   -0.239219   -0.779820
     10          1           0        3.825586    0.841438    1.077291
     11          1           0        3.725648   -0.921364    1.171687
     12          1           0        5.003595   -0.159079    0.205448
     13          1           0        3.309241    0.728285   -1.397818
     14          1           0        3.208185   -1.016025   -1.303612
     15          1           0       -1.084642    2.031752   -0.360831
     16          1           0       -1.050474   -1.615819    1.532897
     17          1           0       -2.370088   -0.369984    1.812318
     18          1           0       -1.629447   -1.588157   -0.963300
     19          1           0       -3.182836    0.679984   -0.474527
 ---------------------------------------------------------------------

 SCF Done:  E(RB3LYP) =  -423.135255284     A.U. after    1 cycles

 The electronic state is 1-A.
 Alpha  occ. eigenvalues --  -19.16274 -19.13657 -10.25958 -10.23691 -10.21227
 Alpha  occ. eigenvalues --  -10.18661 -10.18540 -10.18096 -10.17479  -1.05301
 Alpha  occ. eigenvalues --   -1.01664  -0.84388  -0.79881  -0.73159  -0.65211
 Alpha  occ. eigenvalues --   -0.61461  -0.61056  -0.55653  -0.52827  -0.47626
 Alpha  occ. eigenvalues --   -0.45988  -0.45638  -0.42741  -0.40111  -0.39506
 Alpha  occ. eigenvalues --   -0.39010  -0.37451  -0.36911  -0.36541  -0.33757
 Alpha  occ. eigenvalues --   -0.29733  -0.26875  -0.25006  -0.22328
 Alpha virt. eigenvalues --    0.02812   0.04550   0.08415   0.10320   0.11769
 Alpha virt. eigenvalues --    0.13245   0.14035   0.14509   0.15092   0.16366
 Alpha virt. eigenvalues --    0.16791   0.19285   0.19613   0.19882   0.22124

 Mulliken charges:
               1
     1  C   -0.363343
     2  C   -0.320453
     3  C    0.102500
     4  C    0.011876
     5  C    0.153762
     6  O   -0.465677
     7  C   -0.360883
     8  C    0.092225
     9  O   -0.431645
    10  H    0.130044
    11  H    0.129312
    12  H    0.115424
    13  H    0.131147
    14  H    0.132885
    15  H    0.291667
    16  H    0.125156
    17  H    0.128573
    18  H    0.112733
    19  H    0.284696
 Sum of Mulliken charges =   0.00000

 Dipole moment (field-independent basis, Debye):
    X=              2.3533    Y=              0.5233    Z=             -0.3543  Tot=              2.4367
 Quadrupole moment (field-independent basis, Debye-Ang):
   XX=            -53.6791   YY=            -49.9948   ZZ=            -53.8100
   XY=             -2.8815   XZ=             -3.4191   YZ=             -3.1350

  Exact polarizability: 119.665  -0.598  66.232  -6.081  -1.909  65.412
 Approx polarizability: 161.779  -2.470  98.665 -13.222  -1.070  96.783

                      1                      2                      3
                      A                      A                      A
 Frequencies --     26.8087                77.5575                93.5347
 Red. masses --      2.5189                 4.3855                 2.8245
 Frc consts  --      0.0011                 0.0155                 0.0146
 IR Inten    --      0.0904                 0.2204                 1.0713

                      4                      5                      6
                      A                      A                      A
 Frequencies --    159.0005               214.4218               253.5370
 Red. masses --      4.2572                 1.3281                 2.6083
 Frc consts  --      0.0634                 0.0360                 0.0988
 IR Inten    --      1.2238                 4.6395                54.1008

                      7                      8                      9
                      A                      A                      A
 Frequencies --    277.8993               304.9165               344.4552
 Red. masses --      1.8677                 2.0828                 2.6763
 Frc consts  --      0.0850                 0.1141                 0.1871
 IR Inten    --     39.3389                29.2675                18.9355

                     10                     11                     12
                      A                      A                      A
 Frequencies --    405.0899               456.0249               492.1254
 Red. masses --      4.5405                 2.8733                 2.8172
 Frc consts  --      0.4390                 0.3521                 0.4020
 IR Inten    --      8.3484                 1.5471                 3.1713

                     13                     14                     15
                      A                      A                      A
 Frequencies --    506.6686               545.5363               582.4315
 Red. masses --      1.1274                 6.0928                 4.2400
 Frc consts  --      0.1705                 1.0683                 0.8474
 IR Inten    --     63.4433                15.6745                 0.6213

                     16                     17                     18
                      A                      A                      A
 Frequencies --    679.0681               782.7423               799.9452
 Red. masses --      3.9302                 1.1915                 2.1760
 Frc consts  --      1.0678                 0.4301                 0.8204
 IR Inten    --     14.2700                 2.3407                12.1975

                     19                     20                     21
                      A                      A                      A
 Frequencies --    852.5569               895.3671               933.8865
 Red. masses --      5.6952                 2.3186                 1.7524
 Frc consts  --      2.4390                 1.0952                 0.9005
 IR Inten    --     28.4380                 9.3921                 8.2257

                     22                     23                     24
                      A                      A                      A
 Frequencies --   1004.3710              1030.1796              1059.3342
 Red. masses --      1.9273                 2.4807                 1.5512
 Frc consts  --      1.1455                 1.5511                 1.0256
 IR Inten    --      8.6570                30.7210                16.1563

                     25                     26                     27
                      A                      A                      A
 Frequencies --   1082.5776              1099.8468              1102.8354
 Red. masses --      1.7015                 1.4253                 1.4806
 Frc consts  --      1.1749                 1.0158                 1.0610
 IR Inten    --      6.2997                23.5564                 0.4747

                     28                     29                     30
                      A                      A                      A
 Frequencies --   1147.3181              1222.3439              1273.2433
 Red. masses --      2.6435                 1.6461                 3.3441
 Frc consts  --      2.0502                 1.4491                 3.1942
 IR Inten    --     62.6824               134.5786                19.3131

                     31                     32                     33
                      A                      A                      A
 Frequencies --   1287.7934              1326.5429              1351.0859
 Red. masses --      1.1472                 1.5908                 1.5024
 Frc consts  --      1.1210                 1.6493                 1.6158
 IR Inten    --      0.0367                 9.6597                19.8920

                     34                     35                     36
                      A                      A                      A
 Frequencies --   1385.8026              1410.0049              1429.7856
 Red. masses --      1.6119                 1.2123                 1.1560
 Frc consts  --      1.8238                 1.4200                 1.3923
 IR Inten    --    109.3994                 1.6070                35.3622

                     37                     38                     39
                      A                      A                      A
 Frequencies --   1469.5997              1474.1409              1494.8417
 Red. masses --      1.1018                 1.6499                 1.0395
 Frc consts  --      1.4021                 2.1125                 1.3685
 IR Inten    --     14.0309                42.7215                 4.8077

                     40                     41                     42
                      A                      A                      A
 Frequencies --   1504.8232              2350.4501              3020.0705
 Red. masses --      1.0583                11.9174                 1.0591
 Frc consts  --      1.4120                38.7914                 5.6914
 IR Inten    --      1.2908                 2.2260                23.4305

                     43                     44                     45
                      A                      A                      A
 Frequencies --   3045.2767              3047.3182              3118.8050
 Red. masses --      1.0345                 1.1007                 1.1020
 Frc consts  --      5.6522                 6.0221                 6.3157
 IR Inten    --     31.0704                 8.3552                30.3822

                     46                     47                     48
                      A                      A                      A
 Frequencies --   3125.9171              3135.1528              3174.9254
 Red. masses --      1.1030                 1.0540                 1.0908
 Frc consts  --      6.3498                 6.1037                 6.4781
 IR Inten    --     23.0082                 3.6667                11.1778

                     49                     50                     51
                      A                      A                      A
 Frequencies --   3233.4103              3723.8477              3793.6456
 Red. masses --      1.1177                 1.0644                 1.0660
 Frc consts  --      6.8852                 8.6967                 9.0389
 IR Inten    --      3.1487                48.8006                25.1864

 - Thermochemistry -
 -------------------
 Temperature   298.150 Kelvin.  Pressure   1.00000 Atm.
 Atom     1 has atomic number  6 and mass  12.00000

 Molecular mass:   126.06808 amu.
 Principal axes and moments of inertia in atomic units:
                           1         2         3
     Eigenvalues --   429.970762731.701162779.03394
           X            1.00000  -0.00227  -0.00204
           Y            0.00182   0.98041  -0.19698
           Z            0.00245   0.19698   0.98040
 This molecule is an asymmetric top.
 Rotational symmetry number  1.
 Rotational temperatures (Kelvin)      0.20144     0.03171     0.03117
 Rotational constants (GHZ):           4.19736     0.66067     0.64941
 Zero-point vibrational energy     410372.1 (Joules/Mol)
                                   98.08129 (Kcal/Mol)
 Warning -- explicit consideration of  15 degrees of freedom as
           vibrations may cause significant error
 Vibrational temperatures:     38.57   111.59   134.58   228.77   308.50
          (Kelvin)            364.78   399.83   438.71   495.59   582.83
                              656.12   708.06   728.98   784.90   837.99
                              977.03  1126.19  1150.94  1226.64  1288.23
                             1343.65  1445.06  1482.20  1524.14  1557.59
                             1582.43  1586.73  1650.73  1758.68  1831.91
                             1852.85  1908.60  1943.91  1993.86  2028.68
                             2057.14  2114.42  2120.96  2150.74  2165.10
                             3381.77  4345.20  4381.47  4384.41  4487.26
                             4497.49  4510.78  4568.00  4652.15  5357.78
                             5458.20

 Zero-point correction=                           0.156302 (Hartree/Particle)
 Thermal correction to Energy=                    0.166545
 Thermal correction to Enthalpy=                  0.167489
 Thermal correction to Gibbs Free Energy=         0.119988
 Sum of electronic and zero-point Energies=           -422.978953
 Sum of electronic and thermal Energies=              -422.968711
 Sum of electronic and thermal Enthalpies=            -422.967767
 Sum of electronic and thermal Free Energies=         -423.015268

                     E (Thermal)             CV                S
                      KCal/Mol        Cal/Mol-Kelvin    Cal/Mol-Kelvin
 Total                  104.508             37.080             99.974
 Electronic               0.000              0.000              0.000
 Translational            0.889              2.981             40.409
 Rotational               0.889              2.981             29.569
 Vibrational            102.731             31.119             29.997
 Vibration     1          0.593              1.984              6.053
 Vibration     2          0.599              1.964              3.952
 Vibration     3          0.603              1.954              3.585
 Vibration     4          0.621              1.893              2.562
 Vibration     5          0.644              1.819              2.006
 Vibration     6          0.665              1.757              1.706
 Vibration     7          0.679              1.714              1.547
 Vibration     8          0.696              1.664              1.390
 Vibration     9          0.723              1.587              1.191
 Vibration    10          0.770              1.459              0.944
 Vibration    11          0.814              1.348              0.778
 Vibration    12          0.848              1.267              0.678
 Vibration    13          0.862              1.235              0.642
 Vibration    14          0.901              1.149              0.554
 Vibration    15          0.939              1.069              0.481

 Optimization completed.
    -- Stationary point found.
 Normal termination of Gaussian 09 at Tue Jan 28 08:43:46 2020.
