 Gaussian 09, Revision D.01,
 Gaussian 09:  ES64L-G09RevD.01 24-Apr-2013

 -----------------------------
 # b3lyp 6-31G(2df,p) opt Freq
 -----------------------------

 -----
 titel
 -----
 Symbolic Z-matrix:
 Charge =  0 Multiplicity = 1

 SCF Done:  E(RB3LYP) =  -423.105515399     A.U. after   14 cycles
 Optimization completed.
    -- Stationary point found.
 Normal termination of Gaussian 09 at Tue Jan 28 09:24:23 2020.

 ----------------------------------------------------------------------
 #N Geom=AllCheck Guess=TCheck SCRF=Check GenChk RB3LYP/6-31G(2df,p) Fr
 eq
 ----------------------------------------------------------------------

 Structure from the checkpoint file:  "/scratch/puck/g09_6e7f6f75-4878-4932-9f34-8514c3478a23/Gau-17448.chk"
 -----
 titel
 -----
 Charge =  0 Multiplicity = 1

                         Standard orientation:
 ---------------------------------------------------------------------
 Center     Atomic      Atomic             Coordinates (Angstroms)
 Number     Number       Type             X           Y           Z
 ---------------------------------------------------------------------
      1          6           0        2.761536   -0.438088   -0.716506
      2          6           0        1.497603   -0.026417   -0.021827
      3          6           0        1.259145    1.299725    0.647168
      4          6           0        0.364104    0.881472   -0.493898
      5          6           0       -0.660857   -0.210592   -0.053898
      6          6           0       -2.003206   -0.486380   -0.646937
      7          8           0       -2.939167    0.536051   -0.343345
      8          8           0       -0.496811   -0.460419    1.361563
      9          6           0        0.415182   -1.067568    0.433939
     10          1           0        3.247211    0.423087   -1.186192
     11          1           0        3.478155   -0.881590   -0.014133
     12          1           0        2.567088   -1.177998   -1.502250
     13          1           0        0.869365    1.354338    1.655785
     14          1           0        1.982482    2.067505    0.388975
     15          1           0        0.282476    1.433133   -1.421452
     16          1           0       -1.930724   -0.514309   -1.739507
     17          1           0       -2.346543   -1.473746   -0.303382
     18          1           0       -2.987232    0.597864    0.617113
     19          1           0        0.524500   -2.146254    0.471051
 ---------------------------------------------------------------------

 SCF Done:  E(RB3LYP) =  -423.105515399     A.U. after    1 cycles

 The electronic state is 1-A.
 Alpha  occ. eigenvalues --  -19.15464 -19.13719 -10.24024 -10.23833 -10.23528
 Alpha  occ. eigenvalues --  -10.20229 -10.19142 -10.18586 -10.18566  -1.07957
 Alpha  occ. eigenvalues --   -1.01768  -0.87250  -0.73475  -0.72043  -0.67743
 Alpha  occ. eigenvalues --   -0.61814  -0.55934  -0.54150  -0.51916  -0.48828
 Alpha  occ. eigenvalues --   -0.47271  -0.44613  -0.44036  -0.41916  -0.40209
 Alpha  occ. eigenvalues --   -0.39275  -0.37885  -0.35837  -0.33554  -0.32924
 Alpha  occ. eigenvalues --   -0.29774  -0.27261  -0.26326  -0.22803
 Alpha virt. eigenvalues --    0.05754   0.08472   0.10039   0.11071   0.11520
 Alpha virt. eigenvalues --    0.13500   0.14684   0.14824   0.15170   0.15461
 Alpha virt. eigenvalues --    0.16039   0.18335   0.19744   0.20899   0.21751

 Mulliken charges:
               1
     1  C   -0.494103
     2  C    0.314496
     3  C   -0.333257
     4  C   -0.181695
     5  C    0.405927
     6  C   -0.184873
     7  O   -0.412853
     8  O   -0.292108
     9  C   -0.130143
    10  H    0.123091
    11  H    0.122723
    12  H    0.117368
    13  H    0.131398
    14  H    0.109128
    15  H    0.094839
    16  H    0.115038
    17  H    0.099066
    18  H    0.293390
    19  H    0.102568
 Sum of Mulliken charges =   0.00000

 Dipole moment (field-independent basis, Debye):
    X=              1.4811    Y=             -0.8911    Z=             -0.7164  Tot=              1.8711
 Quadrupole moment (field-independent basis, Debye-Ang):
   XX=            -54.7982   YY=            -51.3631   ZZ=            -53.9501
   XY=              2.0307   XZ=             -2.9877   YZ=              1.3789

  Exact polarizability:  87.238  -0.415  72.588   0.161   0.584  65.959
 Approx polarizability: 114.435  -6.050 109.409   1.192  -1.956 106.704

                      1                      2                      3
                      A                      A                      A
 Frequencies --     67.6838               115.2318               199.9499
 Red. masses --      3.8780                 3.7715                 1.2340
 Frc consts  --      0.0105                 0.0295                 0.0291
 IR Inten    --      3.4828                 0.0444                 0.7436

                      4                      5                      6
                      A                      A                      A
 Frequencies --    209.6473               281.0189               293.0810
 Red. masses --      2.1450                 2.6689                 1.8769
 Frc consts  --      0.0555                 0.1242                 0.0950
 IR Inten    --      1.3407                 0.9193                21.0504

                      7                      8                      9
                      A                      A                      A
 Frequencies --    375.4767               399.7987               440.9310
 Red. masses --      2.0558                 1.7868                 2.7473
 Frc consts  --      0.1708                 0.1683                 0.3147
 IR Inten    --     30.7822                78.4381                 1.7914

                     10                     11                     12
                      A                      A                      A
 Frequencies --    469.9299               541.9013               643.5001
 Red. masses --      3.2871                 3.8873                 3.1285
 Frc consts  --      0.4277                 0.6726                 0.7633
 IR Inten    --      1.1301                11.2723                 6.9077

                     13                     14                     15
                      A                      A                      A
 Frequencies --    681.4890               758.6414               801.7315
 Red. masses --      4.0525                 3.8459                 3.4494
 Frc consts  --      1.1089                 1.3041                 1.3063
 IR Inten    --     16.4098                 3.4277                12.0746

                     16                     17                     18
                      A                      A                      A
 Frequencies --    835.7279               904.7442               913.7360
 Red. masses --      2.7378                 2.1313                 1.4689
 Frc consts  --      1.1266                 1.0279                 0.7226
 IR Inten    --      1.8097                 2.3774                 6.0351

                     19                     20                     21
                      A                      A                      A
 Frequencies --    943.2590               963.0610               969.1505
 Red. masses --      3.5912                 1.6019                 1.5461
 Frc consts  --      1.8826                 0.8754                 0.8556
 IR Inten    --     54.3697                 8.7014                 1.4539

                     22                     23                     24
                      A                      A                      A
 Frequencies --    997.0031              1012.7354              1067.4668
 Red. masses --      1.6218                 1.7543                 3.5623
 Frc consts  --      0.9498                 1.0601                 2.3916
 IR Inten    --      8.8157                 3.1847                83.0853

                     25                     26                     27
                      A                      A                      A
 Frequencies --   1083.9563              1101.0760              1120.5679
 Red. masses --      1.6028                 1.5670                 2.0406
 Frc consts  --      1.1096                 1.1193                 1.5097
 IR Inten    --      2.5547                 7.4611                 4.7010

                     28                     29                     30
                      A                      A                      A
 Frequencies --   1146.5468              1190.1849              1222.5369
 Red. masses --      1.8938                 1.3902                 1.2839
 Frc consts  --      1.4668                 1.1602                 1.1306
 IR Inten    --      6.6523                 6.2183                 8.3353

                     31                     32                     33
                      A                      A                      A
 Frequencies --   1250.7957              1295.1753              1361.7823
 Red. masses --      2.0034                 2.4682                 1.5126
 Frc consts  --      1.8466                 2.4394                 1.6527
 IR Inten    --     13.4018                13.3454                 0.3854

                     34                     35                     36
                      A                      A                      A
 Frequencies --   1379.4305              1417.4002              1421.1446
 Red. masses --      1.6529                 1.3113                 1.3630
 Frc consts  --      1.8531                 1.5521                 1.6219
 IR Inten    --      1.7136                33.4363                20.2016

                     37                     38                     39
                      A                      A                      A
 Frequencies --   1465.2047              1483.7764              1485.9149
 Red. masses --      1.9608                 1.1919                 1.2574
 Frc consts  --      2.4802                 1.5460                 1.6357
 IR Inten    --     15.2931                 4.9420                 4.5439

                     40                     41                     42
                      A                      A                      A
 Frequencies --   1488.9324              1499.9034              2995.8622
 Red. masses --      1.4626                 1.1189                 1.0674
 Frc consts  --      1.9105                 1.4831                 5.6442
 IR Inten    --      4.2112                 2.8324                45.9584

                     43                     44                     45
                      A                      A                      A
 Frequencies --   3017.2462              3072.1646              3074.9065
 Red. masses --      1.0363                 1.1006                 1.0952
 Frc consts  --      5.5587                 6.1202                 6.1009
 IR Inten    --     42.0138                22.6224                23.9749

                     46                     47                     48
                      A                      A                      A
 Frequencies --   3097.7543              3136.5257              3174.1393
 Red. masses --      1.0993                 1.0548                 1.0941
 Frc consts  --      6.2151                 6.1136                 6.4949
 IR Inten    --     17.2466                17.5625                16.5615

                     49                     50                     51
                      A                      A                      A
 Frequencies --   3199.8415              3228.6764              3806.3692
 Red. masses --      1.0936                 1.1139                 1.0661
 Frc consts  --      6.5971                 6.8411                 9.1004
 IR Inten    --      6.2875                 3.3997                22.9041

 - Thermochemistry -
 -------------------
 Temperature   298.150 Kelvin.  Pressure   1.00000 Atm.
 Atom     1 has atomic number  6 and mass  12.00000

 Molecular mass:   126.06808 amu.
 Principal axes and moments of inertia in atomic units:
                           1         2         3
     Eigenvalues --   500.751001620.241291660.78661
           X            0.99991   0.01064  -0.00857
           Y           -0.00794   0.96310   0.26903
           Z            0.01112  -0.26894   0.96309
 This molecule is an asymmetric top.
 Rotational symmetry number  1.
 Warning -- assumption of classical behavior for rotation
           may cause significant error
 Rotational temperatures (Kelvin)      0.17297     0.05346     0.05215
 Rotational constants (GHZ):           3.60407     1.11387     1.08668
 Zero-point vibrational energy     413338.0 (Joules/Mol)
                                   98.79014 (Kcal/Mol)
 Warning -- explicit consideration of  11 degrees of freedom as
           vibrations may cause significant error
 Vibrational temperatures:     97.38   165.79   287.68   301.64   404.32
          (Kelvin)            421.68   540.23   575.22   634.40   676.12
                              779.67   925.85   980.51  1091.51  1153.51
                             1202.42  1301.72  1314.66  1357.14  1385.63
                             1394.39  1434.46  1457.10  1535.84  1559.57
                             1584.20  1612.25  1649.62  1712.41  1758.96
                             1799.61  1863.47  1959.30  1984.69  2039.32
                             2044.71  2108.10  2134.82  2137.90  2142.24
                             2158.02  4310.37  4341.14  4420.15  4424.10
                             4456.97  4512.76  4566.87  4603.85  4645.34
                             5476.51

 Zero-point correction=                           0.157432 (Hartree/Particle)
 Thermal correction to Energy=                    0.166146
 Thermal correction to Enthalpy=                  0.167091
 Thermal correction to Gibbs Free Energy=         0.124084
 Sum of electronic and zero-point Energies=           -422.948083
 Sum of electronic and thermal Energies=              -422.939369
 Sum of electronic and thermal Enthalpies=            -422.938425
 Sum of electronic and thermal Free Energies=         -422.981432

                     E (Thermal)             CV                S
                      KCal/Mol        Cal/Mol-Kelvin    Cal/Mol-Kelvin
 Total                  104.258             33.483             90.516
 Electronic               0.000              0.000              0.000
 Translational            0.889              2.981             40.409
 Rotational               0.889              2.981             28.690
 Vibrational            102.481             27.522             21.417
 Vibration     1          0.598              1.970              4.220
 Vibration     2          0.608              1.937              3.179
 Vibration     3          0.638              1.840              2.134
 Vibration     4          0.642              1.826              2.047
 Vibration     5          0.681              1.709              1.527
 Vibration     6          0.688              1.687              1.456
 Vibration     7          0.746              1.522              1.057
 Vibration     8          0.766              1.471              0.963
 Vibration     9          0.801              1.381              0.824
 Vibration    10          0.827              1.317              0.738
 Vibration    11          0.897              1.157              0.561

 Optimization completed.
    -- Stationary point found.
 Normal termination of Gaussian 09 at Tue Jan 28 10:05:35 2020.
