 Gaussian 09, Revision D.01,
 Gaussian 09:  ES64L-G09RevD.01 24-Apr-2013

 -----------------------------
 # b3lyp 6-31G(2df,p) opt Freq
 -----------------------------

 -----
 titel
 -----
 Symbolic Z-matrix:
 Charge =  0 Multiplicity = 1

 SCF Done:  E(RB3LYP) =  -423.125090546     A.U. after   14 cycles
 Optimization completed.
    -- Stationary point found.
 Normal termination of Gaussian 09 at Tue Jan 28 08:20:31 2020.

 ----------------------------------------------------------------------
 #N Geom=AllCheck Guess=TCheck SCRF=Check GenChk RB3LYP/6-31G(2df,p) Fr
 eq
 ----------------------------------------------------------------------

 Structure from the checkpoint file:  "/scratch/puck/g09_9e20ba0f-5aab-4acd-8623-c76e8b8dbe0b/Gau-59941.chk"
 -----
 titel
 -----
 Charge =  0 Multiplicity = 1

                         Standard orientation:
 ---------------------------------------------------------------------
 Center     Atomic      Atomic             Coordinates (Angstroms)
 Number     Number       Type             X           Y           Z
 ---------------------------------------------------------------------
      1          8           0        2.453689   -1.373528   -0.153756
      2          6           0        1.133269   -1.231588    0.323965
      3          6           0        0.345706   -0.127591   -0.425290
      4          6           0        1.055491    1.148528   -0.313240
      5          6           0        1.647877    2.184531   -0.154075
      6          6           0       -1.077304    0.010624    0.116514
      7          8           0       -1.137838    0.412990    1.457441
      8          6           0       -2.125023   -0.978687   -0.286613
      9          6           0       -2.190935    0.449528   -0.798677
     10          1           0        2.897854   -0.527864   -0.021111
     11          1           0        0.636719   -2.191249    0.154691
     12          1           0        1.098614   -1.016961    1.400309
     13          1           0        0.296843   -0.411368   -1.483674
     14          1           0        2.165821    3.106332   -0.050365
     15          1           0       -0.748895    1.295531    1.506602
     16          1           0       -1.857788   -1.766346   -0.982842
     17          1           0       -2.833786   -1.268049    0.480211
     18          1           0       -1.970078    0.637905   -1.843844
     19          1           0       -2.946603    1.094301   -0.364952
 ---------------------------------------------------------------------

 SCF Done:  E(RB3LYP) =  -423.125090546     A.U. after    1 cycles

 The electronic state is 1-A.
 Alpha  occ. eigenvalues --  -19.14561 -19.13292 -10.24844 -10.22896 -10.21662
 Alpha  occ. eigenvalues --  -10.19589 -10.18969 -10.18796 -10.18729  -1.03411
 Alpha  occ. eigenvalues --   -1.01626  -0.85592  -0.79719  -0.73157  -0.64740
 Alpha  occ. eigenvalues --   -0.61170  -0.58460  -0.54440  -0.51689  -0.50700
 Alpha  occ. eigenvalues --   -0.48239  -0.47750  -0.44164  -0.41855  -0.39783
 Alpha  occ. eigenvalues --   -0.39093  -0.36892  -0.33589  -0.32504  -0.30148
 Alpha  occ. eigenvalues --   -0.28897  -0.27867  -0.27386  -0.24776
 Alpha virt. eigenvalues --    0.03579   0.03905   0.08498   0.09762   0.10832
 Alpha virt. eigenvalues --    0.11216   0.11877   0.12472   0.15508   0.16073
 Alpha virt. eigenvalues --    0.16931   0.18271   0.19868   0.22361   0.22521

 Mulliken charges:
               1
     1  O   -0.423423
     2  C   -0.064856
     3  C   -0.240738
     4  C    0.279899
     5  C   -0.455231
     6  C    0.427926
     7  O   -0.470940
     8  C   -0.314546
     9  C   -0.324978
    10  H    0.285205
    11  H    0.114592
    12  H    0.107905
    13  H    0.110467
    14  H    0.203708
    15  H    0.285898
    16  H    0.117079
    17  H    0.128451
    18  H    0.114799
    19  H    0.118781
 Sum of Mulliken charges =   0.00000

 Dipole moment (field-independent basis, Debye):
    X=             -0.3727    Y=              1.8259    Z=             -0.4147  Tot=              1.9092
 Quadrupole moment (field-independent basis, Debye-Ang):
   XX=            -54.2302   YY=            -50.0866   ZZ=            -54.8963
   XY=              6.2825   XZ=              2.7467   YZ=              1.6507

  Exact polarizability:  83.580  11.372  86.223   2.221   1.579  61.604
 Approx polarizability: 110.549  20.828 133.434   2.794   5.851  94.710

                      1                      2                      3
                      A                      A                      A
 Frequencies --     75.4938               105.7370               124.8852
 Red. masses --      4.2791                 3.3928                 3.8850
 Frc consts  --      0.0144                 0.0223                 0.0357
 IR Inten    --      1.0410                 2.5264                 0.5849

                      4                      5                      6
                      A                      A                      A
 Frequencies --    161.7712               204.4815               302.2184
 Red. masses --      3.7277                 2.6752                 3.3590
 Frc consts  --      0.0575                 0.0659                 0.1808
 IR Inten    --      0.2898                 0.5958                 1.0043

                      7                      8                      9
                      A                      A                      A
 Frequencies --    322.0718               350.2993               385.6852
 Red. masses --      2.2103                 3.2564                 1.1832
 Frc consts  --      0.1351                 0.2354                 0.1037
 IR Inten    --      6.8220                 6.9455               170.3343

                     10                     11                     12
                      A                      A                      A
 Frequencies --    395.5635               410.2327               500.7586
 Red. masses --      1.4642                 3.2209                 3.7758
 Frc consts  --      0.1350                 0.3194                 0.5578
 IR Inten    --     27.1762                36.9147                30.0863

                     13                     14                     15
                      A                      A                      A
 Frequencies --    539.1283               573.0063               637.8074
 Red. masses --      4.3982                 3.5915                 1.2159
 Frc consts  --      0.7532                 0.6948                 0.2914
 IR Inten    --      4.8353                 4.0216                49.3699

                     16                     17                     18
                      A                      A                      A
 Frequencies --    657.2955               772.9080               816.3166
 Red. masses --      1.2361                 1.0809                 3.5598
 Frc consts  --      0.3147                 0.3804                 1.3976
 IR Inten    --     39.0580                 1.1556                 5.9700

                     19                     20                     21
                      A                      A                      A
 Frequencies --    837.1832               907.6708               937.0287
 Red. masses --      2.5173                 1.5417                 1.7171
 Frc consts  --      1.0395                 0.7484                 0.8883
 IR Inten    --      8.0198                 1.1015                 6.1070

                     22                     23                     24
                      A                      A                      A
 Frequencies --    944.4154               987.6337              1048.2612
 Red. masses --      2.7469                 2.3659                 1.7853
 Frc consts  --      1.4435                 1.3597                 1.1558
 IR Inten    --     26.1859                10.3502                12.2083

                     25                     26                     27
                      A                      A                      A
 Frequencies --   1054.8021              1069.6525              1082.8456
 Red. masses --      1.4658                 3.3236                 1.9860
 Frc consts  --      0.9609                 2.2405                 1.3720
 IR Inten    --     11.4321                17.3792                48.2524

                     28                     29                     30
                      A                      A                      A
 Frequencies --   1087.9628              1189.3025              1199.3646
 Red. masses --      2.8713                 1.2727                 1.2289
 Frc consts  --      2.0024                 1.0606                 1.0415
 IR Inten    --     48.5691                 0.0974                 8.6838

                     31                     32                     33
                      A                      A                      A
 Frequencies --   1218.4261              1288.6094              1299.5691
 Red. masses --      1.5294                 1.9582                 2.0826
 Frc consts  --      1.3378                 1.9158                 2.0724
 IR Inten    --     43.7667                11.5900                69.4401

                     34                     35                     36
                      A                      A                      A
 Frequencies --   1330.2462              1379.5856              1409.1161
 Red. masses --      1.3560                 1.2246                 1.5317
 Frc consts  --      1.4137                 1.3733                 1.7919
 IR Inten    --     26.0735                 6.2131                13.7359

                     37                     38                     39
                      A                      A                      A
 Frequencies --   1423.3192              1454.6579              1502.9209
 Red. masses --      1.2202                 1.0916                 1.5874
 Frc consts  --      1.4565                 1.3610                 2.1125
 IR Inten    --     60.6470                 1.8809                10.9075

                     40                     41                     42
                      A                      A                      A
 Frequencies --   1510.3493              2220.4789              3018.9676
 Red. masses --      1.0997                 5.9397                 1.0662
 Frc consts  --      1.4780                17.2547                 5.7255
 IR Inten    --      0.2938                 1.4969                26.7491

                     43                     44                     45
                      A                      A                      A
 Frequencies --   3039.6843              3095.1620              3134.2735
 Red. masses --      1.0804                 1.0996                 1.0518
 Frc consts  --      5.8817                 6.2066                 6.0877
 IR Inten    --     14.9469                25.5132                11.5393

                     46                     47                     48
                      A                      A                      A
 Frequencies --   3139.1392              3220.7586              3234.4554
 Red. masses --      1.0577                 1.1183                 1.1157
 Frc consts  --      6.1412                 6.8349                 6.8770
 IR Inten    --      6.0952                 0.5452                 9.3325

                     49                     50                     51
                      A                      A                      A
 Frequencies --   3499.3144              3769.3807              3790.3081
 Red. masses --      1.1609                 1.0655                 1.0656
 Frc consts  --      8.3758                 8.9192                 9.0197
 IR Inten    --     72.6148                19.4089                22.2929

 - Thermochemistry -
 -------------------
 Temperature   298.150 Kelvin.  Pressure   1.00000 Atm.
 Atom     1 has atomic number  8 and mass  15.99491

 Molecular mass:   126.06808 amu.
 Principal axes and moments of inertia in atomic units:
                           1         2         3
     Eigenvalues --   791.268431444.655861812.94090
           X            0.99961   0.02159   0.01770
           Y           -0.02164   0.99976   0.00279
           Z           -0.01764  -0.00317   0.99984
 This molecule is an asymmetric top.
 Rotational symmetry number  1.
 Warning -- assumption of classical behavior for rotation
           may cause significant error
 Rotational temperatures (Kelvin)      0.10946     0.05995     0.04778
 Rotational constants (GHZ):           2.28082     1.24925     0.99548
 Zero-point vibrational energy     410681.0 (Joules/Mol)
                                   98.15512 (Kcal/Mol)
 Warning -- explicit consideration of  14 degrees of freedom as
           vibrations may cause significant error
 Vibrational temperatures:    108.62   152.13   179.68   232.75   294.20
          (Kelvin)            434.82   463.39   504.00   554.91   569.13
                              590.23   720.48   775.68   824.43   917.66
                              945.70  1112.04  1174.50  1204.52  1305.93
                             1348.17  1358.80  1420.98  1508.21  1517.62
                             1538.99  1557.97  1565.33  1711.14  1725.62
                             1753.04  1854.02  1869.79  1913.93  1984.91
                             2027.40  2047.84  2092.93  2162.37  2173.05
                             3194.77  4343.62  4373.42  4453.24  4509.51
                             4516.52  4633.95  4653.65  5034.73  5423.29
                             5453.40

 Zero-point correction=                           0.156420 (Hartree/Particle)
 Thermal correction to Energy=                    0.166273
 Thermal correction to Enthalpy=                  0.167218
 Thermal correction to Gibbs Free Energy=         0.121839
 Sum of electronic and zero-point Energies=           -422.968670
 Sum of electronic and thermal Energies=              -422.958817
 Sum of electronic and thermal Enthalpies=            -422.957873
 Sum of electronic and thermal Free Energies=         -423.003252

                     E (Thermal)             CV                S
                      KCal/Mol        Cal/Mol-Kelvin    Cal/Mol-Kelvin
 Total                  104.338             37.021             95.508
 Electronic               0.000              0.000              0.000
 Translational            0.889              2.981             40.409
 Rotational               0.889              2.981             29.118
 Vibrational            102.561             31.059             25.982
 Vibration     1          0.599              1.965              4.005
 Vibration     2          0.605              1.945              3.346
 Vibration     3          0.610              1.928              3.023
 Vibration     4          0.622              1.889              2.529
 Vibration     5          0.640              1.834              2.092
 Vibration     6          0.694              1.669              1.405
 Vibration     7          0.707              1.631              1.300
 Vibration     8          0.727              1.575              1.165
 Vibration     9          0.754              1.501              1.017
 Vibration    10          0.762              1.480              0.979
 Vibration    11          0.774              1.448              0.926
 Vibration    12          0.856              1.248              0.656
 Vibration    13          0.894              1.164              0.567
 Vibration    14          0.929              1.090              0.498

 Normal termination of Gaussian 09 at Tue Jan 28 10:15:21 2020.
