 Gaussian 09, Revision D.01,
 Gaussian 09:  ES64L-G09RevD.01 24-Apr-2013

 -----------------------------
 # b3lyp 6-31G(2df,p) opt Freq
 -----------------------------

 -----
 titel
 -----
 Symbolic Z-matrix:
 Charge =  0 Multiplicity = 1

 SCF Done:  E(RB3LYP) =  -423.145683847     A.U. after   15 cycles
 Optimization completed.
    -- Stationary point found.
 Normal termination of Gaussian 09 at Tue Jan 28 14:29:50 2020.

 ----------------------------------------------------------------------
 #N Geom=AllCheck Guess=TCheck SCRF=Check GenChk RB3LYP/6-31G(2df,p) Fr
 eq
 ----------------------------------------------------------------------

 Structure from the checkpoint file:  "/scratch/puck/g09_4d1bcf5f-4f7f-47b2-bd75-281031ac14d3/Gau-35047.chk"
 -----
 titel
 -----
 Charge =  0 Multiplicity = 1

                         Standard orientation:
 ---------------------------------------------------------------------
 Center     Atomic      Atomic             Coordinates (Angstroms)
 Number     Number       Type             X           Y           Z
 ---------------------------------------------------------------------
      1          6           0        3.617131    0.167000   -0.088990
      2          6           0        2.448978   -0.753946    0.216107
      3          8           0        1.251149   -0.105957   -0.175647
      4          6           0        0.095828   -0.869585    0.060700
      5          6           0       -1.106639   -0.024235   -0.389363
      6          6           0       -1.131790    1.293396    0.402974
      7          8           0       -1.179757    2.381725   -0.095449
      8          6           0       -2.359139   -0.732655   -0.157946
      9          6           0       -3.390383   -1.302632    0.079891
     10          1           0        4.559218   -0.305758    0.203645
     11          1           0        3.658154    0.393149   -1.158005
     12          1           0        3.515571    1.108987    0.456918
     13          1           0        2.552613   -1.708708   -0.325580
     14          1           0        2.411900   -0.994948    1.291487
     15          1           0        0.112979   -1.818589   -0.496943
     16          1           0       -0.006346   -1.119185    1.130412
     17          1           0       -0.992988    0.236382   -1.446748
     18          1           0       -1.119790    1.145176    1.506243
     19          1           0       -4.306357   -1.806714    0.267104
 ---------------------------------------------------------------------

 SCF Done:  E(RB3LYP) =  -423.145683847     A.U. after    1 cycles

 The electronic state is 1-A.
 Alpha  occ. eigenvalues --  -19.15299 -19.14496 -10.27806 -10.24838 -10.23807
 Alpha  occ. eigenvalues --  -10.22470 -10.19613 -10.18691 -10.18158  -1.05470
 Alpha  occ. eigenvalues --   -1.04717  -0.82724  -0.76473  -0.72853  -0.65943
 Alpha  occ. eigenvalues --   -0.61816  -0.59475  -0.54403  -0.51232  -0.49649
 Alpha  occ. eigenvalues --   -0.47204  -0.47049  -0.45791  -0.42640  -0.41014
 Alpha  occ. eigenvalues --   -0.38954  -0.38848  -0.36862  -0.35967  -0.33191
 Alpha  occ. eigenvalues --   -0.29354  -0.27998  -0.26878  -0.24951
 Alpha virt. eigenvalues --   -0.02757   0.04144   0.05296   0.08381   0.11182
 Alpha virt. eigenvalues --    0.11885   0.12305   0.13085   0.14372   0.15491
 Alpha virt. eigenvalues --    0.16664   0.17530   0.18629   0.19051   0.19946

 Mulliken charges:
               1
     1  C   -0.385716
     2  C   -0.033566
     3  O   -0.243031
     4  C   -0.069544
     5  C   -0.253951
     6  C    0.183333
     7  O   -0.235765
     8  C    0.287009
     9  C   -0.445065
    10  H    0.117905
    11  H    0.131384
    12  H    0.132438
    13  H    0.091625
    14  H    0.090992
    15  H    0.108254
    16  H    0.100651
    17  H    0.133595
    18  H    0.084444
    19  H    0.205008
 Sum of Mulliken charges =   0.00000

 Dipole moment (field-independent basis, Debye):
    X=              0.9520    Y=             -3.0873    Z=              0.9782  Tot=              3.3756
 Quadrupole moment (field-independent basis, Debye-Ang):
   XX=            -46.6312   YY=            -59.2426   ZZ=            -52.4765
   XY=              3.3247   XZ=             -0.8522   YZ=              0.8662

  Exact polarizability: 101.053  11.006  77.859  -2.267  -2.309  62.440
 Approx polarizability: 128.958  19.742 119.072  -6.558  -9.415  95.751

                      1                      2                      3
                      A                      A                      A
 Frequencies --     49.5943                70.9883                78.8975
 Red. masses --      3.1262                 3.5121                 2.5404
 Frc consts  --      0.0045                 0.0104                 0.0093
 IR Inten    --      0.0198                 2.1872                 1.5899

                      4                      5                      6
                      A                      A                      A
 Frequencies --     97.7210               144.5942               173.4914
 Red. masses --      3.8788                 3.3798                 2.8992
 Frc consts  --      0.0218                 0.0416                 0.0514
 IR Inten    --      1.5028                 3.8657                 4.2647

                      7                      8                      9
                      A                      A                      A
 Frequencies --    217.4691               248.0923               284.6416
 Red. masses --      3.5703                 1.1692                 2.4573
 Frc consts  --      0.0995                 0.0424                 0.1173
 IR Inten    --      0.2982                 0.4297                 2.9184

                     10                     11                     12
                      A                      A                      A
 Frequencies --    382.9643               411.4867               482.7746
 Red. masses --      4.5123                 3.9576                 4.2147
 Frc consts  --      0.3899                 0.3948                 0.5788
 IR Inten    --      2.4104                 8.7514                15.8438

                     13                     14                     15
                      A                      A                      A
 Frequencies --    492.9697               581.1050               646.7396
 Red. masses --      5.1905                 3.7978                 1.2290
 Frc consts  --      0.7432                 0.7556                 0.3029
 IR Inten    --      2.5319                 4.9967                42.8961

                     16                     17                     18
                      A                      A                      A
 Frequencies --    647.3210               821.3737               871.2752
 Red. masses --      1.2207                 1.0847                 1.9288
 Frc consts  --      0.3014                 0.4312                 0.8627
 IR Inten    --     44.2553                 0.2206                16.8724

                     19                     20                     21
                      A                      A                      A
 Frequencies --    898.3394               953.0308              1030.9575
 Red. masses --      2.0787                 2.3938                 2.6882
 Frc consts  --      0.9884                 1.2810                 1.6834
 IR Inten    --      6.0869                 2.2545                 5.3435

                     22                     23                     24
                      A                      A                      A
 Frequencies --   1049.6284              1080.3317              1116.2439
 Red. masses --      3.5259                 2.4562                 2.4814
 Frc consts  --      2.2887                 1.6890                 1.8216
 IR Inten    --      8.6174                 8.7036                20.3387

                     25                     26                     27
                      A                      A                      A
 Frequencies --   1152.3007              1164.8769              1188.0364
 Red. masses --      2.6394                 5.4027                 1.5438
 Frc consts  --      2.0648                 4.3194                 1.2838
 IR Inten    --     25.4692               236.2691                11.5234

                     28                     29                     30
                      A                      A                      A
 Frequencies --   1234.0870              1277.2599              1297.6045
 Red. masses --      1.2795                 1.3947                 1.1103
 Frc consts  --      1.1481                 1.3406                 1.1015
 IR Inten    --      5.4371                 5.4564                 2.2630

                     31                     32                     33
                      A                      A                      A
 Frequencies --   1304.8949              1380.1512              1405.3774
 Red. masses --      1.2109                 1.2491                 1.2449
 Frc consts  --      1.2148                 1.4018                 1.4486
 IR Inten    --      1.2725                51.8321                 4.5117

                     34                     35                     36
                      A                      A                      A
 Frequencies --   1416.3118              1444.2662              1483.6088
 Red. masses --      1.1864                 1.4478                 1.0400
 Frc consts  --      1.4021                 1.7793                 1.3487
 IR Inten    --     10.3034                 8.1264                 4.5552

                     37                     38                     39
                      A                      A                      A
 Frequencies --   1499.3259              1513.2730              1535.8231
 Red. masses --      1.0498                 1.0797                 1.0932
 Frc consts  --      1.3904                 1.4567                 1.5192
 IR Inten    --      3.2082                 5.1647                 2.5037

                     40                     41                     42
                      A                      A                      A
 Frequencies --   1850.1929              2234.8755              2880.8719
 Red. masses --     10.4198                 5.9335                 1.0841
 Frc consts  --     21.0156                17.4608                 5.3009
 IR Inten    --    186.4649                 1.1169                80.0393

                     43                     44                     45
                      A                      A                      A
 Frequencies --   2958.0107              2969.0409              2988.4516
 Red. masses --      1.0554                 1.0585                 1.1056
 Frc consts  --      5.4408                 5.4978                 5.8175
 IR Inten    --     17.6227                70.5659                56.9817

                     46                     47                     48
                      A                      A                      A
 Frequencies --   3005.1754              3047.6145              3068.6917
 Red. masses --      1.1010                 1.0347                 1.0836
 Frc consts  --      5.8582                 5.6622                 6.0122
 IR Inten    --     34.2484                15.4873                 6.1946

                     49                     50                     51
                      A                      A                      A
 Frequencies --   3122.7666              3125.5842              3502.8770
 Red. masses --      1.1016                 1.1028                 1.1622
 Frc consts  --      6.3291                 6.3478                 8.4017
 IR Inten    --     22.4685                22.6795                75.3079

 - Thermochemistry -
 -------------------
 Temperature   298.150 Kelvin.  Pressure   1.00000 Atm.
 Atom     1 has atomic number  6 and mass  12.00000

 Molecular mass:   126.06808 amu.
 Principal axes and moments of inertia in atomic units:
                           1         2         3
     Eigenvalues --   654.860222162.260842710.97849
           X            0.99998   0.00666  -0.00133
           Y           -0.00666   0.99998  -0.00168
           Z            0.00132   0.00169   1.00000
 This molecule is an asymmetric top.
 Rotational symmetry number  1.
 Warning -- assumption of classical behavior for rotation
           may cause significant error
 Rotational temperatures (Kelvin)      0.13226     0.04006     0.03195
 Rotational constants (GHZ):           2.75592     0.83465     0.66572
 Zero-point vibrational energy     406032.8 (Joules/Mol)
                                   97.04417 (Kcal/Mol)
 Warning -- explicit consideration of  14 degrees of freedom as
           vibrations may cause significant error
 Vibrational temperatures:     71.36   102.14   113.52   140.60   208.04
          (Kelvin)            249.62   312.89   356.95   409.54   551.00
                              592.04   694.60   709.27   836.08   930.51
                              931.35  1181.77  1253.57  1292.51  1371.20
                             1483.32  1510.18  1554.35  1606.02  1657.90
                             1676.00  1709.32  1775.57  1837.69  1866.96
                             1877.45  1985.73  2022.02  2037.75  2077.97
                             2134.58  2157.19  2177.26  2209.70  2662.01
                             3215.48  4144.93  4255.91  4271.78  4299.71
                             4323.77  4384.83  4415.16  4492.96  4497.01
                             5039.85

 Zero-point correction=                           0.154650 (Hartree/Particle)
 Thermal correction to Energy=                    0.165377
 Thermal correction to Enthalpy=                  0.166321
 Thermal correction to Gibbs Free Energy=         0.117519
 Sum of electronic and zero-point Energies=           -422.991034
 Sum of electronic and thermal Energies=              -422.980307
 Sum of electronic and thermal Enthalpies=            -422.979363
 Sum of electronic and thermal Free Energies=         -423.028164

                     E (Thermal)             CV                S
                      KCal/Mol        Cal/Mol-Kelvin    Cal/Mol-Kelvin
 Total                  103.775             36.704            102.711
 Electronic               0.000              0.000              0.000
 Translational            0.889              2.981             40.409
 Rotational               0.889              2.981             29.730
 Vibrational            101.998             30.742             32.573
 Vibration     1          0.595              1.978              4.834
 Vibration     2          0.598              1.968              4.126
 Vibration     3          0.600              1.963              3.918
 Vibration     4          0.603              1.951              3.499
 Vibration     5          0.616              1.909              2.742
 Vibration     6          0.627              1.875              2.397
 Vibration     7          0.646              1.814              1.980
 Vibration     8          0.662              1.766              1.744
 Vibration     9          0.683              1.702              1.506
 Vibration    10          0.752              1.507              1.027
 Vibration    11          0.775              1.445              0.921
 Vibration    12          0.839              1.288              0.703
 Vibration    13          0.849              1.266              0.676
 Vibration    14          0.938              1.072              0.483

 Optimization completed.
    -- Stationary point found.
 Normal termination of Gaussian 09 at Tue Jan 28 15:00:16 2020.
