 Gaussian 09, Revision D.01,
 Gaussian 09:  ES64L-G09RevD.01 24-Apr-2013

 -----------------------------
 # b3lyp 6-31G(2df,p) opt Freq
 -----------------------------

 -----
 titel
 -----
 Symbolic Z-matrix:
 Charge =  0 Multiplicity = 1

 SCF Done:  E(RB3LYP) =  -423.135182386     A.U. after   14 cycles
 SCF Done:  E(RB3LYP) =  -423.135182211     A.U. after    8 cycles
 SCF Done:  E(RB3LYP) =  -423.135182461     A.U. after    8 cycles
 SCF Done:  E(RB3LYP) =  -423.135182775     A.U. after    7 cycles
 SCF Done:  E(RB3LYP) =  -423.135182827     A.U. after    7 cycles
 SCF Done:  E(RB3LYP) =  -423.135182827     A.U. after    7 cycles
 SCF Done:  E(RB3LYP) =  -423.135182865     A.U. after    7 cycles
 SCF Done:  E(RB3LYP) =  -423.135182899     A.U. after    7 cycles
 SCF Done:  E(RB3LYP) =  -423.135182933     A.U. after    9 cycles
 SCF Done:  E(RB3LYP) =  -423.135183070     A.U. after    9 cycles
 SCF Done:  E(RB3LYP) =  -423.135183611     A.U. after    9 cycles
 SCF Done:  E(RB3LYP) =  -423.135183971     A.U. after   10 cycles
 SCF Done:  E(RB3LYP) =  -423.135183978     A.U. after    6 cycles
 SCF Done:  E(RB3LYP) =  -423.135183936     A.U. after    7 cycles
 Optimization completed on the basis of negligible forces.
    -- Stationary point found.
 Normal termination of Gaussian 09 at Mon Jan 27 14:51:07 2020.

 ----------------------------------------------------------------------
 #N Geom=AllCheck Guess=TCheck SCRF=Check GenChk RB3LYP/6-31G(2df,p) Fr
 eq
 ----------------------------------------------------------------------

 Structure from the checkpoint file:  "/scratch/puck/g09_ac3d5b3d-ee49-4644-9208-657b434c207b/Gau-49773.chk"
 -----
 titel
 -----
 Charge =  0 Multiplicity = 1

                         Standard orientation:
 ---------------------------------------------------------------------
 Center     Atomic      Atomic             Coordinates (Angstroms)
 Number     Number       Type             X           Y           Z
 ---------------------------------------------------------------------
      1          6           0        3.657472   -0.612984   -0.078479
      2          6           0        2.266418   -0.186053   -0.037187
      3          6           0        1.117430    0.172063    0.006779
      4          6           0       -0.296530    0.586040    0.060025
      5          6           0       -0.490906    1.953953   -0.604524
      6          8           0       -0.740606    0.712856    1.405146
      7          6           0       -1.143550   -0.478498   -0.651630
      8          6           0       -2.547384   -0.694084   -0.292131
      9          8           0       -1.517079   -1.586952    0.166588
     10          1           0        4.096326   -0.621865    0.925249
     11          1           0        3.752228   -1.623271   -0.491228
     12          1           0        4.261740    0.058571   -0.698211
     13          1           0       -0.189630    1.919592   -1.654723
     14          1           0       -1.541711    2.248212   -0.539291
     15          1           0        0.118582    2.700710   -0.091237
     16          1           0       -0.785016   -0.189448    1.751404
     17          1           0       -0.802565   -0.745198   -1.651419
     18          1           0       -2.995247   -0.078363    0.483145
     19          1           0       -3.230921   -1.118796   -1.024675
 ---------------------------------------------------------------------

 SCF Done:  E(RB3LYP) =  -423.135183936     A.U. after    1 cycles

 The electronic state is 1-A.
 Alpha  occ. eigenvalues --  -19.15962 -19.13701 -10.26217 -10.24151 -10.23604
 Alpha  occ. eigenvalues --  -10.20474 -10.18048 -10.17734 -10.16570  -1.07980
 Alpha  occ. eigenvalues --   -1.02026  -0.79376  -0.76516  -0.69628  -0.67731
 Alpha  occ. eigenvalues --   -0.65325  -0.59048  -0.53127  -0.52445  -0.48463
 Alpha  occ. eigenvalues --   -0.45446  -0.43550  -0.42714  -0.42600  -0.41752
 Alpha  occ. eigenvalues --   -0.38873  -0.38564  -0.37672  -0.34652  -0.31651
 Alpha  occ. eigenvalues --   -0.29145  -0.27431  -0.25314  -0.25013
 Alpha virt. eigenvalues --    0.04470   0.05363   0.10057   0.10221   0.10971
 Alpha virt. eigenvalues --    0.11330   0.12774   0.13578   0.16598   0.17393
 Alpha virt. eigenvalues --    0.17679   0.17874   0.18995   0.19597   0.20586

 Mulliken charges:
               1
     1  C   -0.499878
     2  C    0.032329
     3  C    0.097242
     4  C    0.122872
     5  C   -0.401502
     6  O   -0.449847
     7  C    0.066052
     8  C   -0.188266
     9  O   -0.252053
    10  H    0.152797
    11  H    0.150302
    12  H    0.149185
    13  H    0.122165
    14  H    0.121943
    15  H    0.137475
    16  H    0.289641
    17  H    0.101910
    18  H    0.129995
    19  H    0.117639
 Sum of Mulliken charges =   0.00000

 Dipole moment (field-independent basis, Debye):
    X=              0.3963    Y=              0.0970    Z=             -1.5118  Tot=              1.5659
 Quadrupole moment (field-independent basis, Debye-Ang):
   XX=            -43.1214   YY=            -56.2032   ZZ=            -52.4194
   XY=             -2.0256   XZ=              1.4959   YZ=             -1.4430

  Exact polarizability: 111.092  -5.791  67.888  -1.131  -0.121  62.552
 Approx polarizability: 151.421 -13.606  98.950  -4.797  -0.935  94.700

                      1                      2                      3
                      A                      A                      A
 Frequencies --     25.7139                68.6600                99.6460
 Red. masses --      1.0205                 4.3652                 3.2355
 Frc consts  --      0.0004                 0.0121                 0.0189
 IR Inten    --      0.0199                 1.0096                 4.6581

                      4                      5                      6
                      A                      A                      A
 Frequencies --    140.2261               219.2589               226.0019
 Red. masses --      3.4686                 1.3870                 1.9034
 Frc consts  --      0.0402                 0.0393                 0.0573
 IR Inten    --      3.6993                 2.9917                 2.1632

                      7                      8                      9
                      A                      A                      A
 Frequencies --    273.0131               290.1396               329.7725
 Red. masses --      3.3123                 3.5563                 3.8562
 Frc consts  --      0.1455                 0.1764                 0.2471
 IR Inten    --      4.8484                 3.3352                 3.3879

                     10                     11                     12
                      A                      A                      A
 Frequencies --    362.1644               409.8951               448.5818
 Red. masses --      3.2103                 2.3086                 4.9136
 Frc consts  --      0.2481                 0.2285                 0.5826
 IR Inten    --     23.9364                32.4441                 3.1708

                     13                     14                     15
                      A                      A                      A
 Frequencies --    481.5794               557.1019               608.1472
 Red. masses --      1.5128                 6.6676                 4.5313
 Frc consts  --      0.2067                 1.2192                 0.9874
 IR Inten    --     77.9464                15.8591                22.9665

                     16                     17                     18
                      A                      A                      A
 Frequencies --    692.6658               817.1819               874.8248
 Red. masses --      2.6766                 2.9654                 5.0474
 Frc consts  --      0.7566                 1.1667                 2.2759
 IR Inten    --      8.4879                26.7042                10.8218

                     19                     20                     21
                      A                      A                      A
 Frequencies --    923.0039               940.0523              1015.4549
 Red. masses --      2.4382                 2.8574                 1.5183
 Frc consts  --      1.2239                 1.4878                 0.9224
 IR Inten    --     27.4372                19.2406                15.0364

                     22                     23                     24
                      A                      A                      A
 Frequencies --   1040.6996              1052.0508              1053.6032
 Red. masses --      2.1844                 1.4146                 1.4025
 Frc consts  --      1.3939                 0.9225                 0.9173
 IR Inten    --     14.4634                 1.3642                 1.5889

                     25                     26                     27
                      A                      A                      A
 Frequencies --   1094.5506              1103.6291              1162.2236
 Red. masses --      2.1328                 1.3399                 1.4333
 Frc consts  --      1.5054                 0.9615                 1.1407
 IR Inten    --     39.5623                 7.4512                 2.7972

                     28                     29                     30
                      A                      A                      A
 Frequencies --   1169.4557              1202.6850              1225.9458
 Red. masses --      1.3719                 2.7785                 3.3737
 Frc consts  --      1.1055                 2.3679                 2.9875
 IR Inten    --      0.6691                15.1924                56.3804

                     31                     32                     33
                      A                      A                      A
 Frequencies --   1284.3480              1375.4346              1407.1470
 Red. masses --      1.5599                 1.3971                 1.3461
 Frc consts  --      1.5160                 1.5573                 1.5704
 IR Inten    --     12.9297                58.1509                20.3955

                     34                     35                     36
                      A                      A                      A
 Frequencies --   1413.4057              1423.2253              1477.1578
 Red. masses --      1.2449                 1.7790                 1.0397
 Frc consts  --      1.4653                 2.1231                 1.3367
 IR Inten    --      6.8150                17.2693                 6.4840

                     37                     38                     39
                      A                      A                      A
 Frequencies --   1478.1322              1481.0138              1491.8478
 Red. masses --      1.0398                 1.0610                 1.0507
 Frc consts  --      1.3386                 1.3711                 1.3778
 IR Inten    --      5.4945                 0.6184                 0.7155

                     40                     41                     42
                      A                      A                      A
 Frequencies --   1513.5489              2365.6442              3028.4229
 Red. masses --      1.3660                11.8965                 1.0347
 Frc consts  --      1.8437                39.2255                 5.5910
 IR Inten    --      2.8531                14.4840                30.7270

                     43                     44                     45
                      A                      A                      A
 Frequencies --   3050.4096              3089.8468              3090.7102
 Red. masses --      1.0338                 1.1003                 1.1001
 Frc consts  --      5.6678                 6.1890                 6.1918
 IR Inten    --     12.7751                 9.4580                 8.6740

                     46                     47                     48
                      A                      A                      A
 Frequencies --   3100.2972              3121.3195              3130.0023
 Red. masses --      1.0511                 1.0897                 1.1020
 Frc consts  --      5.9523                 6.2554                 6.3610
 IR Inten    --     24.5020                12.1257                23.3927

                     49                     50                     51
                      A                      A                      A
 Frequencies --   3137.0973              3197.7050              3754.2620
 Red. masses --      1.1025                 1.1186                 1.0650
 Frc consts  --      6.3925                 6.7392                 8.8442
 IR Inten    --     14.0338                12.4377                36.2226

 - Thermochemistry -
 -------------------
 Temperature   298.150 Kelvin.  Pressure   1.00000 Atm.
 Atom     1 has atomic number  6 and mass  12.00000

 Molecular mass:   126.06808 amu.
 Principal axes and moments of inertia in atomic units:
                           1         2         3
     Eigenvalues --   669.188801811.738962093.12887
           X            0.99974  -0.02226   0.00518
           Y            0.02241   0.99924  -0.03194
           Z           -0.00446   0.03204   0.99948
 This molecule is an asymmetric top.
 Rotational symmetry number  1.
 Warning -- assumption of classical behavior for rotation
           may cause significant error
 Rotational temperatures (Kelvin)      0.12943     0.04781     0.04138
 Rotational constants (GHZ):           2.69691     0.99614     0.86222
 Zero-point vibrational energy     408637.8 (Joules/Mol)
                                   97.66678 (Kcal/Mol)
 Warning -- explicit consideration of  15 degrees of freedom as
           vibrations may cause significant error
 Vibrational temperatures:     37.00    98.79   143.37   201.75   315.46
          (Kelvin)            325.17   392.80   417.45   474.47   521.07
                              589.75   645.41   692.88   801.54   874.99
                              996.59  1175.74  1258.68  1328.00  1352.52
                             1461.01  1497.33  1513.66  1515.90  1574.81
                             1587.87  1672.18  1682.58  1730.39  1763.86
                             1847.89  1978.94  2024.57  2033.57  2047.70
                             2125.30  2126.70  2130.85  2146.43  2177.66
                             3403.63  4357.22  4388.85  4445.59  4446.84
                             4460.63  4490.88  4503.37  4513.58  4600.78
                             5401.54

 Zero-point correction=                           0.155642 (Hartree/Particle)
 Thermal correction to Energy=                    0.166027
 Thermal correction to Enthalpy=                  0.166971
 Thermal correction to Gibbs Free Energy=         0.119124
 Sum of electronic and zero-point Energies=           -422.979542
 Sum of electronic and thermal Energies=              -422.969157
 Sum of electronic and thermal Enthalpies=            -422.968213
 Sum of electronic and thermal Free Energies=         -423.016060

                     E (Thermal)             CV                S
                      KCal/Mol        Cal/Mol-Kelvin    Cal/Mol-Kelvin
 Total                  104.184             36.852            100.703
 Electronic               0.000              0.000              0.000
 Translational            0.889              2.981             40.409
 Rotational               0.889              2.981             29.319
 Vibrational            102.406             30.890             30.975
 Vibration     1          0.593              1.985              6.135
 Vibration     2          0.598              1.969              4.191
 Vibration     3          0.604              1.949              3.461
 Vibration     4          0.615              1.913              2.801
 Vibration     5          0.647              1.812              1.965
 Vibration     6          0.650              1.801              1.910
 Vibration     7          0.676              1.723              1.577
 Vibration     8          0.686              1.692              1.473
 Vibration     9          0.713              1.616              1.261
 Vibration    10          0.736              1.550              1.113
 Vibration    11          0.774              1.449              0.927
 Vibration    12          0.808              1.364              0.800
 Vibration    13          0.838              1.291              0.706
 Vibration    14          0.913              1.124              0.530
 Vibration    15          0.967              1.015              0.436

 Optimization completed on the basis of negligible forces.
    -- Stationary point found.
 Normal termination of Gaussian 09 at Mon Jan 27 15:27:33 2020.
