 Gaussian 09, Revision D.01,
 Gaussian 09:  ES64L-G09RevD.01 24-Apr-2013

 -----------------------------
 # b3lyp 6-31G(2df,p) opt Freq
 -----------------------------

 -----
 titel
 -----
 Symbolic Z-matrix:
 Charge =  0 Multiplicity = 1

 SCF Done:  E(RB3LYP) =  -423.165162461     A.U. after   14 cycles
 Optimization completed.
    -- Stationary point found.
 Normal termination of Gaussian 09 at Tue Jan 28 00:05:26 2020.

 ----------------------------------------------------------------------
 #N Geom=AllCheck Guess=TCheck SCRF=Check GenChk RB3LYP/6-31G(2df,p) Fr
 eq
 ----------------------------------------------------------------------

 Structure from the checkpoint file:  "/scratch/puck/g09_47453597-5bdb-4ab3-b2f6-51f441d48d0b/Gau-84033.chk"
 -----
 titel
 -----
 Charge =  0 Multiplicity = 1

                         Standard orientation:
 ---------------------------------------------------------------------
 Center     Atomic      Atomic             Coordinates (Angstroms)
 Number     Number       Type             X           Y           Z
 ---------------------------------------------------------------------
      1          6           0        1.309455    1.549555    0.834353
      2          6           0        0.439923    0.604857    0.025225
      3          6           0       -0.717671    1.228086   -0.669607
      4          6           0       -1.945967    0.737370   -0.519145
      5          6           0       -2.185015   -0.503924    0.302785
      6          8           0       -1.068916   -1.387341    0.315001
      7          6           0        0.168089   -0.784292    0.559804
      8          6           0        1.096796   -0.607755   -0.619697
      9          8           0        2.475656   -0.747297   -0.459830
     10          1           0        1.699202    2.352439    0.198102
     11          1           0        0.733814    2.011525    1.643157
     12          1           0        2.165457    1.024772    1.261978
     13          1           0       -0.529468    2.112864   -1.273234
     14          1           0       -2.809237    1.207435   -0.980817
     15          1           0       -2.469305   -0.228546    1.333135
     16          1           0       -3.013807   -1.087143   -0.111238
     17          1           0        0.618930   -1.054859    1.515001
     18          1           0        0.691347   -0.922254   -1.581396
     19          1           0        2.665488   -1.682519   -0.328359
 ---------------------------------------------------------------------

 SCF Done:  E(RB3LYP) =  -423.165162461     A.U. after    1 cycles

 The electronic state is 1-A.
 Alpha  occ. eigenvalues --  -19.14568 -19.14142 -10.23198 -10.23022 -10.22688
 Alpha  occ. eigenvalues --  -10.19746 -10.18439 -10.18278 -10.17502  -1.04064
 Alpha  occ. eigenvalues --   -1.02611  -0.85256  -0.78565  -0.70763  -0.67932
 Alpha  occ. eigenvalues --   -0.61116  -0.58564  -0.52451  -0.50986  -0.49908
 Alpha  occ. eigenvalues --   -0.47530  -0.44120  -0.43329  -0.40578  -0.40377
 Alpha  occ. eigenvalues --   -0.39895  -0.38542  -0.35351  -0.35218  -0.31031
 Alpha  occ. eigenvalues --   -0.30611  -0.26537  -0.23962  -0.23143
 Alpha virt. eigenvalues --    0.01319   0.08079   0.10199   0.11815   0.12347
 Alpha virt. eigenvalues --    0.12907   0.14306   0.15970   0.16492   0.17267
 Alpha virt. eigenvalues --    0.18362   0.18957   0.20068   0.21196   0.23744

 Mulliken charges:
               1
     1  C   -0.460417
     2  C    0.227048
     3  C   -0.135095
     4  C   -0.081090
     5  C   -0.121243
     6  O   -0.260152
     7  C   -0.012369
     8  C    0.021532
     9  O   -0.421142
    10  H    0.119044
    11  H    0.115326
    12  H    0.132853
    13  H    0.090921
    14  H    0.095648
    15  H    0.102877
    16  H    0.115562
    17  H    0.086590
    18  H    0.093428
    19  H    0.290679
 Sum of Mulliken charges =   0.00000

 Dipole moment (field-independent basis, Debye):
    X=             -0.5691    Y=              0.0716    Z=              0.2844  Tot=              0.6402
 Quadrupole moment (field-independent basis, Debye-Ang):
   XX=            -51.4149   YY=            -51.8226   ZZ=            -52.7577
   XY=             -4.4642   XZ=              1.4814   YZ=             -0.2037

  Exact polarizability:  95.813   1.060  73.655   1.002  -2.860  62.849
 Approx polarizability: 137.236   4.977 108.987  -2.520  -5.563  94.606

                      1                      2                      3
                      A                      A                      A
 Frequencies --    129.1656               166.3220               179.1273
 Red. masses --      3.1893                 2.4289                 1.1240
 Frc consts  --      0.0314                 0.0396                 0.0212
 IR Inten    --      0.7398                 1.4472                 4.1525

                      4                      5                      6
                      A                      A                      A
 Frequencies --    242.1020               271.8969               293.5376
 Red. masses --      2.4728                 1.5449                 2.1218
 Frc consts  --      0.0854                 0.0673                 0.1077
 IR Inten    --     26.1262                36.8028                16.0211

                      7                      8                      9
                      A                      A                      A
 Frequencies --    306.2089               345.3128               439.8086
 Red. masses --      3.7257                 2.3488                 4.0619
 Frc consts  --      0.2058                 0.1650                 0.4629
 IR Inten    --     23.0614                14.0745                 2.5776

                     10                     11                     12
                      A                      A                      A
 Frequencies --    472.6321               550.2052               579.5033
 Red. masses --      3.2907                 5.7166                 3.8494
 Frc consts  --      0.4331                 1.0196                 0.7616
 IR Inten    --      0.9255                 6.1031                 8.3696

                     13                     14                     15
                      A                      A                      A
 Frequencies --    686.8710               718.8530               831.4118
 Red. masses --      4.1613                 1.4120                 3.2639
 Frc consts  --      1.1567                 0.4299                 1.3293
 IR Inten    --      3.4853                27.1716                 7.8856

                     16                     17                     18
                      A                      A                      A
 Frequencies --    870.7702               919.6494               949.0625
 Red. masses --      3.0536                 3.3021                 2.0842
 Frc consts  --      1.3642                 1.6454                 1.1061
 IR Inten    --      5.4830                 4.0432                 3.8320

                     19                     20                     21
                      A                      A                      A
 Frequencies --    986.3311              1001.0616              1004.1481
 Red. masses --      1.4197                 1.6855                 1.7964
 Frc consts  --      0.8137                 0.9952                 1.0672
 IR Inten    --      2.9919                13.6155                 0.6548

                     22                     23                     24
                      A                      A                      A
 Frequencies --   1040.1592              1052.9643              1081.5111
 Red. masses --      1.7820                 1.9104                 1.7594
 Frc consts  --      1.1360                 1.2480                 1.2125
 IR Inten    --      1.2013                20.6088                 1.3637

                     25                     26                     27
                      A                      A                      A
 Frequencies --   1114.4472              1143.1751              1179.3797
 Red. masses --      1.7790                 3.1890                 3.7907
 Frc consts  --      1.3018                 2.4555                 3.1065
 IR Inten    --     12.8739               168.6538                 4.6366

                     28                     29                     30
                      A                      A                      A
 Frequencies --   1199.3258              1235.9017              1265.4504
 Red. masses --      1.3535                 2.2241                 1.1213
 Frc consts  --      1.1470                 2.0016                 1.0579
 IR Inten    --     45.2482                 1.3871                 2.8605

                     31                     32                     33
                      A                      A                      A
 Frequencies --   1289.7028              1311.1786              1334.7232
 Red. masses --      1.3236                 1.5517                 1.3057
 Frc consts  --      1.2972                 1.5717                 1.3705
 IR Inten    --     33.4715                 6.4429                 0.5553

                     34                     35                     36
                      A                      A                      A
 Frequencies --   1390.2593              1407.4165              1416.4150
 Red. masses --      1.4083                 1.3540                 1.7263
 Frc consts  --      1.6038                 1.5802                 2.0406
 IR Inten    --      4.3984                 2.0865                 6.2422

                     37                     38                     39
                      A                      A                      A
 Frequencies --   1455.1132              1491.2959              1495.3665
 Red. masses --      1.9529                 1.0646                 1.1101
 Frc consts  --      2.4362                 1.3950                 1.4625
 IR Inten    --      8.4059                 3.1409                 2.7718

                     40                     41                     42
                      A                      A                      A
 Frequencies --   1500.7601              1713.2284              2956.2054
 Red. masses --      1.0963                 6.9902                 1.0722
 Frc consts  --      1.4548                12.0884                 5.5208
 IR Inten    --      7.5392                 3.0393                59.6619

                     43                     44                     45
                      A                      A                      A
 Frequencies --   3032.9411              3069.9332              3091.1397
 Red. masses --      1.0378                 1.0887                 1.1007
 Frc consts  --      5.6246                 6.0450                 6.1968
 IR Inten    --     33.8184                33.8015                21.0091

                     46                     47                     48
                      A                      A                      A
 Frequencies --   3098.7753              3107.2019              3135.2208
 Red. masses --      1.0894                 1.0865                 1.0984
 Frc consts  --      6.1631                 6.1804                 6.3615
 IR Inten    --     17.8617                34.3929                12.9225

                     49                     50                     51
                      A                      A                      A
 Frequencies --   3149.1017              3178.9139              3800.2035
 Red. masses --      1.0850                 1.0968                 1.0662
 Frc consts  --      6.3395                 6.5305                 9.0721
 IR Inten    --      9.9498                21.8906                25.1281

 - Thermochemistry -
 -------------------
 Temperature   298.150 Kelvin.  Pressure   1.00000 Atm.
 Atom     1 has atomic number  6 and mass  12.00000

 Molecular mass:   126.06808 amu.
 Principal axes and moments of inertia in atomic units:
                           1         2         3
     Eigenvalues --   643.151421241.752531563.29039
           X            0.99987   0.00697   0.01435
           Y           -0.00721   0.99984   0.01637
           Z           -0.01423  -0.01647   0.99976
 This molecule is an asymmetric top.
 Rotational symmetry number  1.
 Warning -- assumption of classical behavior for rotation
           may cause significant error
 Rotational temperatures (Kelvin)      0.13467     0.06975     0.05540
 Rotational constants (GHZ):           2.80609     1.45338     1.15445
 Zero-point vibrational energy     416787.3 (Joules/Mol)
                                   99.61455 (Kcal/Mol)
 Warning -- explicit consideration of  12 degrees of freedom as
           vibrations may cause significant error
 Vibrational temperatures:    185.84   239.30   257.72   348.33   391.20
          (Kelvin)            422.33   440.57   496.83   632.79   680.01
                              791.62   833.77   988.25  1034.27  1196.21
                             1252.84  1323.17  1365.49  1419.11  1440.30
                             1444.74  1496.56  1514.98  1556.05  1603.44
                             1644.77  1696.86  1725.56  1778.18  1820.70
                             1855.59  1886.49  1920.37  2000.27  2024.96
                             2037.90  2093.58  2145.64  2151.50  2159.26
                             2464.95  4253.31  4363.72  4416.94  4447.46
                             4458.44  4470.56  4510.88  4530.85  4573.74
                             5467.64

 Zero-point correction=                           0.158746 (Hartree/Particle)
 Thermal correction to Energy=                    0.167341
 Thermal correction to Enthalpy=                  0.168285
 Thermal correction to Gibbs Free Energy=         0.126034
 Sum of electronic and zero-point Energies=           -423.006417
 Sum of electronic and thermal Energies=              -422.997821
 Sum of electronic and thermal Enthalpies=            -422.996877
 Sum of electronic and thermal Free Energies=         -423.039129

                     E (Thermal)             CV                S
                      KCal/Mol        Cal/Mol-Kelvin    Cal/Mol-Kelvin
 Total                  105.008             33.153             88.925
 Electronic               0.000              0.000              0.000
 Translational            0.889              2.981             40.409
 Rotational               0.889              2.981             28.614
 Vibrational            103.231             27.191             19.903
 Vibration     1          0.612              1.924              2.958
 Vibration     2          0.624              1.884              2.477
 Vibration     3          0.629              1.868              2.337
 Vibration     4          0.658              1.776              1.787
 Vibration     5          0.675              1.725              1.584
 Vibration     6          0.688              1.686              1.453
 Vibration     7          0.697              1.662              1.383
 Vibration     8          0.724              1.585              1.187
 Vibration     9          0.800              1.383              0.827
 Vibration    10          0.829              1.311              0.730
 Vibration    11          0.905              1.139              0.544
 Vibration    12          0.936              1.076              0.486

 Normal termination of Gaussian 09 at Tue Jan 28 00:52:33 2020.
