 Gaussian 09, Revision D.01,
 Gaussian 09:  ES64L-G09RevD.01 24-Apr-2013

 -----------------------------
 # b3lyp 6-31G(2df,p) opt Freq
 -----------------------------

 -----
 titel
 -----
 Symbolic Z-matrix:
 Charge =  0 Multiplicity = 1

 SCF Done:  E(RB3LYP) =  -423.163709610     A.U. after   13 cycles
 Optimization completed.
    -- Stationary point found.
 Normal termination of Gaussian 09 at Mon Jan 27 18:24:27 2020.

 ----------------------------------------------------------------------
 #N Geom=AllCheck Guess=TCheck SCRF=Check GenChk RB3LYP/6-31G(2df,p) Fr
 eq
 ----------------------------------------------------------------------

 Structure from the checkpoint file:  "/scratch/puck/g09_bce7a6a5-a6ac-497b-a99c-28c0db63be58/Gau-4424.chk"
 -----
 titel
 -----
 Charge =  0 Multiplicity = 1

                         Standard orientation:
 ---------------------------------------------------------------------
 Center     Atomic      Atomic             Coordinates (Angstroms)
 Number     Number       Type             X           Y           Z
 ---------------------------------------------------------------------
      1          8           0       -2.347034    0.001348   -0.455776
      2          6           0       -0.992817    0.139496   -0.177602
      3          6           0       -0.341562    1.483841   -0.492238
      4          6           0        0.732787    1.118754    0.580220
      5          6           0        1.895947    0.353389   -0.068434
      6          6           0        1.299598   -0.728703   -1.005324
      7          6           0       -0.053707   -1.110438   -0.417702
      8          8           0        0.117493   -1.289454    1.024298
      9          6           0       -0.290496    0.075138    1.199897
     10          1           0       -2.644776   -0.850855   -0.117501
     11          1           0       -0.002558    1.687461   -1.512081
     12          1           0       -0.997736    2.294462   -0.163745
     13          1           0        1.065475    1.922846    1.237283
     14          1           0        2.551010    1.037053   -0.617378
     15          1           0        2.496809   -0.124068    0.710198
     16          1           0        1.167250   -0.355074   -2.027050
     17          1           0        1.953427   -1.604252   -1.064366
     18          1           0       -0.526205   -1.981073   -0.884368
     19          1           0       -0.724862    0.289491    2.177932
 ---------------------------------------------------------------------

 SCF Done:  E(RB3LYP) =  -423.163709610     A.U. after    1 cycles

 The electronic state is 1-A.
 Alpha  occ. eigenvalues --  -19.14715 -19.13105 -10.23614 -10.23252 -10.22480
 Alpha  occ. eigenvalues --  -10.18934 -10.18346 -10.18191 -10.18031  -1.05160
 Alpha  occ. eigenvalues --   -1.02050  -0.84140  -0.76518  -0.71306  -0.64270
 Alpha  occ. eigenvalues --   -0.60623  -0.59679  -0.54044  -0.51677  -0.48781
 Alpha  occ. eigenvalues --   -0.47191  -0.43941  -0.41600  -0.40125  -0.38731
 Alpha  occ. eigenvalues --   -0.38192  -0.36876  -0.36354  -0.34972  -0.32197
 Alpha  occ. eigenvalues --   -0.31235  -0.28187  -0.25602  -0.23426
 Alpha virt. eigenvalues --    0.07547   0.08506   0.09564   0.11359   0.13204
 Alpha virt. eigenvalues --    0.13648   0.15073   0.15494   0.16075   0.17464
 Alpha virt. eigenvalues --    0.18320   0.19062   0.20328   0.21470   0.22245

 Mulliken charges:
               1
     1  O   -0.492901
     2  C    0.420690
     3  C   -0.292911
     4  C   -0.071659
     5  C   -0.198934
     6  C   -0.224344
     7  C    0.008708
     8  O   -0.304402
     9  C    0.030228
    10  H    0.285146
    11  H    0.096845
    12  H    0.109336
    13  H    0.070386
    14  H    0.094967
    15  H    0.113235
    16  H    0.104503
    17  H    0.105131
    18  H    0.069262
    19  H    0.076713
 Sum of Mulliken charges =   0.00000

 Dipole moment (field-independent basis, Debye):
    X=              0.3546    Y=              0.1987    Z=             -0.3886  Tot=              0.5623
 Quadrupole moment (field-independent basis, Debye-Ang):
   XX=            -53.4523   YY=            -52.6760   ZZ=            -53.3337
   XY=              3.6819   XZ=             -2.7320   YZ=              3.3256

  Exact polarizability:  76.492   1.247  73.588  -1.547   2.599  68.940
 Approx polarizability: 106.297   1.196 109.654   0.165   0.032 106.986

                      1                      2                      3
                      A                      A                      A
 Frequencies --    223.9738               261.5051               307.4292
 Red. masses --      2.6504                 1.8016                 3.2736
 Frc consts  --      0.0783                 0.0726                 0.1823
 IR Inten    --      8.5079                 0.9365                11.9152

                      4                      5                      6
                      A                      A                      A
 Frequencies --    321.2427               374.6873               430.1196
 Red. masses --      1.3341                 2.5818                 2.5796
 Frc consts  --      0.0811                 0.2136                 0.2812
 IR Inten    --     73.9696                 7.3161                 9.2102

                      7                      8                      9
                      A                      A                      A
 Frequencies --    458.7958               518.1727               613.2484
 Red. masses --      3.3101                 4.7476                 4.7524
 Frc consts  --      0.4105                 0.7511                 1.0530
 IR Inten    --      0.4365                 2.1780                 0.6251

                     10                     11                     12
                      A                      A                      A
 Frequencies --    677.5756               730.0603               787.0339
 Red. masses --      3.2421                 2.9671                 2.2455
 Frc consts  --      0.8770                 0.9318                 0.8195
 IR Inten    --      7.6346                 2.9905                 1.6999

                     13                     14                     15
                      A                      A                      A
 Frequencies --    804.0432               851.2572               888.9287
 Red. masses --      2.4004                 2.3314                 2.5286
 Frc consts  --      0.9143                 0.9954                 1.1772
 IR Inten    --      2.5907                 2.2433                18.2736

                     16                     17                     18
                      A                      A                      A
 Frequencies --    901.1609               909.8649               956.2897
 Red. masses --      2.8743                 2.2582                 1.9584
 Frc consts  --      1.3753                 1.1015                 1.0552
 IR Inten    --      9.7547                 6.7051                 1.5078

                     19                     20                     21
                      A                      A                      A
 Frequencies --    982.6266              1006.5454              1024.8959
 Red. masses --      2.9232                 3.2036                 1.7214
 Frc consts  --      1.6630                 1.9123                 1.0654
 IR Inten    --     47.8257                36.3420                 4.4471

                     22                     23                     24
                      A                      A                      A
 Frequencies --   1067.6124              1076.1560              1087.4629
 Red. masses --      1.9197                 1.6801                 1.9849
 Frc consts  --      1.2892                 1.1464                 1.3830
 IR Inten    --     14.1370                 3.4864                 5.8103

                     25                     26                     27
                      A                      A                      A
 Frequencies --   1113.1595              1143.6643              1172.0239
 Red. masses --      1.5930                 1.3704                 1.4835
 Frc consts  --      1.1630                 1.0561                 1.2006
 IR Inten    --      0.9730                10.5113                16.3481

                     28                     29                     30
                      A                      A                      A
 Frequencies --   1189.5974              1218.5822              1243.9004
 Red. masses --      2.1872                 1.7127                 1.2626
 Frc consts  --      1.8236                 1.4985                 1.1511
 IR Inten    --     45.4080                 6.2896                 1.1327

                     31                     32                     33
                      A                      A                      A
 Frequencies --   1256.5443              1284.5197              1305.2143
 Red. masses --      1.6252                 1.4450                 1.4543
 Frc consts  --      1.5118                 1.4048                 1.4597
 IR Inten    --      9.1946                45.1793                 4.1499

                     34                     35                     36
                      A                      A                      A
 Frequencies --   1316.7196              1353.6506              1357.2736
 Red. masses --      1.6164                 1.5086                 1.8560
 Frc consts  --      1.6511                 1.6287                 2.0145
 IR Inten    --      9.1825                 2.6796                75.2543

                     37                     38                     39
                      A                      A                      A
 Frequencies --   1368.3531              1399.9619              1476.3687
 Red. masses --      1.6002                 1.8867                 1.0895
 Frc consts  --      1.7653                 2.1787                 1.3992
 IR Inten    --     22.6789                 4.1379                 2.0987

                     40                     41                     42
                      A                      A                      A
 Frequencies --   1487.8129              1503.8579              3038.7554
 Red. masses --      1.1253                 1.1229                 1.0629
 Frc consts  --      1.4676                 1.4962                 5.7827
 IR Inten    --      1.8569                 6.2751                 8.7857

                     43                     44                     45
                      A                      A                      A
 Frequencies --   3052.8048              3053.4558              3059.6684
 Red. masses --      1.0607                 1.0669                 1.0792
 Frc consts  --      5.8240                 5.8608                 5.9524
 IR Inten    --     26.1661                57.8568                47.5230

                     46                     47                     48
                      A                      A                      A
 Frequencies --   3080.9332              3095.2883              3101.3071
 Red. masses --      1.1017                 1.0896                 1.1035
 Frc consts  --      6.1613                 6.1504                 6.2535
 IR Inten    --     17.4959                29.3194                29.5337

                     49                     50                     51
                      A                      A                      A
 Frequencies --   3104.8193              3110.4198              3797.3524
 Red. masses --      1.0988                 1.0984                 1.0656
 Frc consts  --      6.2406                 6.2612                 9.0536
 IR Inten    --     13.2186                56.1999                22.1281

 - Thermochemistry -
 -------------------
 Temperature   298.150 Kelvin.  Pressure   1.00000 Atm.
 Atom     1 has atomic number  8 and mass  15.99491

 Molecular mass:   126.06808 amu.
 Principal axes and moments of inertia in atomic units:
                           1         2         3
     Eigenvalues --   663.83335 980.812011115.09714
           X            0.99937   0.02277  -0.02718
           Y           -0.02013   0.99540   0.09366
           Z            0.02919  -0.09305   0.99523
 This molecule is an asymmetric top.
 Rotational symmetry number  1.
 Warning -- assumption of classical behavior for rotation
           may cause significant error
 Rotational temperatures (Kelvin)      0.13048     0.08831     0.07767
 Rotational constants (GHZ):           2.71867     1.84005     1.61846
 Zero-point vibrational energy     424355.5 (Joules/Mol)
                                  101.42339 (Kcal/Mol)
 Warning -- explicit consideration of   9 degrees of freedom as
           vibrations may cause significant error
 Vibrational temperatures:    322.25   376.25   442.32   462.20   539.09
          (Kelvin)            618.85   660.10   745.53   882.33   974.88
                             1050.39  1132.36  1156.84  1224.77  1278.97
                             1296.57  1309.09  1375.89  1413.78  1448.19
                             1474.59  1536.05  1548.35  1564.61  1601.59
                             1645.48  1686.28  1711.56  1753.27  1789.69
                             1807.88  1848.13  1877.91  1894.46  1947.60
                             1952.81  1968.75  2014.23  2124.16  2140.63
                             2163.71  4372.09  4392.30  4393.24  4402.17
                             4432.77  4453.42  4462.08  4467.14  4475.19
                             5463.54

 Zero-point correction=                           0.161628 (Hartree/Particle)
 Thermal correction to Energy=                    0.168547
 Thermal correction to Enthalpy=                  0.169491
 Thermal correction to Gibbs Free Energy=         0.130916
 Sum of electronic and zero-point Energies=           -423.002081
 Sum of electronic and thermal Energies=              -422.995162
 Sum of electronic and thermal Enthalpies=            -422.994218
 Sum of electronic and thermal Free Energies=         -423.032794

                     E (Thermal)             CV                S
                      KCal/Mol        Cal/Mol-Kelvin    Cal/Mol-Kelvin
 Total                  105.765             29.401             81.189
 Electronic               0.000              0.000              0.000
 Translational            0.889              2.981             40.409
 Rotational               0.889              2.981             28.076
 Vibrational            103.988             23.439             12.705
 Vibration     1          0.649              1.805              1.927
 Vibration     2          0.669              1.743              1.652
 Vibration     3          0.697              1.660              1.376
 Vibration     4          0.707              1.633              1.304
 Vibration     5          0.746              1.524              1.061
 Vibration     6          0.791              1.405              0.858
 Vibration     7          0.817              1.341              0.770
 Vibration     8          0.873              1.210              0.614
 Vibration     9          0.973              1.004              0.427

 Optimization completed.
    -- Stationary point found.
 Normal termination of Gaussian 09 at Mon Jan 27 19:15:37 2020.
