 Gaussian 09, Revision D.01,
 Gaussian 09:  ES64L-G09RevD.01 24-Apr-2013

 -----------------------------
 # b3lyp 6-31G(2df,p) opt Freq
 -----------------------------

 -----
 titel
 -----
 Symbolic Z-matrix:
 Charge =  0 Multiplicity = 1

 SCF Done:  E(RB3LYP) =  -423.190345604     A.U. after   12 cycles
 Optimization completed.
    -- Stationary point found.
 Normal termination of Gaussian 09 at Mon Jan 27 23:45:31 2020.

 ----------------------------------------------------------------------
 #N Geom=AllCheck Guess=TCheck SCRF=Check GenChk RB3LYP/6-31G(2df,p) Fr
 eq
 ----------------------------------------------------------------------

 Structure from the checkpoint file:  "/scratch/puck/g09_b1f238d8-1933-4443-9820-d13c9a306afa/Gau-89043.chk"
 -----
 titel
 -----
 Charge =  0 Multiplicity = 1

                         Standard orientation:
 ---------------------------------------------------------------------
 Center     Atomic      Atomic             Coordinates (Angstroms)
 Number     Number       Type             X           Y           Z
 ---------------------------------------------------------------------
      1          6           0       -2.698148   -0.000008    0.131578
      2          6           0       -1.310595    0.000013   -0.499485
      3          6           0       -0.327640   -1.050937    0.081901
      4          8           0        0.812816   -1.163172   -0.789734
      5          6           0        1.580121   -0.000005   -0.504869
      6          6           0        1.669295    0.000007    1.025582
      7          6           0        0.154257    0.000013    1.148273
      8          6           0       -0.327642    1.050943    0.081896
      9          8           0        0.812814    1.163149   -0.789760
     10          1           0       -3.265446    0.885198   -0.175020
     11          1           0       -3.265962   -0.884436   -0.176287
     12          1           0       -2.655451   -0.000807    1.226213
     13          1           0       -1.367707    0.000017   -1.591033
     14          1           0       -0.674093   -2.049667    0.355399
     15          1           0        2.482597   -0.000012   -1.112636
     16          1           0        2.147855   -0.898807    1.419559
     17          1           0        2.147856    0.898828    1.419542
     18          1           0       -0.318500    0.000022    2.125573
     19          1           0       -0.674073    2.049686    0.355383
 ---------------------------------------------------------------------

 SCF Done:  E(RB3LYP) =  -423.190345604     A.U. after    1 cycles

 The electronic state is 1-A.
 Alpha  occ. eigenvalues --  -19.14007 -19.14007 -10.27342 -10.23251 -10.23251
 Alpha  occ. eigenvalues --  -10.19447 -10.18411 -10.18316 -10.18158  -1.08309
 Alpha  occ. eigenvalues --   -0.99529  -0.83825  -0.77280  -0.71711  -0.64163
 Alpha  occ. eigenvalues --   -0.62370  -0.59865  -0.53673  -0.52389  -0.48819
 Alpha  occ. eigenvalues --   -0.46724  -0.44386  -0.42146  -0.40672  -0.40250
 Alpha  occ. eigenvalues --   -0.38691  -0.37133  -0.36465  -0.35106  -0.33533
 Alpha  occ. eigenvalues --   -0.31283  -0.29530  -0.25958  -0.24354
 Alpha virt. eigenvalues --    0.09176   0.09465   0.11292   0.13334   0.14058
 Alpha virt. eigenvalues --    0.14248   0.14851   0.15913   0.16339   0.16663
 Alpha virt. eigenvalues --    0.17937   0.18166   0.19610   0.20435   0.21013

 Mulliken charges:
               1
     1  C   -0.423343
     2  C   -0.002132
     3  C    0.091211
     4  O   -0.278410
     5  C    0.179488
     6  C   -0.251077
     7  C   -0.111050
     8  C    0.091229
     9  O   -0.278414
    10  H    0.121582
    11  H    0.121593
    12  H    0.114137
    13  H    0.082999
    14  H    0.073756
    15  H    0.092061
    16  H    0.109830
    17  H    0.109830
    18  H    0.082961
    19  H    0.073750
 Sum of Mulliken charges =   0.00000

 Dipole moment (field-independent basis, Debye):
    X=             -0.7020    Y=              0.0000    Z=              1.9196  Tot=              2.0439
 Quadrupole moment (field-independent basis, Debye-Ang):
   XX=            -49.6245   YY=            -55.2381   ZZ=            -53.9113
   XY=              0.0001   XZ=              0.9634   YZ=              0.0001

  Exact polarizability:  86.115   0.000  67.376   0.819   0.000  65.954
 Approx polarizability: 112.511  -0.001 106.274  -2.166   0.000 102.418

                      1                      2                      3
                      A                      A                      A
 Frequencies --    197.7636               199.1501               250.8826
 Red. masses --      2.8917                 1.0576                 2.4025
 Frc consts  --      0.0666                 0.0247                 0.0891
 IR Inten    --      0.5724                 0.0251                 0.0000

                      4                      5                      6
                      A                      A                      A
 Frequencies --    365.6458               442.7528               468.3178
 Red. masses --      3.3261                 3.9424                 2.2237
 Frc consts  --      0.2620                 0.4553                 0.2874
 IR Inten    --      2.8966                 2.7023                 0.8687

                      7                      8                      9
                      A                      A                      A
 Frequencies --    561.3284               612.6899               659.8636
 Red. masses --      7.0310                 5.2764                 4.5579
 Frc consts  --      1.3053                 1.1670                 1.1693
 IR Inten    --      9.7508                 0.0883                 8.0496

                     10                     11                     12
                      A                      A                      A
 Frequencies --    818.9046               824.2154               837.9770
 Red. masses --      2.1476                 3.4439                 2.1380
 Frc consts  --      0.8485                 1.3784                 0.8846
 IR Inten    --      4.6486                 4.8790                 0.6061

                     13                     14                     15
                      A                      A                      A
 Frequencies --    863.7945               877.2897               902.1474
 Red. masses --      3.1813                 2.4112                 3.4323
 Frc consts  --      1.3986                 1.0934                 1.6458
 IR Inten    --      4.9123                12.5311                49.6278

                     16                     17                     18
                      A                      A                      A
 Frequencies --    923.7113               937.8223               951.6449
 Red. masses --      2.4899                 2.7911                 2.0686
 Frc consts  --      1.2517                 1.4463                 1.1038
 IR Inten    --     14.9433                36.2680                 6.0859

                     19                     20                     21
                      A                      A                      A
 Frequencies --    992.3646              1012.4865              1022.8398
 Red. masses --      1.9276                 3.7659                 1.7168
 Frc consts  --      1.1184                 2.2746                 1.0582
 IR Inten    --      8.3361                15.4497                13.5897

                     22                     23                     24
                      A                      A                      A
 Frequencies --   1061.5315              1076.4728              1096.4103
 Red. masses --      1.7639                 1.3729                 6.7991
 Frc consts  --      1.1711                 0.9373                 4.8156
 IR Inten    --      2.4098                 1.2043               120.1803

                     25                     26                     27
                      A                      A                      A
 Frequencies --   1124.2862              1124.3156              1157.2394
 Red. masses --      2.6705                 1.3015                 1.6257
 Frc consts  --      1.9889                 0.9693                 1.2827
 IR Inten    --     18.5320                 0.2690                 2.9371

                     28                     29                     30
                      A                      A                      A
 Frequencies --   1219.4611              1232.9801              1259.3610
 Red. masses --      1.4688                 2.0212                 1.7415
 Frc consts  --      1.2869                 1.8104                 1.6273
 IR Inten    --      3.5435                 9.2095                 7.6256

                     31                     32                     33
                      A                      A                      A
 Frequencies --   1262.8351              1284.5186              1288.6541
 Red. masses --      1.5969                 1.2523                 1.2250
 Frc consts  --      1.5005                 1.2175                 1.1986
 IR Inten    --      1.4197                 6.3594                 5.9537

                     34                     35                     36
                      A                      A                      A
 Frequencies --   1296.6486              1325.5812              1360.9147
 Red. masses --      1.7426                 1.5939                 1.3456
 Frc consts  --      1.7262                 1.6502                 1.4683
 IR Inten    --      3.5023                 5.4855                14.7823

                     37                     38                     39
                      A                      A                      A
 Frequencies --   1377.1103              1411.9234              1476.4433
 Red. masses --      1.6213                 1.2281                 1.1247
 Frc consts  --      1.8116                 1.4424                 1.4445
 IR Inten    --      3.2896                 2.9494                 3.3478

                     40                     41                     42
                      A                      A                      A
 Frequencies --   1497.8610              1498.6932              3029.6799
 Red. masses --      1.0498                 1.0457                 1.0351
 Frc consts  --      1.3877                 1.3838                 5.5980
 IR Inten    --      2.8644                 4.6366                25.1502

                     43                     44                     45
                      A                      A                      A
 Frequencies --   3074.6370              3076.7407              3088.7711
 Red. masses --      1.0858                 1.0589                 1.0893
 Frc consts  --      6.0475                 5.9056                 6.1233
 IR Inten    --      6.4065                20.8535                74.3865

                     46                     47                     48
                      A                      A                      A
 Frequencies --   3091.2779              3097.7743              3099.5684
 Red. masses --      1.0919                 1.1014                 1.0983
 Frc consts  --      6.1477                 6.2273                 6.2166
 IR Inten    --     11.6464                27.8296                40.0582

                     49                     50                     51
                      A                      A                      A
 Frequencies --   3136.8689              3155.5318              3168.2979
 Red. masses --      1.1090                 1.0917                 1.0914
 Frc consts  --      6.4294                 6.4045                 6.4550
 IR Inten    --     14.0243                37.0892                10.0781

 - Thermochemistry -
 -------------------
 Temperature   298.150 Kelvin.  Pressure   1.00000 Atm.
 Atom     1 has atomic number  6 and mass  12.00000

 Molecular mass:   126.06808 amu.
 Principal axes and moments of inertia in atomic units:
                           1         2         3
     Eigenvalues --   537.039921110.970031155.74475
           X            0.99993   0.00000   0.01189
           Y            0.00000   1.00000   0.00000
           Z           -0.01189   0.00000   0.99993
 This molecule is an asymmetric top.
 Rotational symmetry number  1.
 Warning -- assumption of classical behavior for rotation
           may cause significant error
 Rotational temperatures (Kelvin)      0.16128     0.07796     0.07494
 Rotational constants (GHZ):           3.36053     1.62447     1.56154
 Zero-point vibrational energy     425726.9 (Joules/Mol)
                                  101.75117 (Kcal/Mol)
 Warning -- explicit consideration of   8 degrees of freedom as
           vibrations may cause significant error
 Vibrational temperatures:    284.54   286.53   360.96   526.08   637.02
          (Kelvin)            673.80   807.63   881.52   949.40  1178.22
                             1185.86  1205.66  1242.81  1262.22  1297.99
                             1329.01  1349.32  1369.20  1427.79  1456.74
                             1471.64  1527.31  1548.80  1577.49  1617.60
                             1617.64  1665.01  1754.53  1773.98  1811.94
                             1816.94  1848.13  1854.08  1865.59  1907.21
                             1958.05  1981.35  2031.44  2124.27  2155.09
                             2156.28  4359.03  4423.71  4426.74  4444.05
                             4447.65  4457.00  4459.58  4513.25  4540.10
                             4558.47

 Zero-point correction=                           0.162151 (Hartree/Particle)
 Thermal correction to Energy=                    0.168846
 Thermal correction to Enthalpy=                  0.169790
 Thermal correction to Gibbs Free Energy=         0.131413
 Sum of electronic and zero-point Energies=           -423.028195
 Sum of electronic and thermal Energies=              -423.021500
 Sum of electronic and thermal Enthalpies=            -423.020556
 Sum of electronic and thermal Free Energies=         -423.058933

                     E (Thermal)             CV                S
                      KCal/Mol        Cal/Mol-Kelvin    Cal/Mol-Kelvin
 Total                  105.952             28.063             80.771
 Electronic               0.000              0.000              0.000
 Translational            0.889              2.981             40.409
 Rotational               0.889              2.981             28.024
 Vibrational            104.175             22.101             12.338
 Vibration     1          0.637              1.843              2.154
 Vibration     2          0.637              1.841              2.141
 Vibration     3          0.663              1.761              1.724
 Vibration     4          0.739              1.543              1.098
 Vibration     5          0.802              1.377              0.818
 Vibration     6          0.826              1.320              0.742
 Vibration     7          0.917              1.115              0.521
 Vibration     8          0.972              1.005              0.428

 Optimization completed.
    -- Stationary point found.
 Normal termination of Gaussian 09 at Tue Jan 28 00:33:02 2020.
