 Gaussian 09, Revision D.01,
 Gaussian 09:  ES64L-G09RevD.01 24-Apr-2013

 -----------------------------
 # b3lyp 6-31G(2df,p) opt Freq
 -----------------------------

 -----
 titel
 -----
 Symbolic Z-matrix:
 Charge =  0 Multiplicity = 1

 SCF Done:  E(RB3LYP) =  -423.153198545     A.U. after   13 cycles
 Optimization completed.
    -- Stationary point found.
 Normal termination of Gaussian 09 at Mon Jan 27 23:06:02 2020.

 ----------------------------------------------------------------------
 #N Geom=AllCheck Guess=TCheck SCRF=Check GenChk RB3LYP/6-31G(2df,p) Fr
 eq
 ----------------------------------------------------------------------

 Structure from the checkpoint file:  "/scratch/puck/g09_27c9c84c-876d-416a-bbd6-00476934f288/Gau-49588.chk"
 -----
 titel
 -----
 Charge =  0 Multiplicity = 1

                         Standard orientation:
 ---------------------------------------------------------------------
 Center     Atomic      Atomic             Coordinates (Angstroms)
 Number     Number       Type             X           Y           Z
 ---------------------------------------------------------------------
      1          8           0       -2.130285   -1.277908   -0.433287
      2          6           0       -1.304859   -0.442995    0.371207
      3          6           0       -1.120480    0.930373   -0.292829
      4          6           0       -0.324258    2.021895    0.374267
      5          6           0        0.348658    1.114195   -0.623437
      6          6           0        1.098740   -0.123931   -0.137430
      7          8           0        2.070967   -0.640403   -0.996006
      8          6           0        1.183877   -0.394982    1.341422
      9          6           0        0.096833   -1.048805    0.504299
     10          1           0       -1.687670   -1.381839   -1.283766
     11          1           0       -1.829957   -0.376850    1.330055
     12          1           0       -1.912648    1.219398   -0.975000
     13          1           0       -0.538018    3.035896    0.051519
     14          1           0       -0.077395    1.952525    1.427238
     15          1           0        0.684035    1.518133   -1.571651
     16          1           0        2.881314   -0.135754   -0.865805
     17          1           0        1.978600   -1.066538    1.650307
     18          1           0        0.945298    0.370906    2.070014
     19          1           0        0.159918   -2.123885    0.376444
 ---------------------------------------------------------------------

 SCF Done:  E(RB3LYP) =  -423.153198545     A.U. after    1 cycles

 The electronic state is 1-A.
 Alpha  occ. eigenvalues --  -19.14563 -19.13110 -10.24084 -10.23264 -10.19200
 Alpha  occ. eigenvalues --  -10.18865 -10.18656 -10.18618 -10.18378  -1.03196
 Alpha  occ. eigenvalues --   -1.01417  -0.88848  -0.82318  -0.69825  -0.64333
 Alpha  occ. eigenvalues --   -0.59363  -0.57574  -0.56057  -0.53546  -0.49479
 Alpha  occ. eigenvalues --   -0.47798  -0.44192  -0.42993  -0.42113  -0.41551
 Alpha  occ. eigenvalues --   -0.38098  -0.35214  -0.34358  -0.32978  -0.30749
 Alpha  occ. eigenvalues --   -0.29296  -0.26561  -0.26305  -0.24426
 Alpha virt. eigenvalues --    0.07766   0.08002   0.08906   0.09439   0.12089
 Alpha virt. eigenvalues --    0.12782   0.15472   0.16736   0.16993   0.17767
 Alpha virt. eigenvalues --    0.19160   0.19926   0.20265   0.22062   0.22730

 Mulliken charges:
               1
     1  O   -0.429204
     2  C    0.100843
     3  C   -0.062100
     4  C   -0.318248
     5  C   -0.110041
     6  C    0.399094
     7  O   -0.473522
     8  C   -0.380782
     9  C   -0.113768
    10  H    0.280096
    11  H    0.091323
    12  H    0.092340
    13  H    0.111743
    14  H    0.113902
    15  H    0.087411
    16  H    0.283174
    17  H    0.114059
    18  H    0.112760
    19  H    0.100920
 Sum of Mulliken charges =   0.00000

 Dipole moment (field-independent basis, Debye):
    X=              1.7299    Y=              1.5884    Z=              0.1067  Tot=              2.3509
 Quadrupole moment (field-independent basis, Debye-Ang):
   XX=            -54.0291   YY=            -53.5151   ZZ=            -51.3236
   XY=             -0.9504   XZ=              1.6747   YZ=             -0.8002

  Exact polarizability:  77.599  -0.446  74.942   1.521  -0.084  68.852
 Approx polarizability: 112.094   3.260 106.392  -0.236   3.065 106.950

                      1                      2                      3
                      A                      A                      A
 Frequencies --    119.3093               185.1537               295.0054
 Red. masses --      4.8913                 2.7963                 1.1190
 Frc consts  --      0.0410                 0.0565                 0.0574
 IR Inten    --      1.5602                 1.5911                78.1520

                      4                      5                      6
                      A                      A                      A
 Frequencies --    324.9111               334.1442               355.1489
 Red. masses --      1.2486                 3.0931                 3.6658
 Frc consts  --      0.0777                 0.2035                 0.2724
 IR Inten    --     51.5630                 6.1803                 3.4062

                      7                      8                      9
                      A                      A                      A
 Frequencies --    380.8723               403.8761               480.2612
 Red. masses --      2.9995                 2.7665                 3.3250
 Frc consts  --      0.2564                 0.2659                 0.4519
 IR Inten    --     38.7182                23.5264                 9.3069

                     10                     11                     12
                      A                      A                      A
 Frequencies --    499.4644               595.4687               679.7688
 Red. masses --      3.4788                 3.7898                 2.8785
 Frc consts  --      0.5113                 0.7917                 0.7837
 IR Inten    --      4.7953                 2.5142                 4.2800

                     13                     14                     15
                      A                      A                      A
 Frequencies --    725.0191               792.2686               811.6845
 Red. masses --      3.8945                 1.5879                 1.8855
 Frc consts  --      1.2061                 0.5873                 0.7319
 IR Inten    --      6.7280                 2.6281                16.8314

                     16                     17                     18
                      A                      A                      A
 Frequencies --    851.3155               887.7438               922.8730
 Red. masses --      1.5868                 1.8782                 2.8354
 Frc consts  --      0.6776                 0.8721                 1.4228
 IR Inten    --      9.4362                 4.5243                 8.5311

                     19                     20                     21
                      A                      A                      A
 Frequencies --    954.2255               985.3934               995.9022
 Red. masses --      2.0376                 2.4163                 2.3433
 Frc consts  --      1.0932                 1.3824                 1.3693
 IR Inten    --     14.6403                 7.3120                 4.6874

                     22                     23                     24
                      A                      A                      A
 Frequencies --   1017.7485              1040.4578              1053.7955
 Red. masses --      1.7233                 1.5195                 1.4968
 Frc consts  --      1.0517                 0.9692                 0.9793
 IR Inten    --     34.6546                15.8854                 6.7592

                     25                     26                     27
                      A                      A                      A
 Frequencies --   1070.6951              1079.7518              1099.9738
 Red. masses --      1.6379                 1.7299                 1.3536
 Frc consts  --      1.1063                 1.1882                 0.9650
 IR Inten    --      5.8039                25.1844                16.8426

                     28                     29                     30
                      A                      A                      A
 Frequencies --   1115.4819              1125.2647              1193.8869
 Red. masses --      1.4284                 1.7163                 1.5504
 Frc consts  --      1.0472                 1.2804                 1.3020
 IR Inten    --     10.6343                21.8114                 8.1810

                     31                     32                     33
                      A                      A                      A
 Frequencies --   1216.3172              1245.3905              1271.6671
 Red. masses --      2.5807                 1.5880                 1.3663
 Frc consts  --      2.2495                 1.4512                 1.3018
 IR Inten    --     72.9042                18.2994                14.9033

                     34                     35                     36
                      A                      A                      A
 Frequencies --   1285.8401              1309.2645              1336.8520
 Red. masses --      1.7433                 1.6253                 1.9061
 Frc consts  --      1.6982                 1.6415                 2.0071
 IR Inten    --     10.5589                26.9238                34.7073

                     37                     38                     39
                      A                      A                      A
 Frequencies --   1369.7028              1404.3954              1430.1319
 Red. masses --      2.1670                 1.7363                 1.2618
 Frc consts  --      2.3953                 2.0177                 1.5206
 IR Inten    --      1.5993                11.9583                75.6308

                     40                     41                     42
                      A                      A                      A
 Frequencies --   1479.4910              1503.3964              3056.4958
 Red. masses --      1.4967                 1.2030                 1.0854
 Frc consts  --      1.9302                 1.6020                 5.9741
 IR Inten    --      6.0806                 8.9559                34.2919

                     43                     44                     45
                      A                      A                      A
 Frequencies --   3128.3420              3136.5312              3167.2713
 Red. masses --      1.0544                 1.0553                 1.0891
 Frc consts  --      6.0799                 6.1168                 6.4372
 IR Inten    --      5.7650                22.9472                11.3483

                     46                     47                     48
                      A                      A                      A
 Frequencies --   3174.6867              3179.1352              3209.4301
 Red. masses --      1.0910                 1.0936                 1.1151
 Frc consts  --      6.4785                 6.5120                 6.7676
 IR Inten    --      6.6723                 6.1627                15.2100

                     49                     50                     51
                      A                      A                      A
 Frequencies --   3219.3642              3791.0739              3795.9237
 Red. masses --      1.1129                 1.0659                 1.0661
 Frc consts  --      6.7958                 9.0259                 9.0511
 IR Inten    --      9.1198                14.0890                20.2037

 - Thermochemistry -
 -------------------
 Temperature   298.150 Kelvin.  Pressure   1.00000 Atm.
 Atom     1 has atomic number  8 and mass  15.99491

 Molecular mass:   126.06808 amu.
 Principal axes and moments of inertia in atomic units:
                           1         2         3
     Eigenvalues --   781.846051087.247591372.23846
           X            0.99940  -0.02884   0.01927
           Y            0.02909   0.99950  -0.01272
           Z           -0.01889   0.01327   0.99973
 This molecule is an asymmetric top.
 Rotational symmetry number  1.
 Warning -- assumption of classical behavior for rotation
           may cause significant error
 Rotational temperatures (Kelvin)      0.11078     0.07966     0.06312
 Rotational constants (GHZ):           2.30831     1.65992     1.31518
 Zero-point vibrational energy     419216.8 (Joules/Mol)
                                  100.19521 (Kcal/Mol)
 Warning -- explicit consideration of  11 degrees of freedom as
           vibrations may cause significant error
 Vibrational temperatures:    171.66   266.39   424.45   467.47   480.76
          (Kelvin)            510.98   547.99   581.09   690.99   718.62
                              856.75   978.03  1043.14  1139.90  1167.83
                             1224.85  1277.26  1327.81  1372.92  1417.76
                             1432.88  1464.31  1496.98  1516.17  1540.49
                             1553.52  1582.61  1604.93  1619.00  1717.73
                             1750.01  1791.84  1829.64  1850.03  1883.74
                             1923.43  1970.69  2020.61  2057.64  2128.65
                             2163.05  4397.61  4500.98  4512.76  4556.99
                             4567.66  4574.06  4617.65  4631.94  5454.50
                             5461.48

 Zero-point correction=                           0.159671 (Hartree/Particle)
 Thermal correction to Energy=                    0.167615
 Thermal correction to Enthalpy=                  0.168559
 Thermal correction to Gibbs Free Energy=         0.127746
 Sum of electronic and zero-point Energies=           -422.993527
 Sum of electronic and thermal Energies=              -422.985584
 Sum of electronic and thermal Enthalpies=            -422.984640
 Sum of electronic and thermal Free Energies=         -423.025452

                     E (Thermal)             CV                S
                      KCal/Mol        Cal/Mol-Kelvin    Cal/Mol-Kelvin
 Total                  105.180             32.572             85.897
 Electronic               0.000              0.000              0.000
 Translational            0.889              2.981             40.409
 Rotational               0.889              2.981             28.547
 Vibrational            103.402             26.611             16.942
 Vibration     1          0.609              1.933              3.112
 Vibration     2          0.631              1.860              2.276
 Vibration     3          0.689              1.683              1.445
 Vibration     4          0.709              1.626              1.285
 Vibration     5          0.716              1.607              1.240
 Vibration     6          0.731              1.565              1.143
 Vibration     7          0.751              1.511              1.036
 Vibration     8          0.769              1.462              0.949
 Vibration     9          0.837              1.294              0.709
 Vibration    10          0.855              1.251              0.659
 Vibration    11          0.953              1.041              0.458

 Normal termination of Gaussian 09 at Mon Jan 27 23:57:45 2020.
