 Gaussian 09, Revision D.01,
 Gaussian 09:  ES64L-G09RevD.01 24-Apr-2013

 -----------------------------
 # b3lyp 6-31G(2df,p) opt Freq
 -----------------------------

 -----
 titel
 -----
 Symbolic Z-matrix:
 Charge =  0 Multiplicity = 1

 SCF Done:  E(RB3LYP) =  -423.195182077     A.U. after   13 cycles
 Optimization completed.
    -- Stationary point found.
 Normal termination of Gaussian 09 at Mon Jan 27 22:07:21 2020.

 ----------------------------------------------------------------------
 #N Geom=AllCheck Guess=TCheck SCRF=Check GenChk RB3LYP/6-31G(2df,p) Fr
 eq
 ----------------------------------------------------------------------

 Structure from the checkpoint file:  "/scratch/puck/g09_b6771f1c-d1be-4b42-93c2-418b61dea47c/Gau-116801.chk"
 -----
 titel
 -----
 Charge =  0 Multiplicity = 1

                         Standard orientation:
 ---------------------------------------------------------------------
 Center     Atomic      Atomic             Coordinates (Angstroms)
 Number     Number       Type             X           Y           Z
 ---------------------------------------------------------------------
      1          8           0        1.525158    1.587669   -0.108724
      2          6           0        0.534302    0.733336   -0.661835
      3          6           0       -0.915352    1.111155   -0.427122
      4          6           0       -1.695004   -0.194322   -0.473930
      5          6           0       -0.690374   -1.317733   -0.728606
      6          6           0        0.490402   -0.666607    0.014671
      7          8           0        1.690207   -1.378211   -0.002029
      8          6           0       -0.141313   -0.338370    1.396335
      9          6           0       -1.346031    0.426968    0.866104
     10          1           0        1.179456    1.951794    0.712846
     11          1           0        0.790723    0.637652   -1.722126
     12          1           0       -1.340040    2.049505   -0.759952
     13          1           0       -2.713060   -0.227408   -0.838650
     14          1           0       -0.988441   -2.274750   -0.289331
     15          1           0       -0.469437   -1.472672   -1.789258
     16          1           0        2.386795   -0.733857    0.179177
     17          1           0       -0.407244   -1.248358    1.942376
     18          1           0        0.523510    0.258476    2.030851
     19          1           0       -2.104955    0.857394    1.506396
 ---------------------------------------------------------------------

 SCF Done:  E(RB3LYP) =  -423.195182077     A.U. after    1 cycles

 The electronic state is 1-A.
 Alpha  occ. eigenvalues --  -19.14462 -19.13355 -10.22947 -10.22834 -10.19429
 Alpha  occ. eigenvalues --  -10.19391 -10.19029 -10.18071 -10.18052  -1.03421
 Alpha  occ. eigenvalues --   -1.01218  -0.90896  -0.74228  -0.71668  -0.69978
 Alpha  occ. eigenvalues --   -0.57851  -0.56162  -0.55184  -0.54064  -0.48862
 Alpha  occ. eigenvalues --   -0.47118  -0.44909  -0.43975  -0.40042  -0.38706
 Alpha  occ. eigenvalues --   -0.37459  -0.37245  -0.36570  -0.34257  -0.32968
 Alpha  occ. eigenvalues --   -0.28738  -0.27469  -0.26739  -0.24614
 Alpha virt. eigenvalues --    0.06441   0.09816   0.10887   0.12841   0.13196
 Alpha virt. eigenvalues --    0.14062   0.14374   0.16123   0.16475   0.17913
 Alpha virt. eigenvalues --    0.18629   0.20237   0.21573   0.22147   0.22702

 Mulliken charges:
               1
     1  O   -0.463503
     2  C    0.104810
     3  C   -0.122298
     4  C   -0.063298
     5  C   -0.256878
     6  C    0.366844
     7  O   -0.508928
     8  C   -0.289466
     9  C   -0.069967
    10  H    0.286735
    11  H    0.086597
    12  H    0.087618
    13  H    0.087442
    14  H    0.102302
    15  H    0.102049
    16  H    0.281277
    17  H    0.103930
    18  H    0.079318
    19  H    0.085416
 Sum of Mulliken charges =   0.00000

 Dipole moment (field-independent basis, Debye):
    X=             -1.5497    Y=              1.1552    Z=              0.8518  Tot=              2.1122
 Quadrupole moment (field-independent basis, Debye-Ang):
   XX=            -53.0153   YY=            -55.4528   ZZ=            -51.2779
   XY=              0.4781   XZ=              1.8897   YZ=              1.9226

  Exact polarizability:  75.192   0.969  72.044   0.834   1.362  70.125
 Approx polarizability: 108.630   3.599 108.243   0.441   2.292 107.611

                      1                      2                      3
                      A                      A                      A
 Frequencies --    186.5620               240.4971               300.7608
 Red. masses --      3.4825                 5.0355                 1.2086
 Frc consts  --      0.0714                 0.1716                 0.0644
 IR Inten    --      0.1716                 6.0633                57.4335

                      4                      5                      6
                      A                      A                      A
 Frequencies --    347.1871               374.2924               413.8952
 Red. masses --      3.6088                 2.4720                 1.1464
 Frc consts  --      0.2563                 0.2040                 0.1157
 IR Inten    --      5.6522                 1.8697                83.4935

                      7                      8                      9
                      A                      A                      A
 Frequencies --    446.9736               490.1657               560.0094
 Red. masses --      2.0754                 2.4314                 3.5555
 Frc consts  --      0.2443                 0.3442                 0.6570
 IR Inten    --     14.9497                 9.7595                 6.2132

                     10                     11                     12
                      A                      A                      A
 Frequencies --    624.0806               649.6459               701.9408
 Red. masses --      6.2762                 3.9916                 4.0367
 Frc consts  --      1.4402                 0.9926                 1.1719
 IR Inten    --      5.0519                 1.1029                 4.8773

                     13                     14                     15
                      A                      A                      A
 Frequencies --    793.7670               813.3185               832.9887
 Red. masses --      3.0445                 1.6888                 1.7955
 Frc consts  --      1.1302                 0.6582                 0.7340
 IR Inten    --      7.4424                11.0612                14.2046

                     16                     17                     18
                      A                      A                      A
 Frequencies --    884.2896               920.1164               942.3314
 Red. masses --      2.3588                 2.1014                 2.2167
 Frc consts  --      1.0867                 1.0482                 1.1597
 IR Inten    --      6.9595                 2.6241                18.0765

                     19                     20                     21
                      A                      A                      A
 Frequencies --    957.6419               976.3892              1017.9252
 Red. masses --      2.3490                 1.5961                 1.7225
 Frc consts  --      1.2692                 0.8965                 1.0516
 IR Inten    --      3.7116                 5.2610                 8.1533

                     22                     23                     24
                      A                      A                      A
 Frequencies --   1025.7512              1064.0971              1068.0726
 Red. masses --      1.5366                 1.3001                 1.2662
 Frc consts  --      0.9526                 0.8674                 0.8510
 IR Inten    --      4.3210                 1.2416                15.4829

                     25                     26                     27
                      A                      A                      A
 Frequencies --   1091.6265              1113.4024              1121.9237
 Red. masses --      1.7877                 2.6999                 1.9892
 Frc consts  --      1.2551                 1.9720                 1.4752
 IR Inten    --     19.0933                63.7417                 6.9735

                     28                     29                     30
                      A                      A                      A
 Frequencies --   1149.5162              1179.9610              1220.6594
 Red. masses --      1.3070                 2.8529                 1.6730
 Frc consts  --      1.0176                 2.3403                 1.4687
 IR Inten    --      5.9213                71.1056                 7.1997

                     31                     32                     33
                      A                      A                      A
 Frequencies --   1245.2669              1255.5514              1286.6758
 Red. masses --      1.4555                 1.5580                 1.4604
 Frc consts  --      1.3298                 1.4470                 1.4245
 IR Inten    --      4.3949                 6.5795                30.5857

                     34                     35                     36
                      A                      A                      A
 Frequencies --   1299.0130              1318.8569              1340.1569
 Red. masses --      1.6920                 1.8246                 3.7134
 Frc consts  --      1.6822                 1.8698                 3.9294
 IR Inten    --     12.3991                 3.3961                74.5877

                     37                     38                     39
                      A                      A                      A
 Frequencies --   1389.9087              1403.9294              1431.4600
 Red. masses --      2.1880                 1.6817                 1.3281
 Frc consts  --      2.4904                 1.9530                 1.6034
 IR Inten    --     14.5473                15.4066                62.3519

                     40                     41                     42
                      A                      A                      A
 Frequencies --   1493.0360              1513.0309              3041.1957
 Red. masses --      1.1033                 1.1209                 1.0601
 Frc consts  --      1.4491                 1.5119                 5.7767
 IR Inten    --      5.2126                 2.8827                45.8834

                     43                     44                     45
                      A                      A                      A
 Frequencies --   3049.3951              3062.3722              3089.2575
 Red. masses --      1.0598                 1.0844                 1.1035
 Frc consts  --      5.8064                 5.9919                 6.2048
 IR Inten    --     21.0450                31.5579                18.1518

                     46                     47                     48
                      A                      A                      A
 Frequencies --   3095.8260              3191.7958              3194.5155
 Red. masses --      1.1064                 1.0905                 1.0908
 Frc consts  --      6.2477                 6.5458                 6.5587
 IR Inten    --     32.0638                 9.6353                 8.8608

                     49                     50                     51
                      A                      A                      A
 Frequencies --   3207.2475              3767.2979              3816.1239
 Red. masses --      1.0963                 1.0654                 1.0658
 Frc consts  --      6.6442                 8.9091                 9.1444
 IR Inten    --     23.3623                30.4131                16.7844

 - Thermochemistry -
 -------------------
 Temperature   298.150 Kelvin.  Pressure   1.00000 Atm.
 Atom     1 has atomic number  8 and mass  15.99491

 Molecular mass:   126.06808 amu.
 Principal axes and moments of inertia in atomic units:
                           1         2         3
     Eigenvalues --   744.41684 899.696981162.52543
           X            0.99981   0.01554   0.01201
           Y           -0.01578   0.99967   0.02003
           Z           -0.01169  -0.02022   0.99973
 This molecule is an asymmetric top.
 Rotational symmetry number  1.
 Warning -- assumption of classical behavior for rotation
           may cause significant error
 Rotational temperatures (Kelvin)      0.11635     0.09627     0.07450
 Rotational constants (GHZ):           2.42437     2.00594     1.55243
 Zero-point vibrational energy     424684.5 (Joules/Mol)
                                  101.50203 (Kcal/Mol)
 Warning -- explicit consideration of   9 degrees of freedom as
           vibrations may cause significant error
 Vibrational temperatures:    268.42   346.02   432.73   499.52   538.52
          (Kelvin)            595.50   643.09   705.24   805.73   897.91
                              934.69  1009.93  1142.05  1170.18  1198.48
                             1272.29  1323.84  1355.80  1377.83  1404.80
                             1464.57  1475.83  1531.00  1536.72  1570.61
                             1601.94  1614.20  1653.90  1697.70  1756.25
                             1791.66  1806.46  1851.24  1868.99  1897.54
                             1928.18  1999.77  2019.94  2059.55  2148.14
                             2176.91  4375.60  4387.39  4406.07  4444.75
                             4454.20  4592.28  4596.19  4614.51  5420.29
                             5490.54

 Zero-point correction=                           0.161754 (Hartree/Particle)
 Thermal correction to Energy=                    0.168972
 Thermal correction to Enthalpy=                  0.169916
 Thermal correction to Gibbs Free Energy=         0.130787
 Sum of electronic and zero-point Energies=           -423.033428
 Sum of electronic and thermal Energies=              -423.026210
 Sum of electronic and thermal Enthalpies=            -423.025266
 Sum of electronic and thermal Free Energies=         -423.064395

                     E (Thermal)             CV                S
                      KCal/Mol        Cal/Mol-Kelvin    Cal/Mol-Kelvin
 Total                  106.032             30.642             82.355
 Electronic               0.000              0.000              0.000
 Translational            0.889              2.981             40.409
 Rotational               0.889              2.981             28.145
 Vibrational            104.254             24.680             13.802
 Vibration     1          0.632              1.858              2.262
 Vibration     2          0.658              1.778              1.799
 Vibration     3          0.693              1.672              1.413
 Vibration     4          0.725              1.581              1.179
 Vibration     5          0.745              1.525              1.062
 Vibration     6          0.777              1.440              0.913
 Vibration     7          0.806              1.368              0.805
 Vibration     8          0.846              1.272              0.683
 Vibration     9          0.916              1.118              0.524

 Normal termination of Gaussian 09 at Mon Jan 27 23:07:11 2020.
