 Gaussian 09, Revision D.01,
 Gaussian 09:  ES64L-G09RevD.01 24-Apr-2013

 -----------------------------
 # b3lyp 6-31G(2df,p) opt Freq
 -----------------------------

 -----
 titel
 -----
 Symbolic Z-matrix:
 Charge =  0 Multiplicity = 1

 SCF Done:  E(RB3LYP) =  -423.130379336     A.U. after   13 cycles
 Optimization completed.
    -- Stationary point found.
 Normal termination of Gaussian 09 at Mon Jan 27 23:42:50 2020.

 ----------------------------------------------------------------------
 #N Geom=AllCheck Guess=TCheck SCRF=Check GenChk RB3LYP/6-31G(2df,p) Fr
 eq
 ----------------------------------------------------------------------

 Structure from the checkpoint file:  "/scratch/puck/g09_16c49842-d09b-4c5d-a506-c3a709c1b70f/Gau-67893.chk"
 -----
 titel
 -----
 Charge =  0 Multiplicity = 1

                         Standard orientation:
 ---------------------------------------------------------------------
 Center     Atomic      Atomic             Coordinates (Angstroms)
 Number     Number       Type             X           Y           Z
 ---------------------------------------------------------------------
      1          6           0        2.759447    0.081766    0.487343
      2          6           0        1.329351   -0.414440    0.538573
      3          6           0        0.727906   -0.976273   -0.728695
      4          6           0       -0.659759   -1.563072   -0.424678
      5          6           0       -1.092836   -0.153545    0.034105
      6          6           0       -2.367800    0.524208   -0.173439
      7          8           0       -1.920567    0.160014    1.144690
      8          6           0        0.290169    0.399313   -0.199972
      9          8           0        0.543492    1.654363   -0.722791
     10          1           0        2.950435    0.826248    1.268991
     11          1           0        3.462134   -0.743345    0.641600
     12          1           0        2.985296    0.545487   -0.476711
     13          1           0        1.045306   -0.877422    1.483620
     14          1           0        1.332106   -1.196934   -1.599119
     15          1           0       -1.205020   -1.911235   -1.305235
     16          1           0       -0.686018   -2.337271    0.348164
     17          1           0       -2.378229    1.592564   -0.383424
     18          1           0       -3.223557   -0.036139   -0.548832
     19          1           0        0.815278    2.235299   -0.003665
 ---------------------------------------------------------------------

 SCF Done:  E(RB3LYP) =  -423.130379336     A.U. after    1 cycles

 The electronic state is 1-A.
 Alpha  occ. eigenvalues --  -19.15467 -19.14354 -10.23861 -10.23677 -10.22696
 Alpha  occ. eigenvalues --  -10.19627 -10.19345 -10.18829 -10.18307  -1.06506
 Alpha  occ. eigenvalues --   -1.03800  -0.89065  -0.75520  -0.68092  -0.66034
 Alpha  occ. eigenvalues --   -0.62639  -0.58051  -0.54425  -0.51425  -0.49738
 Alpha  occ. eigenvalues --   -0.46993  -0.44026  -0.42892  -0.42039  -0.40517
 Alpha  occ. eigenvalues --   -0.38293  -0.37342  -0.36078  -0.34133  -0.32750
 Alpha  occ. eigenvalues --   -0.30585  -0.27333  -0.25342  -0.24415
 Alpha virt. eigenvalues --    0.06465   0.09391   0.11054   0.11514   0.12304
 Alpha virt. eigenvalues --    0.13476   0.13585   0.14180   0.15795   0.16453
 Alpha virt. eigenvalues --    0.17473   0.18067   0.18987   0.20465   0.22013

 Mulliken charges:
               1
     1  C   -0.436683
     2  C   -0.076978
     3  C   -0.125581
     4  C   -0.350320
     5  C    0.403659
     6  C   -0.269161
     7  O   -0.286333
     8  C    0.303476
     9  O   -0.460925
    10  H    0.114304
    11  H    0.122969
    12  H    0.130820
    13  H    0.088037
    14  H    0.096492
    15  H    0.111472
    16  H    0.109921
    17  H    0.119313
    18  H    0.112681
    19  H    0.292838
 Sum of Mulliken charges =   0.00000

 Dipole moment (field-independent basis, Debye):
    X=              1.0651    Y=             -0.0027    Z=             -0.5065  Tot=              1.1794
 Quadrupole moment (field-independent basis, Debye-Ang):
   XX=            -51.4696   YY=            -50.1726   ZZ=            -55.9733
   XY=              0.7866   XZ=              4.8634   YZ=              2.6887

  Exact polarizability:  90.749  -1.391  74.621   4.529   1.879  63.201
 Approx polarizability: 114.030  -3.909 110.586   3.174   2.203 103.922

                      1                      2                      3
                      A                      A                      A
 Frequencies --     99.7939               178.6363               213.7480
 Red. masses --      4.0634                 1.1794                 2.4707
 Frc consts  --      0.0238                 0.0222                 0.0665
 IR Inten    --      4.1631                 8.3005                 0.1224

                      4                      5                      6
                      A                      A                      A
 Frequencies --    226.0575               239.6690               250.3974
 Red. masses --      3.1193                 3.3365                 1.2487
 Frc consts  --      0.0939                 0.1129                 0.0461
 IR Inten    --      8.9161                36.2062                38.2946

                      7                      8                      9
                      A                      A                      A
 Frequencies --    284.5876               357.5937               444.6888
 Red. masses --      2.4169                 2.3407                 3.2494
 Frc consts  --      0.1153                 0.1764                 0.3786
 IR Inten    --     18.0681                 6.6116                 1.2317

                     10                     11                     12
                      A                      A                      A
 Frequencies --    466.8492               531.5117               592.8576
 Red. masses --      3.3510                 3.1633                 4.9303
 Frc consts  --      0.4303                 0.5265                 1.0210
 IR Inten    --      1.5856                 4.5003                 9.4219

                     13                     14                     15
                      A                      A                      A
 Frequencies --    695.1338               775.8692               804.1405
 Red. masses --      4.1802                 2.6087                 3.1243
 Frc consts  --      1.1901                 0.9252                 1.1903
 IR Inten    --      3.7858                 3.1203                19.3172

                     16                     17                     18
                      A                      A                      A
 Frequencies --    849.1350               908.6550               921.6520
 Red. masses --      2.6185                 1.5423                 1.9877
 Frc consts  --      1.1124                 0.7503                 0.9948
 IR Inten    --     36.1099                 8.9636                 7.4198

                     19                     20                     21
                      A                      A                      A
 Frequencies --    943.9192               981.1376               992.3229
 Red. masses --      2.9754                 1.6652                 1.4430
 Frc consts  --      1.5620                 0.9444                 0.8372
 IR Inten    --      8.4336                 8.9760                 6.0184

                     22                     23                     24
                      A                      A                      A
 Frequencies --   1040.5242              1061.9153              1091.3187
 Red. masses --      1.7061                 2.7757                 1.9750
 Frc consts  --      1.0883                 1.8442                 1.3859
 IR Inten    --     10.5369                20.0675                 8.4119

                     25                     26                     27
                      A                      A                      A
 Frequencies --   1122.4597              1132.3359              1150.5349
 Red. masses --      1.3153                 1.8657                 1.5426
 Frc consts  --      0.9763                 1.4094                 1.2031
 IR Inten    --      4.5844                 4.7895                 0.4215

                     28                     29                     30
                      A                      A                      A
 Frequencies --   1157.4897              1177.5957              1221.7331
 Red. masses --      1.4249                 1.5550                 1.7536
 Frc consts  --      1.1248                 1.2705                 1.5422
 IR Inten    --      0.8394                 4.3881                24.1703

                     31                     32                     33
                      A                      A                      A
 Frequencies --   1231.6861              1263.8708              1295.1267
 Red. masses --      1.9784                 1.8242                 1.4211
 Frc consts  --      1.7683                 1.7168                 1.4045
 IR Inten    --     27.2462                12.8908                64.9932

                     34                     35                     36
                      A                      A                      A
 Frequencies --   1370.1254              1415.7666              1426.0353
 Red. masses --      1.8961                 1.3797                 2.5593
 Frc consts  --      2.0972                 1.6294                 3.0664
 IR Inten    --      4.9599                 1.5937                11.0704

                     37                     38                     39
                      A                      A                      A
 Frequencies --   1445.3536              1488.3738              1495.1730
 Red. masses --      1.9908                 1.1717                 1.0485
 Frc consts  --      2.4504                 1.5293                 1.3810
 IR Inten    --     21.2997                 5.2980                 3.7041

                     40                     41                     42
                      A                      A                      A
 Frequencies --   1506.7093              1537.8595              3031.2905
 Red. masses --      1.0940                 1.7552                 1.0376
 Frc consts  --      1.4632                 2.4457                 5.6176
 IR Inten    --      8.0233                12.8811                36.9476

                     43                     44                     45
                      A                      A                      A
 Frequencies --   3053.0217              3080.9332              3089.4032
 Red. masses --      1.0588                 1.0505                 1.0985
 Frc consts  --      5.8144                 5.8752                 6.1771
 IR Inten    --     33.1004                27.7984                20.8239

                     46                     47                     48
                      A                      A                      A
 Frequencies --   3096.7450              3108.4337              3120.0279
 Red. masses --      1.0898                 1.1071                 1.0993
 Frc consts  --      6.1575                 6.3025                 6.3051
 IR Inten    --      7.9858                17.6883                26.8083

                     49                     50                     51
                      A                      A                      A
 Frequencies --   3169.6126              3200.5835              3795.9508
 Red. masses --      1.1191                 1.0931                 1.0663
 Frc consts  --      6.6244                 6.5974                 9.0530
 IR Inten    --     19.5147                 8.4922                25.8470

 - Thermochemistry -
 -------------------
 Temperature   298.150 Kelvin.  Pressure   1.00000 Atm.
 Atom     1 has atomic number  6 and mass  12.00000

 Molecular mass:   126.06808 amu.
 Principal axes and moments of inertia in atomic units:
                           1         2         3
     Eigenvalues --   597.242911343.182221554.13607
           X            0.99956   0.00330   0.02951
           Y           -0.00431   0.99940   0.03423
           Z           -0.02938  -0.03434   0.99898
 This molecule is an asymmetric top.
 Rotational symmetry number  1.
 Warning -- assumption of classical behavior for rotation
           may cause significant error
 Rotational temperatures (Kelvin)      0.14502     0.06448     0.05573
 Rotational constants (GHZ):           3.02179     1.34363     1.16125
 Zero-point vibrational energy     413527.2 (Joules/Mol)
                                   98.83537 (Kcal/Mol)
 Warning -- explicit consideration of  12 degrees of freedom as
           vibrations may cause significant error
 Vibrational temperatures:    143.58   257.02   307.54   325.25   344.83
          (Kelvin)            360.27   409.46   514.50   639.81   671.69
                              764.73   852.99  1000.14  1116.30  1156.98
                             1221.71  1307.35  1326.05  1358.09  1411.64
                             1427.73  1497.08  1527.86  1570.16  1614.97
                             1629.18  1655.36  1665.37  1694.30  1757.80
                             1772.12  1818.43  1863.40  1971.30  2036.97
                             2051.74  2079.54  2141.44  2151.22  2167.82
                             2212.63  4361.35  4392.61  4432.77  4444.96
                             4455.52  4472.34  4489.02  4560.36  4604.92
                             5461.52

 Zero-point correction=                           0.157504 (Hartree/Particle)
 Thermal correction to Energy=                    0.166251
 Thermal correction to Enthalpy=                  0.167195
 Thermal correction to Gibbs Free Energy=         0.124560
 Sum of electronic and zero-point Energies=           -422.972875
 Sum of electronic and thermal Energies=              -422.964129
 Sum of electronic and thermal Enthalpies=            -422.963185
 Sum of electronic and thermal Free Energies=         -423.005820

                     E (Thermal)             CV                S
                      KCal/Mol        Cal/Mol-Kelvin    Cal/Mol-Kelvin
 Total                  104.324             33.599             89.733
 Electronic               0.000              0.000              0.000
 Translational            0.889              2.981             40.409
 Rotational               0.889              2.981             28.613
 Vibrational            102.546             27.637             20.712
 Vibration     1          0.604              1.949              3.458
 Vibration     2          0.629              1.869              2.343
 Vibration     3          0.644              1.820              2.011
 Vibration     4          0.650              1.801              1.910
 Vibration     5          0.657              1.780              1.805
 Vibration     6          0.663              1.762              1.728
 Vibration     7          0.683              1.702              1.506
 Vibration     8          0.733              1.560              1.133
 Vibration     9          0.804              1.373              0.812
 Vibration    10          0.824              1.324              0.746
 Vibration    11          0.886              1.180              0.584
 Vibration    12          0.950              1.047              0.462

 Optimization completed.
    -- Stationary point found.
 Normal termination of Gaussian 09 at Tue Jan 28 00:25:25 2020.
