 Gaussian 09, Revision D.01,
 Gaussian 09:  ES64L-G09RevD.01 24-Apr-2013

 -----------------------------
 # b3lyp 6-31G(2df,p) opt Freq
 -----------------------------

 -----
 titel
 -----
 Symbolic Z-matrix:
 Charge =  0 Multiplicity = 1

 SCF Done:  E(RB3LYP) =  -423.191157395     A.U. after   14 cycles
 SCF Done:  E(RB3LYP) =  -423.191157714     A.U. after    7 cycles
 SCF Done:  E(RB3LYP) =  -423.191157357     A.U. after    7 cycles
 SCF Done:  E(RB3LYP) =  -423.191157553     A.U. after    7 cycles
 SCF Done:  E(RB3LYP) =  -423.191157714     A.U. after    6 cycles
 Optimization completed.
    -- Stationary point found.
 Normal termination of Gaussian 09 at Mon Jan 27 14:24:41 2020.

 ----------------------------------------------------------------------
 #N Geom=AllCheck Guess=TCheck SCRF=Check GenChk RB3LYP/6-31G(2df,p) Fr
 eq
 ----------------------------------------------------------------------

 Structure from the checkpoint file:  "/scratch/puck/g09_cfad1542-d7b3-4b4f-b991-7ba2f26455f5/Gau-70753.chk"
 -----
 titel
 -----
 Charge =  0 Multiplicity = 1

                         Standard orientation:
 ---------------------------------------------------------------------
 Center     Atomic      Atomic             Coordinates (Angstroms)
 Number     Number       Type             X           Y           Z
 ---------------------------------------------------------------------
      1          6           0        3.492267   -0.551476   -0.634062
      2          6           0        2.234306   -0.250312    0.143920
      3          8           0        1.913392   -0.764236    1.185507
      4          8           0        1.500996    0.693266   -0.490351
      5          6           0        0.269000    1.080212    0.144735
      6          6           0       -0.876318    0.156039   -0.255847
      7          6           0       -2.212665    0.620206    0.357850
      8          6           0       -3.332421   -0.231452   -0.022757
      9          6           0       -4.239922   -0.947792   -0.350638
     10          1           0        4.073359   -1.306430   -0.106182
     11          1           0        3.235884   -0.909371   -1.635223
     12          1           0        4.084486    0.359601   -0.757198
     13          1           0        0.409872    1.077938    1.228926
     14          1           0        0.087466    2.103784   -0.195329
     15          1           0       -0.961920    0.131230   -1.346961
     16          1           0       -0.654473   -0.860210    0.081170
     17          1           0       -2.125851    0.640488    1.452186
     18          1           0       -2.421023    1.653899    0.050282
     19          1           0       -5.048386   -1.575707   -0.632127
 ---------------------------------------------------------------------

 SCF Done:  E(RB3LYP) =  -423.191157714     A.U. after    1 cycles

 The electronic state is 1-A.
 Alpha  occ. eigenvalues --  -19.18125 -19.12539 -10.30806 -10.24136 -10.21439
 Alpha  occ. eigenvalues --  -10.19518 -10.19406 -10.18109 -10.16975  -1.09960
 Alpha  occ. eigenvalues --   -1.01354  -0.81649  -0.76827  -0.73482  -0.69138
 Alpha  occ. eigenvalues --   -0.62682  -0.56124  -0.52419  -0.50639  -0.48049
 Alpha  occ. eigenvalues --   -0.47575  -0.46336  -0.45216  -0.42238  -0.41701
 Alpha  occ. eigenvalues --   -0.40076  -0.38499  -0.36761  -0.36202  -0.33983
 Alpha  occ. eigenvalues --   -0.30111  -0.27154  -0.26357  -0.26305
 Alpha virt. eigenvalues --    0.01387   0.05567   0.05846   0.09273   0.10391
 Alpha virt. eigenvalues --    0.12331   0.12992   0.13353   0.14207   0.15034
 Alpha virt. eigenvalues --    0.16995   0.17255   0.18344   0.20479   0.22302

 Mulliken charges:
               1
     1  C   -0.476684
     2  C    0.426212
     3  O   -0.353659
     4  O   -0.242590
     5  C   -0.075736
     6  C   -0.191311
     7  C   -0.356919
     8  C    0.291765
     9  C   -0.431461
    10  H    0.148652
    11  H    0.150796
    12  H    0.150342
    13  H    0.131033
    14  H    0.112003
    15  H    0.117756
    16  H    0.136172
    17  H    0.138188
    18  H    0.130066
    19  H    0.195375
 Sum of Mulliken charges =   0.00000

 Dipole moment (field-independent basis, Debye):
    X=              0.4677    Y=              1.1571    Z=             -1.3243  Tot=              1.8197
 Quadrupole moment (field-independent basis, Debye-Ang):
   XX=            -49.0774   YY=            -51.6302   ZZ=            -55.6145
   XY=              1.3352   XZ=             -2.9344   YZ=              3.5874

  Exact polarizability: 103.120   6.108  69.669   1.968   1.468  63.336
 Approx polarizability: 123.708  15.918 109.048   6.250  -1.383 102.673

                      1                      2                      3
                      A                      A                      A
 Frequencies --     44.9845                54.3553                74.0896
 Red. masses --      3.1094                 1.6087                 2.4337
 Frc consts  --      0.0037                 0.0028                 0.0079
 IR Inten    --      1.9203                 0.3814                 0.4848

                      4                      5                      6
                      A                      A                      A
 Frequencies --     75.4334               106.3805               148.6204
 Red. masses --      2.2931                 2.4178                 4.2134
 Frc consts  --      0.0077                 0.0161                 0.0548
 IR Inten    --      0.9250                 0.5800                 0.5116

                      7                      8                      9
                      A                      A                      A
 Frequencies --    279.6174               300.6719               332.7776
 Red. masses --      3.9709                 2.7711                 4.5529
 Frc consts  --      0.1829                 0.1476                 0.2971
 IR Inten    --      2.0208                10.5722                 3.5793

                     10                     11                     12
                      A                      A                      A
 Frequencies --    346.7667               470.5356               532.2150
 Red. masses --      3.2180                 4.1541                 4.4316
 Frc consts  --      0.2280                 0.5419                 0.7396
 IR Inten    --      2.9686                10.6345                 2.6810

                     13                     14                     15
                      A                      A                      A
 Frequencies --    611.4352               618.4901               637.9967
 Red. masses --      2.7511                 1.1985                 1.2279
 Frc consts  --      0.6060                 0.2701                 0.2945
 IR Inten    --      6.5034                43.8604                39.4032

                     16                     17                     18
                      A                      A                      A
 Frequencies --    655.2819               750.8404               830.6750
 Red. masses --      4.0084                 1.1146                 1.9070
 Frc consts  --      1.0141                 0.3702                 0.7753
 IR Inten    --      9.8574                 2.8751                 6.2416

                     19                     20                     21
                      A                      A                      A
 Frequencies --    887.9465               950.2652               995.5034
 Red. masses --      2.0194                 4.6100                 2.1424
 Frc consts  --      0.9381                 2.4527                 1.2509
 IR Inten    --      6.5283                 3.1801                 0.9485

                     22                     23                     24
                      A                      A                      A
 Frequencies --   1034.9646              1061.9924              1064.1730
 Red. masses --      3.0350                 4.0120                 1.8776
 Frc consts  --      1.9154                 2.6660                 1.2528
 IR Inten    --      1.2790                50.2452                 3.7290

                     25                     26                     27
                      A                      A                      A
 Frequencies --   1075.6656              1122.7944              1233.6712
 Red. masses --      3.4172                 1.5807                 1.4372
 Frc consts  --      2.3296                 1.1741                 1.2888
 IR Inten    --     80.1153                 1.1327                18.4121

                     28                     29                     30
                      A                      A                      A
 Frequencies --   1256.7941              1278.1716              1314.5633
 Red. masses --      2.5267                 1.4135                 1.1265
 Frc consts  --      2.3515                 1.3606                 1.1470
 IR Inten    --    315.0973                49.5685                 6.3269

                     31                     32                     33
                      A                      A                      A
 Frequencies --   1334.1843              1371.7536              1393.3175
 Red. masses --      1.1054                 1.4556                 1.3135
 Frc consts  --      1.1593                 1.6138                 1.5024
 IR Inten    --      9.0881                 5.4959                43.2115

                     34                     35                     36
                      A                      A                      A
 Frequencies --   1425.6510              1469.3592              1474.4105
 Red. masses --      1.4141                 1.0502                 1.0850
 Frc consts  --      1.6934                 1.3359                 1.3896
 IR Inten    --      6.6382                11.7803                 0.2524

                     37                     38                     39
                      A                      A                      A
 Frequencies --   1475.7356              1483.8942              1503.0791
 Red. masses --      1.0466                 1.0959                 1.0946
 Frc consts  --      1.3430                 1.4218                 1.4570
 IR Inten    --      6.6509                14.5663                 4.9111

                     40                     41                     42
                      A                      A                      A
 Frequencies --   1823.6720              2241.4494              3013.4821
 Red. masses --     10.7331                 5.9273                 1.0585
 Frc consts  --     21.0315                17.5454                 5.6634
 IR Inten    --    195.5203                 3.4458                15.5308

                     43                     44                     45
                      A                      A                      A
 Frequencies --   3043.5232              3054.4121              3058.0726
 Red. masses --      1.0996                 1.0582                 1.0364
 Frc consts  --      6.0014                 5.8168                 5.7104
 IR Inten    --      6.6261                 8.7516                 1.9298

                     46                     47                     48
                      A                      A                      A
 Frequencies --   3063.1773              3100.5089              3122.8460
 Red. masses --      1.0596                 1.1031                 1.0993
 Frc consts  --      5.8581                 6.2480                 6.3161
 IR Inten    --     39.6281                 0.9483                 4.8687

                     49                     50                     51
                      A                      A                      A
 Frequencies --   3123.6899              3170.2583              3507.3559
 Red. masses --      1.1085                 1.1029                 1.1624
 Frc consts  --      6.3724                 6.5307                 8.4251
 IR Inten    --     25.3088                 6.7413                67.9815

 - Thermochemistry -
 -------------------
 Temperature   298.150 Kelvin.  Pressure   1.00000 Atm.
 Atom     1 has atomic number  6 and mass  12.00000

 Molecular mass:   126.06808 amu.
 Principal axes and moments of inertia in atomic units:
                           1         2         3
     Eigenvalues --   396.600963015.353133098.67574
           X            0.99995  -0.00251  -0.00989
           Y            0.00419   0.98471   0.17417
           Z            0.00931  -0.17421   0.98467
 This molecule is an asymmetric top.
 Rotational symmetry number  1.
 Rotational temperatures (Kelvin)      0.21839     0.02872     0.02795
 Rotational constants (GHZ):           4.55052     0.59852     0.58242
 Zero-point vibrational energy     409131.9 (Joules/Mol)
                                   97.78486 (Kcal/Mol)
 Warning -- explicit consideration of  14 degrees of freedom as
           vibrations may cause significant error
 Vibrational temperatures:     64.72    78.21   106.60   108.53   153.06
          (Kelvin)            213.83   402.31   432.60   478.79   498.92
                              676.99   765.74   879.72   889.87   917.93
                              942.80  1080.29  1195.15  1277.56  1367.22
                             1432.31  1489.08  1527.97  1531.11  1547.64
                             1615.45  1774.98  1808.24  1839.00  1891.36
                             1919.59  1973.65  2004.67  2051.19  2114.08
                             2121.35  2123.25  2134.99  2162.59  2623.85
                             3224.94  4335.72  4378.95  4394.61  4399.88
                             4407.22  4460.94  4493.07  4494.29  4561.29
                             5046.30

 Zero-point correction=                           0.155830 (Hartree/Particle)
 Thermal correction to Energy=                    0.166459
 Thermal correction to Enthalpy=                  0.167404
 Thermal correction to Gibbs Free Energy=         0.118197
 Sum of electronic and zero-point Energies=           -423.035328
 Sum of electronic and thermal Energies=              -423.024698
 Sum of electronic and thermal Enthalpies=            -423.023754
 Sum of electronic and thermal Free Energies=         -423.072961

                     E (Thermal)             CV                S
                      KCal/Mol        Cal/Mol-Kelvin    Cal/Mol-Kelvin
 Total                  104.455             36.374            103.564
 Electronic               0.000              0.000              0.000
 Translational            0.889              2.981             40.409
 Rotational               0.889              2.981             29.695
 Vibrational            102.677             30.412             33.460
 Vibration     1          0.595              1.979              5.027
 Vibration     2          0.596              1.976              4.652
 Vibration     3          0.599              1.966              4.042
 Vibration     4          0.599              1.965              4.006
 Vibration     5          0.605              1.944              3.334
 Vibration     6          0.618              1.904              2.690
 Vibration     7          0.680              1.711              1.536
 Vibration     8          0.693              1.672              1.413
 Vibration     9          0.715              1.610              1.247
 Vibration    10          0.725              1.582              1.181
 Vibration    11          0.828              1.315              0.736
 Vibration    12          0.887              1.179              0.582
 Vibration    13          0.971              1.008              0.430
 Vibration    14          0.978              0.993              0.419

 Normal termination of Gaussian 09 at Mon Jan 27 15:02:43 2020.
