 Gaussian 09, Revision D.01,
 Gaussian 09:  ES64L-G09RevD.01 24-Apr-2013

 -----------------------------
 # b3lyp 6-31G(2df,p) opt Freq
 -----------------------------

 -----
 titel
 -----
 Symbolic Z-matrix:
 Charge =  0 Multiplicity = 1

 SCF Done:  E(RB3LYP) =  -423.136516587     A.U. after   14 cycles
 Optimization completed.
    -- Stationary point found.
 Normal termination of Gaussian 09 at Mon Jan 27 15:30:59 2020.

 ----------------------------------------------------------------------
 #N Geom=AllCheck Guess=TCheck SCRF=Check GenChk RB3LYP/6-31G(2df,p) Fr
 eq
 ----------------------------------------------------------------------

 Structure from the checkpoint file:  "/scratch/puck/g09_9938e15d-2e1a-45ff-8d26-5d024e79958d/Gau-57534.chk"
 -----
 titel
 -----
 Charge =  0 Multiplicity = 1

                         Standard orientation:
 ---------------------------------------------------------------------
 Center     Atomic      Atomic             Coordinates (Angstroms)
 Number     Number       Type             X           Y           Z
 ---------------------------------------------------------------------
      1          6           0       -2.266976   -1.001151   -0.071675
      2          6           0       -1.430733    0.229589   -0.423357
      3          8           0       -1.801426    1.357482    0.364596
      4          6           0        0.057410    0.010012   -0.261543
      5          6           0        0.894178   -1.243275   -0.678859
      6          6           0        1.722577   -0.655241    0.500660
      7          8           0        0.449298   -0.290136    1.135258
      8          6           0        2.180007    0.696358   -0.080414
      9          6           0        1.040534    1.153620   -0.599455
     10          1           0       -2.014597   -1.356943    0.931726
     11          1           0       -3.327606   -0.740056   -0.098318
     12          1           0       -2.091791   -1.818046   -0.779340
     13          1           0       -1.625527    0.521944   -1.463143
     14          1           0       -1.415798    1.218892    1.238897
     15          1           0        0.404741   -2.185772   -0.423640
     16          1           0        1.341533   -1.264543   -1.674131
     17          1           0        2.388754   -1.242600    1.130494
     18          1           0        3.173258    1.119392   -0.054794
     19          1           0        0.802078    2.069505   -1.118724
 ---------------------------------------------------------------------

 SCF Done:  E(RB3LYP) =  -423.136516587     A.U. after    1 cycles

 The electronic state is 1-A.
 Alpha  occ. eigenvalues --  -19.13306 -19.13079 -10.24660 -10.24497 -10.23401
 Alpha  occ. eigenvalues --  -10.19462 -10.18738 -10.18597 -10.17190  -1.05050
 Alpha  occ. eigenvalues --   -1.01148  -0.80719  -0.76185  -0.71352  -0.68898
 Alpha  occ. eigenvalues --   -0.61767  -0.55296  -0.54736  -0.52923  -0.47236
 Alpha  occ. eigenvalues --   -0.46461  -0.44437  -0.42258  -0.40460  -0.39686
 Alpha  occ. eigenvalues --   -0.38672  -0.37399  -0.36546  -0.33942  -0.33623
 Alpha  occ. eigenvalues --   -0.30734  -0.26700  -0.25715  -0.23909
 Alpha virt. eigenvalues --   -0.00122   0.07884   0.10733   0.11085   0.12896
 Alpha virt. eigenvalues --    0.13288   0.14735   0.15101   0.15965   0.16416
 Alpha virt. eigenvalues --    0.17051   0.17924   0.19415   0.20021   0.21352

 Mulliken charges:
               1
     1  C   -0.408221
     2  C    0.006984
     3  O   -0.437079
     4  C    0.377649
     5  C   -0.277442
     6  C    0.013979
     7  O   -0.336358
     8  C   -0.092091
     9  C   -0.116769
    10  H    0.129350
    11  H    0.122207
    12  H    0.112024
    13  H    0.088578
    14  H    0.292657
    15  H    0.109031
    16  H    0.100226
    17  H    0.083468
    18  H    0.112583
    19  H    0.119223
 Sum of Mulliken charges =   0.00000

 Dipole moment (field-independent basis, Debye):
    X=              1.4512    Y=             -1.1410    Z=             -1.0601  Tot=              2.1287
 Quadrupole moment (field-independent basis, Debye-Ang):
   XX=            -51.5466   YY=            -53.9465   ZZ=            -52.7134
   XY=              2.1870   XZ=              0.4526   YZ=             -0.0106

  Exact polarizability:  87.501   0.571  73.171   3.869  -2.540  63.180
 Approx polarizability: 123.150  -6.953 108.115   8.781  -5.697 104.489

                      1                      2                      3
                      A                      A                      A
 Frequencies --     69.4912               165.9250               190.1530
 Red. masses --      3.8233                 3.8563                 2.6043
 Frc consts  --      0.0109                 0.0626                 0.0555
 IR Inten    --      2.8013                 0.7643                 4.5841

                      4                      5                      6
                      A                      A                      A
 Frequencies --    248.7649               328.8454               372.7867
 Red. masses --      1.1583                 2.8171                 1.2825
 Frc consts  --      0.0422                 0.1795                 0.1050
 IR Inten    --      1.0873                 1.2005                78.7146

                      7                      8                      9
                      A                      A                      A
 Frequencies --    413.9621               462.5897               502.8863
 Red. masses --      2.7995                 2.2588                 2.5171
 Frc consts  --      0.2827                 0.2848                 0.3750
 IR Inten    --     36.8825                 8.0897                12.0670

                     10                     11                     12
                      A                      A                      A
 Frequencies --    535.0700               617.5980               656.7484
 Red. masses --      3.0056                 3.0329                 3.0707
 Frc consts  --      0.5070                 0.6816                 0.7803
 IR Inten    --      1.8169                 3.0044                12.1137

                     13                     14                     15
                      A                      A                      A
 Frequencies --    708.4143               750.1983               831.8671
 Red. masses --      1.7697                 5.4699                 2.9551
 Frc consts  --      0.5233                 1.8138                 1.2048
 IR Inten    --     27.0562                10.2327                23.2507

                     16                     17                     18
                      A                      A                      A
 Frequencies --    859.0291               878.6983               898.9223
 Red. masses --      3.4658                 2.4436                 2.2760
 Frc consts  --      1.5068                 1.1116                 1.0836
 IR Inten    --      0.0411                 6.3344                 9.6720

                     19                     20                     21
                      A                      A                      A
 Frequencies --    904.7048               927.6834               970.4755
 Red. masses --      1.4449                 3.2043                 2.6191
 Frc consts  --      0.6968                 1.6247                 1.4534
 IR Inten    --      4.1730                34.1456                23.8187

                     22                     23                     24
                      A                      A                      A
 Frequencies --   1002.1903              1026.8798              1047.6103
 Red. masses --      2.4756                 1.9515                 1.2345
 Frc consts  --      1.4650                 1.2124                 0.7982
 IR Inten    --     12.7439                 9.8300                 0.9802

                     25                     26                     27
                      A                      A                      A
 Frequencies --   1069.9535              1094.5600              1109.4265
 Red. masses --      1.9733                 1.6728                 1.5576
 Frc consts  --      1.3310                 1.1808                 1.1296
 IR Inten    --     54.0212                10.2162                39.8464

                     28                     29                     30
                      A                      A                      A
 Frequencies --   1154.2626              1200.5170              1236.7411
 Red. masses --      2.1716                 1.5782                 1.4288
 Frc consts  --      1.7047                 1.3402                 1.2876
 IR Inten    --      7.5054                11.1109                 1.5426

                     31                     32                     33
                      A                      A                      A
 Frequencies --   1259.8781              1266.0657              1300.2192
 Red. masses --      1.5778                 1.4773                 1.6106
 Frc consts  --      1.4756                 1.3952                 1.6043
 IR Inten    --      2.8013                 8.1359                 5.8139

                     34                     35                     36
                      A                      A                      A
 Frequencies --   1318.9149              1379.1681              1399.8932
 Red. masses --      1.7314                 1.6841                 1.2837
 Frc consts  --      1.7745                 1.8874                 1.4822
 IR Inten    --     35.5883                 6.6286                10.0436

                     37                     38                     39
                      A                      A                      A
 Frequencies --   1430.8444              1488.0882              1489.5524
 Red. masses --      1.2998                 1.1401                 1.0728
 Frc consts  --      1.5679                 1.4874                 1.4024
 IR Inten    --     54.4849                 2.2379                 7.4630

                     40                     41                     42
                      A                      A                      A
 Frequencies --   1501.3673              1619.8100              3033.4622
 Red. masses --      1.0802                 6.1599                 1.0843
 Frc consts  --      1.4345                 9.5226                 5.8787
 IR Inten    --      1.9959                 0.5913                22.8227

                     43                     44                     45
                      A                      A                      A
 Frequencies --   3040.5860              3067.5993              3112.3554
 Red. masses --      1.0354                 1.0554                 1.1003
 Frc consts  --      5.6399                 5.8514                 6.2799
 IR Inten    --     11.0859                31.5966                25.5416

                     46                     47                     48
                      A                      A                      A
 Frequencies --   3128.6033              3137.8167              3141.1866
 Red. masses --      1.1027                 1.0951                 1.1080
 Frc consts  --      6.3594                 6.3530                 6.4413
 IR Inten    --     21.4387                34.1974                32.3956

                     49                     50                     51
                      A                      A                      A
 Frequencies --   3234.6459              3262.5679              3779.5747
 Red. masses --      1.0868                 1.1117                 1.0658
 Frc consts  --      6.6999                 6.9722                 8.9706
 IR Inten    --      2.4457                 4.6397                24.9054

 - Thermochemistry -
 -------------------
 Temperature   298.150 Kelvin.  Pressure   1.00000 Atm.
 Atom     1 has atomic number  6 and mass  12.00000

 Molecular mass:   126.06808 amu.
 Principal axes and moments of inertia in atomic units:
                           1         2         3
     Eigenvalues --   568.382651246.555581461.98876
           X            0.99948   0.03211  -0.00004
           Y           -0.03211   0.99947   0.00493
           Z            0.00020  -0.00492   0.99999
 This molecule is an asymmetric top.
 Rotational symmetry number  1.
 Warning -- assumption of classical behavior for rotation
           may cause significant error
 Rotational temperatures (Kelvin)      0.15239     0.06948     0.05924
 Rotational constants (GHZ):           3.17522     1.44778     1.23444
 Zero-point vibrational energy     416474.8 (Joules/Mol)
                                   99.53987 (Kcal/Mol)
 Warning -- explicit consideration of  11 degrees of freedom as
           vibrations may cause significant error
 Vibrational temperatures:     99.98   238.73   273.59   357.92   473.13
          (Kelvin)            536.36   595.60   665.56   723.54   769.85
                              888.58   944.91  1019.25  1079.37  1196.87
                             1235.95  1264.25  1293.35  1301.67  1334.73
                             1396.30  1441.93  1477.45  1507.28  1539.42
                             1574.83  1596.22  1660.72  1727.27  1779.39
                             1812.68  1821.58  1870.72  1897.62  1984.31
                             2014.13  2058.66  2141.02  2143.13  2160.13
                             2330.54  4364.47  4374.72  4413.59  4477.98
                             4501.36  4514.61  4519.46  4653.93  4694.10
                             5437.96

 Zero-point correction=                           0.158627 (Hartree/Particle)
 Thermal correction to Energy=                    0.166818
 Thermal correction to Enthalpy=                  0.167762
 Thermal correction to Gibbs Free Energy=         0.126042
 Sum of electronic and zero-point Energies=           -422.977890
 Sum of electronic and thermal Energies=              -422.969698
 Sum of electronic and thermal Enthalpies=            -422.968754
 Sum of electronic and thermal Free Energies=         -423.010475

                     E (Thermal)             CV                S
                      KCal/Mol        Cal/Mol-Kelvin    Cal/Mol-Kelvin
 Total                  104.680             32.538             87.809
 Electronic               0.000              0.000              0.000
 Translational            0.889              2.981             40.409
 Rotational               0.889              2.981             28.429
 Vibrational            102.903             26.576             18.972
 Vibration     1          0.598              1.969              4.168
 Vibration     2          0.624              1.884              2.481
 Vibration     3          0.633              1.853              2.226
 Vibration     4          0.662              1.765              1.739
 Vibration     5          0.712              1.618              1.266
 Vibration     6          0.744              1.528              1.068
 Vibration     7          0.778              1.440              0.913
 Vibration     8          0.820              1.333              0.759
 Vibration     9          0.858              1.244              0.651
 Vibration    10          0.890              1.172              0.576
 Vibration    11          0.977              0.995              0.420

 Optimization completed.
    -- Stationary point found.
 Normal termination of Gaussian 09 at Mon Jan 27 16:12:52 2020.
