 Gaussian 09, Revision D.01,
 Gaussian 09:  ES64L-G09RevD.01 24-Apr-2013

 -----------------------------
 # b3lyp 6-31G(2df,p) opt Freq
 -----------------------------

 -----
 titel
 -----
 Symbolic Z-matrix:
 Charge =  0 Multiplicity = 1

 SCF Done:  E(RB3LYP) =  -423.221310230     A.U. after   14 cycles
 Optimization completed.
    -- Stationary point found.
 Normal termination of Gaussian 09 at Tue Jan 28 03:54:19 2020.

 ----------------------------------------------------------------------
 #N Geom=AllCheck Guess=TCheck SCRF=Check GenChk RB3LYP/6-31G(2df,p) Fr
 eq
 ----------------------------------------------------------------------

 Structure from the checkpoint file:  "/scratch/puck/g09_0d1023e4-78ee-4a3b-b4ae-3acdd3f242d9/Gau-116345.chk"
 -----
 titel
 -----
 Charge =  0 Multiplicity = 1

                         Standard orientation:
 ---------------------------------------------------------------------
 Center     Atomic      Atomic             Coordinates (Angstroms)
 Number     Number       Type             X           Y           Z
 ---------------------------------------------------------------------
      1          6           0        2.807811    0.625105   -0.331185
      2          6           0        1.547511    0.112524    0.361843
      3          8           0        1.209848   -1.120148   -0.252193
      4          6           0       -0.023554   -1.646873    0.186206
      5          6           0       -1.191058   -0.687436   -0.027899
      6          8           0       -2.326306   -1.094143   -0.172841
      7          6           0       -0.858851    0.756788    0.042726
      8          6           0       -1.994936    1.729479   -0.094120
      9          6           0        0.414142    1.101865    0.288016
     10          1           0        3.595555   -0.129534   -0.269703
     11          1           0        2.603131    0.830108   -1.385611
     12          1           0        3.163176    1.543467    0.144840
     13          1           0        1.782258   -0.064890    1.431095
     14          1           0       -0.208594   -2.565344   -0.374906
     15          1           0        0.009541   -1.907952    1.260494
     16          1           0       -2.781109    1.513670    0.636189
     17          1           0       -1.654312    2.759122    0.040026
     18          1           0       -2.461876    1.640215   -1.080697
     19          1           0        0.677502    2.146749    0.445021
 ---------------------------------------------------------------------

 SCF Done:  E(RB3LYP) =  -423.221310230     A.U. after    1 cycles

 The electronic state is 1-A.
 Alpha  occ. eigenvalues --  -19.15063 -19.12720 -10.26384 -10.25147 -10.23545
 Alpha  occ. eigenvalues --  -10.20702 -10.20247 -10.18693 -10.18450  -1.05171
 Alpha  occ. eigenvalues --   -1.03289  -0.82355  -0.78419  -0.71645  -0.69050
 Alpha  occ. eigenvalues --   -0.62401  -0.60513  -0.51588  -0.51180  -0.47982
 Alpha  occ. eigenvalues --   -0.46025  -0.45835  -0.42152  -0.41283  -0.41012
 Alpha  occ. eigenvalues --   -0.39374  -0.39184  -0.37461  -0.37157  -0.36234
 Alpha  occ. eigenvalues --   -0.32754  -0.28724  -0.26443  -0.23275
 Alpha virt. eigenvalues --   -0.05169   0.05168   0.09284   0.11418   0.11443
 Alpha virt. eigenvalues --    0.12406   0.14583   0.14799   0.16191   0.16784
 Alpha virt. eigenvalues --    0.17322   0.18198   0.19285   0.20874   0.23165

 Mulliken charges:
               1
     1  C   -0.401742
     2  C    0.087171
     3  O   -0.255167
     4  C   -0.190076
     5  C    0.303881
     6  O   -0.315921
     7  C    0.187010
     8  C   -0.477537
     9  C   -0.153076
    10  H    0.132112
    11  H    0.132435
    12  H    0.118317
    13  H    0.081525
    14  H    0.136570
    15  H    0.108606
    16  H    0.143099
    17  H    0.115691
    18  H    0.143257
    19  H    0.103843
 Sum of Mulliken charges =   0.00000

 Dipole moment (field-independent basis, Debye):
    X=              2.1425    Y=              1.9825    Z=              1.0615  Tot=              3.1060
 Quadrupole moment (field-independent basis, Debye-Ang):
   XX=            -58.5586   YY=            -51.6186   ZZ=            -52.5997
   XY=             -1.7430   XZ=              0.6123   YZ=             -0.9042

  Exact polarizability: 102.905   6.228  81.633   4.678   0.524  56.501
 Approx polarizability: 155.181  21.449 116.259  11.532   4.777  89.516

                      1                      2                      3
                      A                      A                      A
 Frequencies --     68.5388               131.8652               167.1913
 Red. masses --      4.5249                 1.1957                 1.9010
 Frc consts  --      0.0125                 0.0122                 0.0313
 IR Inten    --      2.0578                 0.6694                 0.3937

                      4                      5                      6
                      A                      A                      A
 Frequencies --    201.3998               242.5908               268.2133
 Red. masses --      2.0289                 1.2895                 2.7516
 Frc consts  --      0.0485                 0.0447                 0.1166
 IR Inten    --      4.0376                 0.9610                 3.5870

                      7                      8                      9
                      A                      A                      A
 Frequencies --    314.4807               340.0555               405.3000
 Red. masses --      3.1063                 2.9590                 5.8756
 Frc consts  --      0.1810                 0.2016                 0.5687
 IR Inten    --      1.9688                 0.2715                 9.8600

                     10                     11                     12
                      A                      A                      A
 Frequencies --    441.6600               527.8593               564.4673
 Red. masses --      3.9207                 4.0737                 2.7316
 Frc consts  --      0.4506                 0.6688                 0.5128
 IR Inten    --      5.9956                 4.7837                 1.2172

                     13                     14                     15
                      A                      A                      A
 Frequencies --    620.9031               705.0685               758.7235
 Red. masses --      3.0671                 3.7404                 4.6266
 Frc consts  --      0.6967                 1.0956                 1.5692
 IR Inten    --      4.2597                 6.5733                 7.2792

                     16                     17                     18
                      A                      A                      A
 Frequencies --    831.5688               881.1407               934.5537
 Red. masses --      2.5042                 1.3189                 1.8277
 Frc consts  --      1.0203                 0.6033                 0.9405
 IR Inten    --      8.7662                 9.2162                 1.6291

                     19                     20                     21
                      A                      A                      A
 Frequencies --    994.1068              1013.9725              1052.4655
 Red. masses --      2.2848                 2.2061                 1.6183
 Frc consts  --      1.3303                 1.3364                 1.0562
 IR Inten    --      9.3604                 3.0408                 6.9211

                     22                     23                     24
                      A                      A                      A
 Frequencies --   1072.5090              1095.8719              1112.5193
 Red. masses --      1.6188                 2.2116                 2.9893
 Frc consts  --      1.0971                 1.5649                 2.1799
 IR Inten    --      3.5410                 2.5217                20.0349

                     25                     26                     27
                      A                      A                      A
 Frequencies --   1161.9459              1182.3191              1241.9422
 Red. masses --      2.3754                 2.8245                 1.8699
 Frc consts  --      1.8896                 2.3262                 1.6993
 IR Inten    --     13.0918                85.7921                16.3774

                     28                     29                     30
                      A                      A                      A
 Frequencies --   1271.4915              1335.1206              1347.2672
 Red. masses --      1.2701                 1.4170                 1.4964
 Frc consts  --      1.2098                 1.4882                 1.6003
 IR Inten    --     19.1749                14.7660                 5.5375

                     31                     32                     33
                      A                      A                      A
 Frequencies --   1377.4608              1386.1754              1403.2223
 Red. masses --      1.7088                 1.7567                 1.2618
 Frc consts  --      1.9102                 1.9888                 1.4638
 IR Inten    --     28.5190                26.5117                 2.7238

                     34                     35                     36
                      A                      A                      A
 Frequencies --   1413.3940              1467.9397              1469.5664
 Red. masses --      1.2788                 1.0813                 1.0465
 Frc consts  --      1.5051                 1.3728                 1.3316
 IR Inten    --      1.6808                 7.2132                 4.4430

                     37                     38                     39
                      A                      A                      A
 Frequencies --   1482.8386              1486.6564              1499.8376
 Red. masses --      1.0480                 1.0678                 1.0538
 Frc consts  --      1.3577                 1.3904                 1.3967
 IR Inten    --      3.7178                 9.1738                 2.6213

                     40                     41                     42
                      A                      A                      A
 Frequencies --   1704.0838              1780.0242              2895.9873
 Red. masses --      7.7155                12.3298                 1.0790
 Frc consts  --     13.2007                23.0176                 5.3315
 IR Inten    --      7.4284               209.0120                47.2838

                     43                     44                     45
                      A                      A                      A
 Frequencies --   2939.3346              3040.6443              3047.5211
 Red. masses --      1.0707                 1.0354                 1.0342
 Frc consts  --      5.4502                 5.6401                 5.6593
 IR Inten    --     42.3972                16.6975                15.9260

                     46                     47                     48
                      A                      A                      A
 Frequencies --   3098.0436              3111.9901              3124.0227
 Red. masses --      1.0987                 1.0900                 1.1021
 Frc consts  --      6.2128                 6.2196                 6.3371
 IR Inten    --      9.5726                12.6677                17.7494

                     49                     50                     51
                      A                      A                      A
 Frequencies --   3124.5511              3131.3649              3142.5991
 Red. masses --      1.1030                 1.1026                 1.0900
 Frc consts  --      6.3447                 6.3701                 6.3422
 IR Inten    --      9.0321                15.0043                18.3500

 - Thermochemistry -
 -------------------
 Temperature   298.150 Kelvin.  Pressure   1.00000 Atm.
 Atom     1 has atomic number  6 and mass  12.00000

 Molecular mass:   126.06808 amu.
 Principal axes and moments of inertia in atomic units:
                           1         2         3
     Eigenvalues --   655.524871331.150481890.11537
           X            0.99976  -0.02184  -0.00076
           Y            0.02183   0.99967  -0.01348
           Z            0.00105   0.01346   0.99991
 This molecule is an asymmetric top.
 Rotational symmetry number  1.
 Warning -- assumption of classical behavior for rotation
           may cause significant error
 Rotational temperatures (Kelvin)      0.13213     0.06507     0.04582
 Rotational constants (GHZ):           2.75312     1.35578     0.95483
 Zero-point vibrational energy     415190.1 (Joules/Mol)
                                   99.23282 (Kcal/Mol)
 Warning -- explicit consideration of  12 degrees of freedom as
           vibrations may cause significant error
 Vibrational temperatures:     98.61   189.72   240.55   289.77   349.03
          (Kelvin)            385.90   452.47   489.26   583.14   635.45
                              759.47   812.14   893.34  1014.44  1091.63
                             1196.44  1267.76  1344.61  1430.30  1458.88
                             1514.26  1543.10  1576.71  1600.67  1671.78
                             1701.09  1786.88  1829.39  1920.94  1938.41
                             1981.86  1994.39  2018.92  2033.56  2112.04
                             2114.38  2133.47  2138.96  2157.93  2451.79
                             2561.05  4166.67  4229.04  4374.80  4384.70
                             4457.39  4477.45  4494.77  4495.53  4505.33
                             4521.49

 Zero-point correction=                           0.158138 (Hartree/Particle)
 Thermal correction to Energy=                    0.167157
 Thermal correction to Enthalpy=                  0.168101
 Thermal correction to Gibbs Free Energy=         0.124375
 Sum of electronic and zero-point Energies=           -423.063173
 Sum of electronic and thermal Energies=              -423.054153
 Sum of electronic and thermal Enthalpies=            -423.053209
 Sum of electronic and thermal Free Energies=         -423.096936

                     E (Thermal)             CV                S
                      KCal/Mol        Cal/Mol-Kelvin    Cal/Mol-Kelvin
 Total                  104.893             33.435             92.030
 Electronic               0.000              0.000              0.000
 Translational            0.889              2.981             40.409
 Rotational               0.889              2.981             28.891
 Vibrational            103.115             27.473             22.731
 Vibration     1          0.598              1.969              4.195
 Vibration     2          0.612              1.921              2.919
 Vibration     3          0.624              1.883              2.467
 Vibration     4          0.638              1.838              2.120
 Vibration     5          0.659              1.775              1.784
 Vibration     6          0.673              1.732              1.608
 Vibration     7          0.702              1.646              1.339
 Vibration     8          0.720              1.595              1.212
 Vibration     9          0.770              1.459              0.943
 Vibration    10          0.801              1.379              0.821
 Vibration    11          0.883              1.188              0.592
 Vibration    12          0.920              1.108              0.515

 Optimization completed.
    -- Stationary point found.
 Normal termination of Gaussian 09 at Tue Jan 28 04:32:57 2020.
