 Gaussian 09, Revision D.01,
 Gaussian 09:  ES64L-G09RevD.01 24-Apr-2013

 -----------------------------
 # b3lyp 6-31G(2df,p) opt Freq
 -----------------------------

 -----
 titel
 -----
 Symbolic Z-matrix:
 Charge =  0 Multiplicity = 1

 SCF Done:  E(RB3LYP) =  -423.160017824     A.U. after   13 cycles
 Optimization completed.
    -- Stationary point found.
 Normal termination of Gaussian 09 at Tue Jan 28 02:31:31 2020.

 ----------------------------------------------------------------------
 #N Geom=AllCheck Guess=TCheck SCRF=Check GenChk RB3LYP/6-31G(2df,p) Fr
 eq
 ----------------------------------------------------------------------

 Structure from the checkpoint file:  "/scratch/puck/g09_e38611f4-a25a-4916-ad04-72ce94f76a03/Gau-112515.chk"
 -----
 titel
 -----
 Charge =  0 Multiplicity = 1

                         Standard orientation:
 ---------------------------------------------------------------------
 Center     Atomic      Atomic             Coordinates (Angstroms)
 Number     Number       Type             X           Y           Z
 ---------------------------------------------------------------------
      1          8           0        2.556695   -0.841367    0.153603
      2          6           0        1.591773    0.089664   -0.258302
      3          6           0        0.889076    1.024125    0.815559
      4          6           0       -0.472810    0.741116    0.084821
      5          8           0       -0.753962    1.723927   -0.906834
      6          6           0       -1.735708    0.151274    0.752854
      7          6           0       -1.918298   -1.233584    0.049770
      8          6           0       -0.514278   -1.569127   -0.447799
      9          6           0        0.215758   -0.462335   -0.501487
     10          1           0        3.418562   -0.414881    0.131699
     11          1           0        1.946126    0.701837   -1.098630
     12          1           0        0.942481    0.560652    1.803172
     13          1           0        1.217993    2.066866    0.856852
     14          1           0       -0.994991    2.535831   -0.447617
     15          1           0       -1.572235   -0.002875    1.824344
     16          1           0       -2.603056    0.807285    0.634812
     17          1           0       -2.288365   -1.995787    0.743906
     18          1           0       -2.646328   -1.183187   -0.770620
     19          1           0       -0.175125   -2.583022   -0.624571
 ---------------------------------------------------------------------

 SCF Done:  E(RB3LYP) =  -423.160017824     A.U. after    1 cycles

 The electronic state is 1-A.
 Alpha  occ. eigenvalues --  -19.13916 -19.13153 -10.23908 -10.22694 -10.18151
 Alpha  occ. eigenvalues --  -10.18133 -10.17760 -10.17635 -10.16913  -1.02406
 Alpha  occ. eigenvalues --   -1.01353  -0.85362  -0.77500  -0.70201  -0.64493
 Alpha  occ. eigenvalues --   -0.62053  -0.57658  -0.51904  -0.51398  -0.48210
 Alpha  occ. eigenvalues --   -0.46402  -0.44108  -0.43017  -0.39921  -0.38406
 Alpha  occ. eigenvalues --   -0.37422  -0.34915  -0.34426  -0.34066  -0.31888
 Alpha  occ. eigenvalues --   -0.29394  -0.27730  -0.25290  -0.22769
 Alpha virt. eigenvalues --    0.01230   0.07854   0.08641   0.11126   0.12554
 Alpha virt. eigenvalues --    0.13693   0.14802   0.15336   0.16298   0.17637
 Alpha virt. eigenvalues --    0.18195   0.18650   0.20852   0.21898   0.22838

 Mulliken charges:
               1
     1  O   -0.426071
     2  C    0.028352
     3  C   -0.336868
     4  C    0.356925
     5  O   -0.495763
     6  C   -0.286896
     7  C   -0.245915
     8  C   -0.221090
     9  C    0.270742
    10  H    0.285629
    11  H    0.090056
    12  H    0.109360
    13  H    0.086549
    14  H    0.274353
    15  H    0.100040
    16  H    0.091187
    17  H    0.103076
    18  H    0.113907
    19  H    0.102427
 Sum of Mulliken charges =   0.00000

 Dipole moment (field-independent basis, Debye):
    X=              0.4659    Y=              1.4223    Z=              1.2436  Tot=              1.9459
 Quadrupole moment (field-independent basis, Debye-Ang):
   XX=            -46.6499   YY=            -50.0909   ZZ=            -55.7240
   XY=              2.6575   XZ=             -1.9031   YZ=              2.1300

  Exact polarizability:  90.021   7.977  85.158  -0.967   2.063  60.225
 Approx polarizability: 121.907  14.072 131.017  -0.852   0.312  93.818

                      1                      2                      3
                      A                      A                      A
 Frequencies --    102.0999               127.8396               247.4824
 Red. masses --      2.5472                 3.8647                 2.2815
 Frc consts  --      0.0156                 0.0372                 0.0823
 IR Inten    --      0.3808                 4.7207                 1.8890

                      4                      5                      6
                      A                      A                      A
 Frequencies --    255.0356               279.4384               304.0530
 Red. masses --      1.1578                 1.9863                 1.7776
 Frc consts  --      0.0444                 0.0914                 0.0968
 IR Inten    --    103.1300                19.4368                46.8300

                      7                      8                      9
                      A                      A                      A
 Frequencies --    329.9394               370.1990               438.7295
 Red. masses --      2.0728                 3.7977                 2.9605
 Frc consts  --      0.1329                 0.3066                 0.3357
 IR Inten    --      5.8257                29.1467                 5.5453

                     10                     11                     12
                      A                      A                      A
 Frequencies --    537.1042               591.7607               663.4069
 Red. masses --      3.0351                 4.2289                 3.0019
 Frc consts  --      0.5159                 0.8725                 0.7784
 IR Inten    --      2.7668                 5.0433                10.5953

                     13                     14                     15
                      A                      A                      A
 Frequencies --    690.5327               750.9636               814.7034
 Red. masses --      2.5362                 2.2717                 2.4181
 Frc consts  --      0.7125                 0.7548                 0.9456
 IR Inten    --      4.7338                 3.4851                 8.9966

                     16                     17                     18
                      A                      A                      A
 Frequencies --    853.9018               871.0000               901.6714
 Red. masses --      1.3679                 3.4613                 2.6076
 Frc consts  --      0.5876                 1.5471                 1.2491
 IR Inten    --      5.0478                 3.0002                 2.6499

                     19                     20                     21
                      A                      A                      A
 Frequencies --    925.4298               944.3258               961.3392
 Red. masses --      2.2125                 2.1584                 3.0221
 Frc consts  --      1.1164                 1.1341                 1.6456
 IR Inten    --     23.7396                 7.8259                10.9647

                     22                     23                     24
                      A                      A                      A
 Frequencies --    999.9509              1032.4897              1093.0192
 Red. masses --      2.3043                 2.3147                 2.1245
 Frc consts  --      1.3575                 1.4539                 1.4954
 IR Inten    --      3.3934                37.7566                16.5775

                     25                     26                     27
                      A                      A                      A
 Frequencies --   1107.3588              1142.8798              1180.0891
 Red. masses --      1.7389                 1.5843                 2.2860
 Frc consts  --      1.2563                 1.2192                 1.8757
 IR Inten    --     48.2962                19.8106                35.0236

                     28                     29                     30
                      A                      A                      A
 Frequencies --   1196.3591              1201.1420              1214.6143
 Red. masses --      1.3845                 1.3235                 1.4839
 Frc consts  --      1.1676                 1.1251                 1.2898
 IR Inten    --      9.9731                 3.3218               143.9963

                     31                     32                     33
                      A                      A                      A
 Frequencies --   1237.2632              1273.9578              1284.4536
 Red. masses --      1.7473                 1.4587                 1.2868
 Frc consts  --      1.5760                 1.3949                 1.2509
 IR Inten    --     22.5144                 9.9784                46.8120

                     34                     35                     36
                      A                      A                      A
 Frequencies --   1303.0889              1321.2664              1385.8168
 Red. masses --      1.3165                 1.5687                 1.8673
 Frc consts  --      1.3171                 1.6135                 2.1129
 IR Inten    --      6.0556                14.8263                11.9838

                     37                     38                     39
                      A                      A                      A
 Frequencies --   1431.3940              1456.9746              1469.5269
 Red. masses --      1.4181                 1.1687                 1.0890
 Frc consts  --      1.7119                 1.4616                 1.3856
 IR Inten    --     15.3720                 3.9941                 1.5951

                     40                     41                     42
                      A                      A                      A
 Frequencies --   1490.5377              1746.1545              3009.7254
 Red. masses --      1.0934                 8.5757                 1.0835
 Frc consts  --      1.4312                15.4058                 5.7825
 IR Inten    --      1.7687                 3.1472                39.7328

                     43                     44                     45
                      A                      A                      A
 Frequencies --   3021.0574              3046.1916              3049.6065
 Red. masses --      1.0659                 1.0629                 1.0594
 Frc consts  --      5.7316                 5.8109                 5.8050
 IR Inten    --     43.4071                15.9991                50.2063

                     46                     47                     48
                      A                      A                      A
 Frequencies --   3065.8528              3098.4785              3127.1776
 Red. masses --      1.0918                 1.1053                 1.1075
 Frc consts  --      6.0462                 6.2524                 6.3812
 IR Inten    --     28.5392                30.5046                25.5866

                     49                     50                     51
                      A                      A                      A
 Frequencies --   3202.7808              3798.5332              3826.8942
 Red. masses --      1.0946                 1.0660                 1.0663
 Frc consts  --      6.6156                 9.0625                 9.2005
 IR Inten    --     10.2610                15.6082                26.4417

 - Thermochemistry -
 -------------------
 Temperature   298.150 Kelvin.  Pressure   1.00000 Atm.
 Atom     1 has atomic number  8 and mass  15.99491

 Molecular mass:   126.06808 amu.
 Principal axes and moments of inertia in atomic units:
                           1         2         3
     Eigenvalues --   708.297601165.941151550.93373
           X            0.99865   0.05077  -0.01051
           Y           -0.05054   0.99850   0.02114
           Z            0.01157  -0.02058   0.99972
 This molecule is an asymmetric top.
 Rotational symmetry number  1.
 Warning -- assumption of classical behavior for rotation
           may cause significant error
 Rotational temperatures (Kelvin)      0.12228     0.07429     0.05585
 Rotational constants (GHZ):           2.54800     1.54788     1.16365
 Zero-point vibrational energy     417350.7 (Joules/Mol)
                                   99.74921 (Kcal/Mol)
 Warning -- explicit consideration of  11 degrees of freedom as
           vibrations may cause significant error
 Vibrational temperatures:    146.90   183.93   356.07   366.94   402.05
          (Kelvin)            437.46   474.71   532.63   631.23   772.77
                              851.41   954.49   993.52  1080.47  1172.18
                             1228.57  1253.17  1297.30  1331.49  1358.67
                             1383.15  1438.70  1485.52  1572.61  1593.24
                             1644.35  1697.88  1721.29  1728.17  1747.56
                             1780.14  1832.94  1848.04  1874.85  1901.01
                             1993.88  2059.45  2096.26  2114.32  2144.55
                             2512.32  4330.32  4346.62  4382.78  4387.70
                             4411.07  4458.01  4499.31  4608.08  5465.24
                             5506.04

 Zero-point correction=                           0.158960 (Hartree/Particle)
 Thermal correction to Energy=                    0.167426
 Thermal correction to Enthalpy=                  0.168370
 Thermal correction to Gibbs Free Energy=         0.126227
 Sum of electronic and zero-point Energies=           -423.001057
 Sum of electronic and thermal Energies=              -422.992592
 Sum of electronic and thermal Enthalpies=            -422.991647
 Sum of electronic and thermal Free Energies=         -423.033791

                     E (Thermal)             CV                S
                      KCal/Mol        Cal/Mol-Kelvin    Cal/Mol-Kelvin
 Total                  105.062             33.150             88.699
 Electronic               0.000              0.000              0.000
 Translational            0.889              2.981             40.409
 Rotational               0.889              2.981             28.640
 Vibrational            103.284             27.188             19.651
 Vibration     1          0.604              1.947              3.414
 Vibration     2          0.611              1.925              2.978
 Vibration     3          0.661              1.767              1.748
 Vibration     4          0.665              1.754              1.696
 Vibration     5          0.680              1.712              1.537
 Vibration     6          0.695              1.666              1.394
 Vibration     7          0.713              1.616              1.260
 Vibration     8          0.742              1.533              1.079
 Vibration     9          0.799              1.386              0.831
 Vibration    10          0.892              1.168              0.572
 Vibration    11          0.949              1.049              0.464

 Optimization completed.
    -- Stationary point found.
 Normal termination of Gaussian 09 at Tue Jan 28 03:16:04 2020.
