 Gaussian 09, Revision D.01,
 Gaussian 09:  ES64L-G09RevD.01 24-Apr-2013

 -----------------------------
 # b3lyp 6-31G(2df,p) opt Freq
 -----------------------------

 -----
 titel
 -----
 Symbolic Z-matrix:
 Charge =  0 Multiplicity = 1

 SCF Done:  E(RB3LYP) =  -423.120918830     A.U. after   14 cycles
 Optimization completed.
    -- Stationary point found.
 Normal termination of Gaussian 09 at Mon Jan 27 17:27:29 2020.

 ----------------------------------------------------------------------
 #N Geom=AllCheck Guess=TCheck SCRF=Check GenChk RB3LYP/6-31G(2df,p) Fr
 eq
 ----------------------------------------------------------------------

 Structure from the checkpoint file:  "/scratch/puck/g09_39cf4463-261c-4bf0-a8eb-59f54443efe6/Gau-39750.chk"
 -----
 titel
 -----
 Charge =  0 Multiplicity = 1

                         Standard orientation:
 ---------------------------------------------------------------------
 Center     Atomic      Atomic             Coordinates (Angstroms)
 Number     Number       Type             X           Y           Z
 ---------------------------------------------------------------------
      1          6           0       -1.813878    1.584544   -0.180825
      2          6           0       -0.931006    0.399131    0.135039
      3          6           0       -1.574388   -0.994913    0.339297
      4          8           0       -0.662364   -1.603011   -0.612755
      5          6           0       -0.063218   -0.320794   -0.919556
      6          6           0        1.221964    0.057016   -0.143457
      7          8           0        2.364093    0.553331   -0.745218
      8          6           0        1.192621   -0.511368    1.240007
      9          6           0        0.359505    0.718019    0.934657
     10          1           0       -2.336743    1.936459    0.716716
     11          1           0       -1.221872    2.421725   -0.566238
     12          1           0       -2.568835    1.329384   -0.931735
     13          1           0       -1.504736   -1.448524    1.334804
     14          1           0       -2.611204   -1.060315   -0.014268
     15          1           0       -0.064219   -0.074612   -1.985147
     16          1           0        2.988959   -0.172450   -0.854115
     17          1           0        0.749089   -1.480681    1.441496
     18          1           0        2.084072   -0.288073    1.818495
     19          1           0        0.522052    1.644722    1.472803
 ---------------------------------------------------------------------

 SCF Done:  E(RB3LYP) =  -423.120918830     A.U. after    1 cycles

 The electronic state is 1-A.
 Alpha  occ. eigenvalues --  -19.14962 -19.13047 -10.23818 -10.22636 -10.22461
 Alpha  occ. eigenvalues --  -10.19781 -10.19387 -10.18731 -10.18137  -1.04118
 Alpha  occ. eigenvalues --   -1.02809  -0.87681  -0.76582  -0.69585  -0.67036
 Alpha  occ. eigenvalues --   -0.60277  -0.58982  -0.52942  -0.51671  -0.49515
 Alpha  occ. eigenvalues --   -0.45877  -0.44938  -0.42424  -0.41359  -0.40217
 Alpha  occ. eigenvalues --   -0.39747  -0.38815  -0.35282  -0.34769  -0.30331
 Alpha  occ. eigenvalues --   -0.29030  -0.27695  -0.24429  -0.23788
 Alpha virt. eigenvalues --    0.06568   0.08109   0.09807   0.11051   0.11676
 Alpha virt. eigenvalues --    0.13534   0.14961   0.15516   0.16210   0.16683
 Alpha virt. eigenvalues --    0.17593   0.18098   0.18687   0.21081   0.22811

 Mulliken charges:
               1
     1  C   -0.495257
     2  C    0.318952
     3  C   -0.149439
     4  O   -0.300487
     5  C   -0.014056
     6  C    0.384143
     7  O   -0.462840
     8  C   -0.368101
     9  C   -0.179210
    10  H    0.120428
    11  H    0.126272
    12  H    0.119377
    13  H    0.100660
    14  H    0.098571
    15  H    0.078797
    16  H    0.287973
    17  H    0.127967
    18  H    0.113259
    19  H    0.092992
 Sum of Mulliken charges =   0.00000

 Dipole moment (field-independent basis, Debye):
    X=              0.0218    Y=              0.4716    Z=              0.8310  Tot=              0.9557
 Quadrupole moment (field-independent basis, Debye-Ang):
   XX=            -48.3940   YY=            -56.9006   ZZ=            -52.5514
   XY=             -4.4398   XZ=             -0.2683   YZ=             -0.4747

  Exact polarizability:  84.282  -1.439  69.738   0.234  -1.532  69.415
 Approx polarizability: 113.887  -0.740 105.452  -4.199   0.170 106.864

                      1                      2                      3
                      A                      A                      A
 Frequencies --    143.1958               223.9618               238.1032
 Red. masses --      3.6578                 1.0932                 2.3542
 Frc consts  --      0.0442                 0.0323                 0.0786
 IR Inten    --      5.5329                 0.4630                 4.1289

                      4                      5                      6
                      A                      A                      A
 Frequencies --    260.1107               270.0102               304.6762
 Red. masses --      1.7095                 2.3379                 2.4675
 Frc consts  --      0.0681                 0.1004                 0.1350
 IR Inten    --     69.2465                 3.2720                17.3186

                      7                      8                      9
                      A                      A                      A
 Frequencies --    339.6186               391.4219               479.7255
 Red. masses --      2.4080                 3.5018                 2.1853
 Frc consts  --      0.1636                 0.3161                 0.2963
 IR Inten    --      4.0678                15.2421                 1.8284

                     10                     11                     12
                      A                      A                      A
 Frequencies --    504.2801               587.4594               650.7774
 Red. masses --      3.1730                 3.5104                 3.7469
 Frc consts  --      0.4754                 0.7138                 0.9349
 IR Inten    --      3.1942                 1.0061                 0.2009

                     13                     14                     15
                      A                      A                      A
 Frequencies --    756.5205               811.6595               844.4448
 Red. masses --      3.7676                 2.8039                 2.8287
 Frc consts  --      1.2704                 1.0883                 1.1884
 IR Inten    --      4.3376                 6.2560                22.2473

                     16                     17                     18
                      A                      A                      A
 Frequencies --    885.2086               894.8197               955.6231
 Red. masses --      1.9793                 1.7896                 1.3577
 Frc consts  --      0.9138                 0.8443                 0.7305
 IR Inten    --     13.8790                 3.0871                 3.1735

                     19                     20                     21
                      A                      A                      A
 Frequencies --    973.6815               980.6815               986.1182
 Red. masses --      2.1184                 2.8792                 2.2390
 Frc consts  --      1.1833                 1.6315                 1.2828
 IR Inten    --     13.0133                65.6562                43.1227

                     22                     23                     24
                      A                      A                      A
 Frequencies --    995.1688              1013.6066              1043.1973
 Red. masses --      3.2616                 1.4728                 2.6196
 Frc consts  --      1.9032                 0.8915                 1.6796
 IR Inten    --     12.8758                 3.9816                 4.0153

                     25                     26                     27
                      A                      A                      A
 Frequencies --   1078.4700              1134.8850              1157.1670
 Red. masses --      1.3528                 1.6763                 1.3554
 Frc consts  --      0.9270                 1.2721                 1.0693
 IR Inten    --      5.5426                10.1905                 6.0293

                     28                     29                     30
                      A                      A                      A
 Frequencies --   1182.5228              1205.2620              1220.4793
 Red. masses --      2.1541                 1.5496                 1.8845
 Frc consts  --      1.7748                 1.3262                 1.6539
 IR Inten    --      1.0215                24.9218                38.7147

                     31                     32                     33
                      A                      A                      A
 Frequencies --   1248.1618              1266.9142              1286.7781
 Red. masses --      2.6002                 2.7833                 1.5041
 Frc consts  --      2.3867                 2.6321                 1.4673
 IR Inten    --      6.8315                22.3818                19.9645

                     34                     35                     36
                      A                      A                      A
 Frequencies --   1317.8744              1375.9743              1402.0884
 Red. masses --      1.5130                 2.1465                 1.9993
 Frc consts  --      1.5482                 2.3944                 2.3156
 IR Inten    --     27.7144                 0.3010                34.2750

                     37                     38                     39
                      A                      A                      A
 Frequencies --   1413.1864              1489.5762              1494.0991
 Red. masses --      1.2668                 1.2338                 1.1586
 Frc consts  --      1.4906                 1.6129                 1.5238
 IR Inten    --      1.5511                 4.4963                14.3212

                     40                     41                     42
                      A                      A                      A
 Frequencies --   1496.3397              1520.7429              3012.5026
 Red. masses --      1.1026                 1.0918                 1.0549
 Frc consts  --      1.4545                 1.4877                 5.6404
 IR Inten    --      3.4725                 1.2454                63.4413

                     43                     44                     45
                      A                      A                      A
 Frequencies --   3023.9804              3060.5676              3076.0963
 Red. masses --      1.0366                 1.1096                 1.0893
 Frc consts  --      5.5850                 6.1240                 6.0731
 IR Inten    --     34.5869                36.1898                34.6949

                     46                     47                     48
                      A                      A                      A
 Frequencies --   3086.7340              3100.1669              3126.0303
 Red. masses --      1.0996                 1.1016                 1.0531
 Frc consts  --      6.1726                 6.2379                 6.0630
 IR Inten    --     24.0863                23.3567                12.1859

                     49                     50                     51
                      A                      A                      A
 Frequencies --   3179.7421              3211.9635              3788.3519
 Red. masses --      1.0936                 1.1156                 1.0662
 Frc consts  --      6.5149                 6.7810                 9.0156
 IR Inten    --     10.3296                 6.6942                23.9342

 - Thermochemistry -
 -------------------
 Temperature   298.150 Kelvin.  Pressure   1.00000 Atm.
 Atom     1 has atomic number  6 and mass  12.00000

 Molecular mass:   126.06808 amu.
 Principal axes and moments of inertia in atomic units:
                           1         2         3
     Eigenvalues --   684.850961148.969251321.31397
           X            0.99834  -0.05510   0.01696
           Y            0.05608   0.99635  -0.06434
           Z           -0.01336   0.06518   0.99778
 This molecule is an asymmetric top.
 Rotational symmetry number  1.
 Warning -- assumption of classical behavior for rotation
           may cause significant error
 Rotational temperatures (Kelvin)      0.12647     0.07538     0.06555
 Rotational constants (GHZ):           2.63523     1.57075     1.36587
 Zero-point vibrational energy     415646.9 (Joules/Mol)
                                   99.34198 (Kcal/Mol)
 Warning -- explicit consideration of  11 degrees of freedom as
           vibrations may cause significant error
 Vibrational temperatures:    206.03   322.23   342.58   374.24   388.48
          (Kelvin)            438.36   488.63   563.17   690.22   725.55
                              845.22   936.32  1088.46  1167.80  1214.97
                             1273.62  1287.44  1374.93  1400.91  1410.98
                             1418.80  1431.82  1458.35  1500.93  1551.68
                             1632.84  1664.90  1701.38  1734.10  1756.00
                             1795.82  1822.80  1851.38  1896.12  1979.72
                             2017.29  2033.26  2143.17  2149.67  2152.90
                             2188.01  4334.31  4350.83  4403.47  4425.81
                             4441.12  4460.44  4497.65  4574.93  4621.29
                             5450.59

 Zero-point correction=                           0.158312 (Hartree/Particle)
 Thermal correction to Energy=                    0.166447
 Thermal correction to Enthalpy=                  0.167391
 Thermal correction to Gibbs Free Energy=         0.126290
 Sum of electronic and zero-point Energies=           -422.962607
 Sum of electronic and thermal Energies=              -422.954472
 Sum of electronic and thermal Enthalpies=            -422.953528
 Sum of electronic and thermal Free Energies=         -422.994629

                     E (Thermal)             CV                S
                      KCal/Mol        Cal/Mol-Kelvin    Cal/Mol-Kelvin
 Total                  104.447             32.523             86.505
 Electronic               0.000              0.000              0.000
 Translational            0.889              2.981             40.409
 Rotational               0.889              2.981             28.432
 Vibrational            102.670             26.561             17.664
 Vibration     1          0.616              1.910              2.761
 Vibration     2          0.649              1.805              1.927
 Vibration     3          0.656              1.782              1.817
 Vibration     4          0.668              1.746              1.661
 Vibration     5          0.674              1.728              1.596
 Vibration     6          0.696              1.665              1.391
 Vibration     7          0.720              1.596              1.214
 Vibration     8          0.759              1.489              0.995
 Vibration     9          0.836              1.295              0.711
 Vibration    10          0.860              1.241              0.648
 Vibration    11          0.945              1.059              0.472

 Optimization completed.
    -- Stationary point found.
 Normal termination of Gaussian 09 at Mon Jan 27 18:25:16 2020.
