 Gaussian 09, Revision D.01,
 Gaussian 09:  ES64L-G09RevD.01 24-Apr-2013

 -----------------------------
 # b3lyp 6-31G(2df,p) opt Freq
 -----------------------------

 -----
 titel
 -----
 Symbolic Z-matrix:
 Charge =  0 Multiplicity = 1

 SCF Done:  E(RB3LYP) =  -423.200680242     A.U. after   14 cycles
 Optimization completed.
    -- Stationary point found.
 Normal termination of Gaussian 09 at Tue Jan 28 03:55:01 2020.

 ----------------------------------------------------------------------
 #N Geom=AllCheck Guess=TCheck SCRF=Check GenChk RB3LYP/6-31G(2df,p) Fr
 eq
 ----------------------------------------------------------------------

 Structure from the checkpoint file:  "/scratch/puck/g09_a4c2ffb5-2b93-4518-a646-935ab7791186/Gau-116360.chk"
 -----
 titel
 -----
 Charge =  0 Multiplicity = 1

                         Standard orientation:
 ---------------------------------------------------------------------
 Center     Atomic      Atomic             Coordinates (Angstroms)
 Number     Number       Type             X           Y           Z
 ---------------------------------------------------------------------
      1          6           0       -1.819444   -1.215085   -0.785562
      2          6           0       -1.041394   -0.630724    0.393641
      3          8           0       -1.541543    0.680378    0.729619
      4          6           0       -0.775029    1.670982    0.072872
      5          6           0        0.588080    1.039773   -0.206144
      6          8           0        1.580285    1.599859   -0.602665
      7          6           0        0.440500   -0.411245    0.122224
      8          6           0        1.562540   -1.041029    0.935982
      9          6           0        1.394077   -1.400114   -0.503845
     10          1           0       -1.506933   -2.244384   -0.988368
     11          1           0       -2.888927   -1.217824   -0.558833
     12          1           0       -1.659655   -0.628969   -1.696592
     13          1           0       -1.205738   -1.248597    1.282795
     14          1           0       -1.227631    1.993915   -0.878946
     15          1           0       -0.682802    2.550881    0.717219
     16          1           0        2.386880   -0.389774    1.205426
     17          1           0        1.271849   -1.763271    1.691574
     18          1           0        2.102698   -0.987541   -1.214492
     19          1           0        1.004343   -2.381671   -0.750425
 ---------------------------------------------------------------------

 SCF Done:  E(RB3LYP) =  -423.200680242     A.U. after    1 cycles

 The electronic state is 1-A.
 Alpha  occ. eigenvalues --  -19.14538 -19.13336 -10.26979 -10.24451 -10.23546
 Alpha  occ. eigenvalues --  -10.20710 -10.20529 -10.20312 -10.18243  -1.05231
 Alpha  occ. eigenvalues --   -1.03448  -0.87686  -0.76724  -0.72641  -0.67406
 Alpha  occ. eigenvalues --   -0.61605  -0.58806  -0.53930  -0.50558  -0.49022
 Alpha  occ. eigenvalues --   -0.47964  -0.45229  -0.42678  -0.42425  -0.41072
 Alpha  occ. eigenvalues --   -0.39187  -0.38793  -0.36821  -0.36437  -0.35505
 Alpha  occ. eigenvalues --   -0.31151  -0.29468  -0.26372  -0.24184
 Alpha virt. eigenvalues --   -0.02245   0.08115   0.09385   0.10548   0.11453
 Alpha virt. eigenvalues --    0.12238   0.13736   0.15505   0.16617   0.16960
 Alpha virt. eigenvalues --    0.18442   0.18701   0.19910   0.20778   0.21979

 Mulliken charges:
               1
     1  C   -0.391735
     2  C    0.004714
     3  O   -0.267683
     4  C   -0.191998
     5  C    0.311373
     6  O   -0.329705
     7  C    0.235597
     8  C   -0.296757
     9  C   -0.305786
    10  H    0.116129
    11  H    0.128024
    12  H    0.118522
    13  H    0.089692
    14  H    0.119950
    15  H    0.137714
    16  H    0.137869
    17  H    0.123177
    18  H    0.139189
    19  H    0.121715
 Sum of Mulliken charges =   0.00000

 Dipole moment (field-independent basis, Debye):
    X=             -0.8229    Y=             -2.0612    Z=              0.1511  Tot=              2.2245
 Quadrupole moment (field-independent basis, Debye-Ang):
   XX=            -58.0710   YY=            -52.0065   ZZ=            -52.9766
   XY=             -2.8386   XZ=              3.5601   YZ=              0.4494

  Exact polarizability:  79.116  -1.734  83.386   0.905  -2.010  64.641
 Approx polarizability: 112.189   0.678 119.682  -3.961  -5.702 100.053

                      1                      2                      3
                      A                      A                      A
 Frequencies --     62.4481               141.2504               203.2755
 Red. masses --      4.0428                 2.5673                 2.6994
 Frc consts  --      0.0093                 0.0302                 0.0657
 IR Inten    --      0.8321                 7.7736                 0.3647

                      4                      5                      6
                      A                      A                      A
 Frequencies --    228.5732               241.0761               249.5746
 Red. masses --      2.0264                 2.1168                 1.4718
 Frc consts  --      0.0624                 0.0725                 0.0540
 IR Inten    --      0.3650                 1.3470                 0.5372

                      7                      8                      9
                      A                      A                      A
 Frequencies --    344.1054               457.5307               479.6786
 Red. masses --      3.7343                 3.6137                 3.2260
 Frc consts  --      0.2605                 0.4457                 0.4373
 IR Inten    --      7.4356                 7.6531                 4.6326

                     10                     11                     12
                      A                      A                      A
 Frequencies --    568.3394               585.8962               645.5587
 Red. masses --      4.3588                 2.6962                 6.5474
 Frc consts  --      0.8295                 0.5453                 1.6076
 IR Inten    --      1.9663                 4.8196                 2.7283

                     13                     14                     15
                      A                      A                      A
 Frequencies --    734.9182               786.7087               836.9753
 Red. masses --      3.0593                 1.0973                 1.9272
 Frc consts  --      0.9735                 0.4001                 0.7954
 IR Inten    --     11.2957                 0.2175                13.0778

                     16                     17                     18
                      A                      A                      A
 Frequencies --    863.0428               881.3142               948.9797
 Red. masses --      3.9990                 2.4140                 1.3586
 Frc consts  --      1.7550                 1.1047                 0.7208
 IR Inten    --      1.4746                 9.2042                 4.5153

                     19                     20                     21
                      A                      A                      A
 Frequencies --    974.7083              1026.3143              1029.2666
 Red. masses --      3.3636                 2.2004                 2.1261
 Frc consts  --      1.8828                 1.3655                 1.3271
 IR Inten    --      8.6022                 3.9039                 9.3620

                     22                     23                     24
                      A                      A                      A
 Frequencies --   1060.1313              1069.0293              1093.0307
 Red. masses --      1.4233                 1.4186                 1.8317
 Frc consts  --      0.9424                 0.9552                 1.2894
 IR Inten    --     13.5794                 7.4806                 6.1972

                     25                     26                     27
                      A                      A                      A
 Frequencies --   1098.1742              1121.6996              1136.8703
 Red. masses --      2.7286                 2.7902                 2.8619
 Frc consts  --      1.9388                 2.0684                 2.1794
 IR Inten    --     45.2895                52.2844                63.1942

                     28                     29                     30
                      A                      A                      A
 Frequencies --   1201.2842              1210.4385              1288.2306
 Red. masses --      1.2808                 1.1421                 3.1991
 Frc consts  --      1.0890                 0.9860                 3.1280
 IR Inten    --      0.9465                 3.9190                39.3979

                     31                     32                     33
                      A                      A                      A
 Frequencies --   1290.8904              1335.7768              1373.3964
 Red. masses --      1.5061                 1.5355                 1.2711
 Frc consts  --      1.4787                 1.6142                 1.4126
 IR Inten    --      4.1810                20.2752                 5.9120

                     34                     35                     36
                      A                      A                      A
 Frequencies --   1386.6217              1406.0572              1456.1332
 Red. masses --      2.1808                 1.2687                 1.0901
 Frc consts  --      2.4705                 1.4778                 1.3618
 IR Inten    --     55.1266                12.0211                 4.1036

                     37                     38                     39
                      A                      A                      A
 Frequencies --   1481.0752              1486.2825              1491.7496
 Red. masses --      1.0815                 1.2571                 1.0667
 Frc consts  --      1.3978                 1.6361                 1.3986
 IR Inten    --      2.9987                 7.8863                 3.7572

                     40                     41                     42
                      A                      A                      A
 Frequencies --   1496.1674              1837.3564              2976.4484
 Red. masses --      1.1307                12.3500                 1.0698
 Frc consts  --      1.4913                24.5643                 5.5843
 IR Inten    --      0.1086               173.9433                35.3400

                     43                     44                     45
                      A                      A                      A
 Frequencies --   3037.9857              3047.5517              3079.3653
 Red. masses --      1.0356                 1.0863                 1.0910
 Frc consts  --      5.6313                 5.9441                 6.0954
 IR Inten    --     11.3571                22.7012                17.1556

                     46                     47                     48
                      A                      A                      A
 Frequencies --   3108.4532              3121.1928              3131.3043
 Red. masses --      1.1010                 1.1018                 1.0497
 Frc consts  --      6.2677                 6.3243                 6.0640
 IR Inten    --     26.7459                20.3275                12.9668

                     49                     50                     51
                      A                      A                      A
 Frequencies --   3132.3968              3216.6438              3231.0022
 Red. masses --      1.0572                 1.1189                 1.1169
 Frc consts  --      6.1114                 6.8207                 6.8697
 IR Inten    --     11.3720                 0.0951                 5.5975

 - Thermochemistry -
 -------------------
 Temperature   298.150 Kelvin.  Pressure   1.00000 Atm.
 Atom     1 has atomic number  6 and mass  12.00000

 Molecular mass:   126.06808 amu.
 Principal axes and moments of inertia in atomic units:
                           1         2         3
     Eigenvalues --   841.79004 993.732951470.07030
           X            0.99778  -0.05491   0.03762
           Y            0.05439   0.99841   0.01446
           Z           -0.03836  -0.01238   0.99919
 This molecule is an asymmetric top.
 Rotational symmetry number  1.
 Warning -- assumption of classical behavior for rotation
           may cause significant error
 Rotational temperatures (Kelvin)      0.10289     0.08716     0.05892
 Rotational constants (GHZ):           2.14393     1.81612     1.22766
 Zero-point vibrational energy     416852.4 (Joules/Mol)
                                   99.63011 (Kcal/Mol)
 Warning -- explicit consideration of  11 degrees of freedom as
           vibrations may cause significant error
 Vibrational temperatures:     89.85   203.23   292.47   328.87   346.85
          (Kelvin)            359.08   495.09   658.28   690.15   817.71
                              842.97   928.81  1057.38  1131.90  1204.22
                             1241.72  1268.01  1365.37  1402.39  1476.64
                             1480.88  1525.29  1538.09  1572.63  1580.03
                             1613.87  1635.70  1728.38  1741.55  1853.47
                             1857.30  1921.88  1976.01  1995.04  2023.00
                             2095.05  2130.93  2138.43  2146.29  2152.65
                             2643.54  4282.44  4370.98  4384.74  4430.51
                             4472.37  4490.69  4505.24  4506.81  4628.03
                             4648.69

 Zero-point correction=                           0.158771 (Hartree/Particle)
 Thermal correction to Energy=                    0.167269
 Thermal correction to Enthalpy=                  0.168213
 Thermal correction to Gibbs Free Energy=         0.125565
 Sum of electronic and zero-point Energies=           -423.041910
 Sum of electronic and thermal Energies=              -423.033411
 Sum of electronic and thermal Enthalpies=            -423.032467
 Sum of electronic and thermal Free Energies=         -423.075115

                     E (Thermal)             CV                S
                      KCal/Mol        Cal/Mol-Kelvin    Cal/Mol-Kelvin
 Total                  104.963             32.285             89.760
 Electronic               0.000              0.000              0.000
 Translational            0.889              2.981             40.409
 Rotational               0.889              2.981             28.599
 Vibrational            103.185             26.323             20.753
 Vibration     1          0.597              1.972              4.378
 Vibration     2          0.615              1.912              2.787
 Vibration     3          0.639              1.835              2.103
 Vibration     4          0.651              1.797              1.890
 Vibration     5          0.658              1.777              1.795
 Vibration     6          0.662              1.763              1.734
 Vibration     7          0.723              1.587              1.193
 Vibration     8          0.816              1.344              0.773
 Vibration     9          0.836              1.295              0.711
 Vibration    10          0.924              1.100              0.507
 Vibration    11          0.943              1.062              0.475

 Normal termination of Gaussian 09 at Tue Jan 28 04:37:27 2020.
