 Gaussian 09, Revision D.01,
 Gaussian 09:  ES64L-G09RevD.01 24-Apr-2013

 -----------------------------
 # b3lyp 6-31G(2df,p) opt Freq
 -----------------------------

 -----
 titel
 -----
 Symbolic Z-matrix:
 Charge =  0 Multiplicity = 1

 SCF Done:  E(RB3LYP) =  -423.130133358     A.U. after   13 cycles
 Optimization completed.
    -- Stationary point found.
 Normal termination of Gaussian 09 at Mon Jan 27 18:39:02 2020.

 ----------------------------------------------------------------------
 #N Geom=AllCheck Guess=TCheck SCRF=Check GenChk RB3LYP/6-31G(2df,p) Fr
 eq
 ----------------------------------------------------------------------

 Structure from the checkpoint file:  "/scratch/puck/g09_62f99a8d-975b-4ba6-b18f-38dfd4a7bb51/Gau-54409.chk"
 -----
 titel
 -----
 Charge =  0 Multiplicity = 1

                         Standard orientation:
 ---------------------------------------------------------------------
 Center     Atomic      Atomic             Coordinates (Angstroms)
 Number     Number       Type             X           Y           Z
 ---------------------------------------------------------------------
      1          8           0        1.154384   -1.206810    1.233545
      2          6           0        0.797446   -0.526411    0.065399
      3          6           0        1.838367    0.517265   -0.474158
      4          6           0        0.875873    1.687202   -0.080736
      5          6           0       -0.219166    0.654268    0.163119
      6          6           0       -1.487896    0.566320    0.994285
      7          8           0       -2.128048   -0.248572   -0.025572
      8          6           0       -1.039355   -0.049066   -0.954309
      9          6           0       -0.061527   -1.250171   -1.010678
     10          1           0        1.765788   -1.914761    1.001139
     11          1           0        2.781132    0.497537    0.076170
     12          1           0        2.047307    0.439599   -1.544356
     13          1           0        1.196459    2.185193    0.839056
     14          1           0        0.677318    2.451656   -0.836993
     15          1           0       -1.411832    0.047468    1.956481
     16          1           0       -2.018780    1.518581    1.132562
     17          1           0       -1.364116    0.424802   -1.886258
     18          1           0       -0.535705   -2.165543   -0.648487
     19          1           0        0.429279   -1.437915   -1.970634
 ---------------------------------------------------------------------

 SCF Done:  E(RB3LYP) =  -423.130133358     A.U. after    1 cycles

 The electronic state is 1-A.
 Alpha  occ. eigenvalues --  -19.14287 -19.12839 -10.23657 -10.22981 -10.22338
 Alpha  occ. eigenvalues --  -10.18703 -10.18677 -10.18483 -10.17719  -1.03677
 Alpha  occ. eigenvalues --   -1.02332  -0.85493  -0.75205  -0.70080  -0.65324
 Alpha  occ. eigenvalues --   -0.61376  -0.59284  -0.53100  -0.50431  -0.47635
 Alpha  occ. eigenvalues --   -0.47295  -0.44390  -0.43155  -0.41445  -0.39369
 Alpha  occ. eigenvalues --   -0.38539  -0.37478  -0.34884  -0.33849  -0.30949
 Alpha  occ. eigenvalues --   -0.28932  -0.27279  -0.25581  -0.23566
 Alpha virt. eigenvalues --    0.07226   0.07387   0.09685   0.10514   0.11590
 Alpha virt. eigenvalues --    0.12855   0.14134   0.14937   0.16401   0.17096
 Alpha virt. eigenvalues --    0.17709   0.19356   0.20272   0.20704   0.22159

 Mulliken charges:
               1
     1  O   -0.483103
     2  C    0.357294
     3  C   -0.282246
     4  C   -0.343472
     5  C    0.283747
     6  C   -0.182194
     7  O   -0.294867
     8  C    0.084224
     9  C   -0.321862
    10  H    0.279317
    11  H    0.105590
    12  H    0.098265
    13  H    0.111863
    14  H    0.101187
    15  H    0.116177
    16  H    0.097225
    17  H    0.068838
    18  H    0.113255
    19  H    0.090764
 Sum of Mulliken charges =   0.00000

 Dipole moment (field-independent basis, Debye):
    X=              2.2190    Y=              0.2820    Z=             -0.8957  Tot=              2.4095
 Quadrupole moment (field-independent basis, Debye-Ang):
   XX=            -55.7219   YY=            -49.8743   ZZ=            -53.0122
   XY=             -4.1207   XZ=             -0.9437   YZ=              0.9540

  Exact polarizability:  77.259  -1.898  74.827  -1.982   2.331  72.194
 Approx polarizability: 107.651  -2.648 106.401  -1.121   2.169 108.867

                      1                      2                      3
                      A                      A                      A
 Frequencies --     95.3914               184.1146               200.1524
 Red. masses --      2.9231                 1.8116                 1.4966
 Frc consts  --      0.0157                 0.0362                 0.0353
 IR Inten    --      1.2311                36.7037                51.4743

                      4                      5                      6
                      A                      A                      A
 Frequencies --    211.7497               319.0718               384.8638
 Red. masses --      2.0052                 2.7431                 3.9023
 Frc consts  --      0.0530                 0.1645                 0.3406
 IR Inten    --     12.3019                 0.8729                12.7837

                      7                      8                      9
                      A                      A                      A
 Frequencies --    401.4265               468.9357               517.4788
 Red. masses --      2.3472                 2.7228                 3.4077
 Frc consts  --      0.2228                 0.3528                 0.5376
 IR Inten    --      5.1330                 2.7779                 4.5293

                     10                     11                     12
                      A                      A                      A
 Frequencies --    603.8421               668.2591               734.9590
 Red. masses --      3.9268                 2.5762                 2.0296
 Frc consts  --      0.8436                 0.6778                 0.6459
 IR Inten    --      4.0239                 1.8781                 1.5101

                     13                     14                     15
                      A                      A                      A
 Frequencies --    771.7442               829.1619               864.2791
 Red. masses --      1.6959                 2.4389                 2.3005
 Frc consts  --      0.5951                 0.9879                 1.0124
 IR Inten    --      0.6817                 7.6011                13.0648

                     16                     17                     18
                      A                      A                      A
 Frequencies --    886.4188               928.4893               937.9013
 Red. masses --      2.3401                 2.0931                 2.4280
 Frc consts  --      1.0834                 1.0632                 1.2584
 IR Inten    --      4.8302                 7.2398                 2.6038

                     19                     20                     21
                      A                      A                      A
 Frequencies --    967.2334               990.1574              1010.2468
 Red. masses --      2.1879                 5.0348                 2.3932
 Frc consts  --      1.2060                 2.9083                 1.4391
 IR Inten    --      8.2071                52.7672                28.1244

                     22                     23                     24
                      A                      A                      A
 Frequencies --   1032.8503              1098.4219              1118.5182
 Red. masses --      1.9148                 1.9224                 1.9830
 Frc consts  --      1.2035                 1.3666                 1.4617
 IR Inten    --     36.5554                21.6236                 2.1914

                     25                     26                     27
                      A                      A                      A
 Frequencies --   1163.6202              1167.2677              1184.3484
 Red. masses --      2.1627                 1.3977                 1.8763
 Frc consts  --      1.7253                 1.1220                 1.5506
 IR Inten    --      8.4832                 5.0521                 8.9678

                     28                     29                     30
                      A                      A                      A
 Frequencies --   1191.6477              1221.0623              1236.9459
 Red. masses --      1.8224                 1.4060                 1.7767
 Frc consts  --      1.5247                 1.2351                 1.6017
 IR Inten    --     13.7428                 4.1272                 7.8123

                     31                     32                     33
                      A                      A                      A
 Frequencies --   1241.2496              1252.6418              1270.4414
 Red. masses --      1.3466                 1.7098                 1.6302
 Frc consts  --      1.2224                 1.5807                 1.5502
 IR Inten    --     35.7033                18.7092                40.2470

                     34                     35                     36
                      A                      A                      A
 Frequencies --   1301.1295              1313.6103              1368.9492
 Red. masses --      1.8572                 1.5568                 2.0645
 Frc consts  --      1.8525                 1.5828                 2.2795
 IR Inten    --     37.1838                11.9887                 4.9506

                     37                     38                     39
                      A                      A                      A
 Frequencies --   1374.6642              1455.0035              1465.8275
 Red. masses --      2.0463                 1.1212                 1.0913
 Frc consts  --      2.2783                 1.3985                 1.3815
 IR Inten    --      0.4626                 2.3551                 2.1262

                     40                     41                     42
                      A                      A                      A
 Frequencies --   1488.6488              1513.8484              3000.9993
 Red. masses --      1.1414                 1.1010                 1.0613
 Frc consts  --      1.4902                 1.4867                 5.6317
 IR Inten    --      1.2492                 0.6156                80.4826

                     43                     44                     45
                      A                      A                      A
 Frequencies --   3044.6555              3050.8764              3056.6137
 Red. masses --      1.0670                 1.0581                 1.0784
 Frc consts  --      5.8276                 5.8027                 5.9362
 IR Inten    --     26.4304                48.0606                50.6773

                     46                     47                     48
                      A                      A                      A
 Frequencies --   3062.3708              3063.3203              3097.3242
 Red. masses --      1.0630                 1.1014                 1.1075
 Frc consts  --      5.8734                 6.0898                 6.2599
 IR Inten    --     42.6328                22.5524                11.3536

                     49                     50                     51
                      A                      A                      A
 Frequencies --   3116.6951              3125.1185              3794.4400
 Red. masses --      1.1064                 1.1081                 1.0658
 Frc consts  --      6.3322                 6.3763                 9.0415
 IR Inten    --     11.6557                33.3501                19.5900

 - Thermochemistry -
 -------------------
 Temperature   298.150 Kelvin.  Pressure   1.00000 Atm.
 Atom     1 has atomic number  8 and mass  15.99491

 Molecular mass:   126.06808 amu.
 Principal axes and moments of inertia in atomic units:
                           1         2         3
     Eigenvalues --   704.813291060.590201192.84455
           X            0.99962   0.00306  -0.02725
           Y           -0.00127   0.99786   0.06531
           Z            0.02739  -0.06525   0.99749
 This molecule is an asymmetric top.
 Rotational symmetry number  1.
 Warning -- assumption of classical behavior for rotation
           may cause significant error
 Rotational temperatures (Kelvin)      0.12289     0.08167     0.07261
 Rotational constants (GHZ):           2.56059     1.70164     1.51297
 Zero-point vibrational energy     417789.7 (Joules/Mol)
                                   99.85414 (Kcal/Mol)
 Warning -- explicit consideration of  10 degrees of freedom as
           vibrations may cause significant error
 Vibrational temperatures:    137.25   264.90   287.97   304.66   459.07
          (Kelvin)            553.73   577.56   674.69   744.54   868.79
                              961.47  1057.44  1110.37  1192.98  1243.50
                             1275.36  1335.89  1349.43  1391.63  1424.61
                             1453.52  1486.04  1580.38  1609.30  1674.19
                             1679.44  1704.01  1714.51  1756.83  1779.69
                             1785.88  1802.27  1827.88  1872.03  1889.99
                             1969.61  1977.83  2093.42  2109.00  2141.83
                             2178.09  4317.76  4380.57  4389.53  4397.78
                             4406.06  4407.43  4456.35  4484.22  4496.34
                             5459.35

 Zero-point correction=                           0.159128 (Hartree/Particle)
 Thermal correction to Energy=                    0.167036
 Thermal correction to Enthalpy=                  0.167980
 Thermal correction to Gibbs Free Energy=         0.126952
 Sum of electronic and zero-point Energies=           -422.971006
 Sum of electronic and thermal Energies=              -422.963097
 Sum of electronic and thermal Enthalpies=            -422.962153
 Sum of electronic and thermal Free Energies=         -423.003181

                     E (Thermal)             CV                S
                      KCal/Mol        Cal/Mol-Kelvin    Cal/Mol-Kelvin
 Total                  104.817             31.212             86.351
 Electronic               0.000              0.000              0.000
 Translational            0.889              2.981             40.409
 Rotational               0.889              2.981             28.280
 Vibrational            103.039             25.250             17.663
 Vibration     1          0.603              1.952              3.546
 Vibration     2          0.631              1.861              2.286
 Vibration     3          0.638              1.840              2.132
 Vibration     4          0.643              1.823              2.029
 Vibration     5          0.705              1.637              1.315
 Vibration     6          0.754              1.502              1.020
 Vibration     7          0.767              1.467              0.957
 Vibration     8          0.826              1.319              0.741
 Vibration     9          0.872              1.211              0.616
 Vibration    10          0.962              1.024              0.443

 Optimization completed.
    -- Stationary point found.
 Normal termination of Gaussian 09 at Mon Jan 27 19:24:18 2020.
