 Gaussian 09, Revision D.01,
 Gaussian 09:  ES64L-G09RevD.01 24-Apr-2013

 -----------------------------
 # b3lyp 6-31G(2df,p) opt Freq
 -----------------------------

 -----
 titel
 -----
 Symbolic Z-matrix:
 Charge =  0 Multiplicity = 1

 SCF Done:  E(RB3LYP) =  -423.223894954     A.U. after   14 cycles
 Optimization completed.
    -- Stationary point found.
 Normal termination of Gaussian 09 at Mon Jan 27 17:06:06 2020.

 ----------------------------------------------------------------------
 #N Geom=AllCheck Guess=TCheck SCRF=Check GenChk RB3LYP/6-31G(2df,p) Fr
 eq
 ----------------------------------------------------------------------

 Structure from the checkpoint file:  "/scratch/puck/g09_4e913f16-f601-4a4e-bc61-6a88a377e95e/Gau-179044.chk"
 -----
 titel
 -----
 Charge =  0 Multiplicity = 1

                         Standard orientation:
 ---------------------------------------------------------------------
 Center     Atomic      Atomic             Coordinates (Angstroms)
 Number     Number       Type             X           Y           Z
 ---------------------------------------------------------------------
      1          6           0       -2.685359   -0.025795    0.000003
      2          6           0       -1.187591   -0.111339   -0.000017
      3          6           0       -0.323119   -0.822232   -1.070269
      4          6           0        0.800021   -0.565187   -0.000001
      5          6           0        2.158648   -1.214253    0.000012
      6          6           0       -0.323152   -0.822347    1.070177
      7          6           0        0.746378    0.961734    0.000064
      8          8           0        1.612162    1.784963   -0.000027
      9          8           0       -0.596190    1.238169    0.000069
     10          1           0       -3.041490    0.505562    0.887475
     11          1           0       -3.041253    0.508521   -0.885785
     12          1           0       -3.119108   -1.029884   -0.001727
     13          1           0       -0.557329   -1.883926   -1.178349
     14          1           0       -0.232887   -0.338278   -2.045847
     15          1           0        2.730965   -0.912611    0.882725
     16          1           0        2.076598   -2.305194   -0.001478
     17          1           0        2.732098   -0.910221   -0.881138
     18          1           0       -0.557366   -1.884048    1.178178
     19          1           0       -0.232965   -0.338458    2.045794
 ---------------------------------------------------------------------

 SCF Done:  E(RB3LYP) =  -423.223894954     A.U. after    1 cycles

 The electronic state is 1-A.
 Alpha  occ. eigenvalues --  -19.16994 -19.12278 -10.29535 -10.26209 -10.21936
 Alpha  occ. eigenvalues --  -10.20337 -10.20336 -10.19220 -10.18528  -1.09685
 Alpha  occ. eigenvalues --   -1.02100  -0.86444  -0.77145  -0.72102  -0.68666
 Alpha  occ. eigenvalues --   -0.63517  -0.58817  -0.52466  -0.50455  -0.46951
 Alpha  occ. eigenvalues --   -0.46834  -0.44559  -0.42966  -0.41830  -0.41050
 Alpha  occ. eigenvalues --   -0.40206  -0.39019  -0.38259  -0.35974  -0.35077
 Alpha  occ. eigenvalues --   -0.32586  -0.32521  -0.28188  -0.25755
 Alpha virt. eigenvalues --    0.01761   0.08149   0.09063   0.09640   0.12769
 Alpha virt. eigenvalues --    0.13617   0.14663   0.15499   0.15640   0.16092
 Alpha virt. eigenvalues --    0.16379   0.18312   0.18936   0.20422   0.20445

 Mulliken charges:
               1
     1  C   -0.490977
     2  C    0.425147
     3  C   -0.303598
     4  C    0.132874
     5  C   -0.496271
     6  C   -0.303609
     7  C    0.448895
     8  O   -0.362465
     9  O   -0.279888
    10  H    0.137231
    11  H    0.137274
    12  H    0.123788
    13  H    0.107452
    14  H    0.114998
    15  H    0.135723
    16  H    0.115205
    17  H    0.135771
    18  H    0.107458
    19  H    0.114992
 Sum of Mulliken charges =   0.00000

 Dipole moment (field-independent basis, Debye):
    X=             -1.9932    Y=             -3.8226    Z=              0.0000  Tot=              4.3110
 Quadrupole moment (field-independent basis, Debye-Ang):
   XX=            -53.6521   YY=            -58.5820   ZZ=            -51.0327
   XY=             -3.3466   XZ=              0.0004   YZ=             -0.0001

  Exact polarizability:  87.520   2.980  73.198   0.000   0.000  65.760
 Approx polarizability: 119.358  10.585 113.268   0.000   0.001  99.838

                      1                      2                      3
                      A                      A                      A
 Frequencies --    154.4297               181.3868               206.6164
 Red. masses --      1.4674                 1.4862                 1.3680
 Frc consts  --      0.0206                 0.0288                 0.0344
 IR Inten    --      0.5198                 0.0816                 0.0064

                      4                      5                      6
                      A                      A                      A
 Frequencies --    225.3699               226.7906               275.8353
 Red. masses --      2.2372                 2.6549                 3.2846
 Frc consts  --      0.0670                 0.0805                 0.1472
 IR Inten    --      0.0904                 2.0402                 2.9117

                      7                      8                      9
                      A                      A                      A
 Frequencies --    358.6555               489.7583               493.1653
 Red. masses --      2.5094                 2.8177                 2.1919
 Frc consts  --      0.1902                 0.3982                 0.3141
 IR Inten    --      0.8061                 1.5737                 1.5402

                     10                     11                     12
                      A                      A                      A
 Frequencies --    527.9494               584.1098               605.9981
 Red. masses --      2.9643                 4.1909                 4.7943
 Frc consts  --      0.4868                 0.8425                 1.0373
 IR Inten    --      1.6861                 4.1986                 5.6177

                     13                     14                     15
                      A                      A                      A
 Frequencies --    710.6547               756.5575               780.2152
 Red. masses --      3.0791                 4.7985                 3.9642
 Frc consts  --      0.9162                 1.6182                 1.4218
 IR Inten    --      0.2608                 3.1579                 1.1888

                     16                     17                     18
                      A                      A                      A
 Frequencies --    843.2623               876.1970               893.6876
 Red. masses --      2.6828                 2.1051                 6.7222
 Frc consts  --      1.1240                 0.9522                 3.1632
 IR Inten    --      5.3883                 0.2054                82.0490

                     19                     20                     21
                      A                      A                      A
 Frequencies --    922.7966               981.0582              1016.2581
 Red. masses --      2.4320                 1.5382                 1.3538
 Frc consts  --      1.2202                 0.8723                 0.8238
 IR Inten    --      0.7534                 0.0088                 4.8338

                     22                     23                     24
                      A                      A                      A
 Frequencies --   1030.5307              1037.9388              1087.0201
 Red. masses --      1.6241                 1.0547                 2.8814
 Frc consts  --      1.0162                 0.6695                 2.0060
 IR Inten    --     18.9230                 0.0836               102.9091

                     25                     26                     27
                      A                      A                      A
 Frequencies --   1111.0059              1148.7679              1192.4316
 Red. masses --      1.8969                 1.6987                 1.4626
 Frc consts  --      1.3795                 1.3208                 1.2253
 IR Inten    --      0.6926                18.4783                 0.0825

                     28                     29                     30
                      A                      A                      A
 Frequencies --   1210.9835              1216.2299              1250.4098
 Red. masses --      2.5070                 2.6269                 2.2929
 Frc consts  --      2.1661                 2.2895                 2.1122
 IR Inten    --      6.9198                11.6281                34.9583

                     31                     32                     33
                      A                      A                      A
 Frequencies --   1333.3948              1359.8362              1416.5896
 Red. masses --      2.6680                 2.6683                 1.3440
 Frc consts  --      2.7948                 2.9071                 1.5890
 IR Inten    --     28.9600                15.1849                10.7143

                     34                     35                     36
                      A                      A                      A
 Frequencies --   1423.5141              1476.6871              1480.8253
 Red. masses --      1.6207                 1.1014                 1.0472
 Frc consts  --      1.9350                 1.4150                 1.3530
 IR Inten    --     12.6402                 1.4725                 2.6935

                     37                     38                     39
                      A                      A                      A
 Frequencies --   1486.9017              1488.8129              1491.1235
 Red. masses --      1.0445                 1.0499                 1.0497
 Frc consts  --      1.3606                 1.3711                 1.3752
 IR Inten    --      5.6817                 7.3130                 1.9333

                     40                     41                     42
                      A                      A                      A
 Frequencies --   1517.4726              1903.1584              3039.8167
 Red. masses --      1.2028                12.8355                 1.0353
 Frc consts  --      1.6319                27.3913                 5.6363
 IR Inten    --      5.2860               374.2031                20.0589

                     43                     44                     45
                      A                      A                      A
 Frequencies --   3043.8620              3060.0907              3066.6274
 Red. masses --      1.0352                 1.0552                 1.0571
 Frc consts  --      5.6508                 5.8218                 5.8572
 IR Inten    --     14.1758                33.2805                10.4382

                     46                     47                     48
                      A                      A                      A
 Frequencies --   3110.2741              3112.0248              3118.0048
 Red. masses --      1.1008                 1.1022                 1.1019
 Frc consts  --      6.2739                 6.2891                 6.3115
 IR Inten    --     11.4442                13.4436                 9.8884

                     49                     50                     51
                      A                      A                      A
 Frequencies --   3119.9431              3127.0772              3131.6623
 Red. masses --      1.1018                 1.1112                 1.1098
 Frc consts  --      6.3191                 6.4019                 6.4125
 IR Inten    --      6.9758                12.7331                33.0000

 - Thermochemistry -
 -------------------
 Temperature   298.150 Kelvin.  Pressure   1.00000 Atm.
 Atom     1 has atomic number  6 and mass  12.00000

 Molecular mass:   126.06808 amu.
 Principal axes and moments of inertia in atomic units:
                           1         2         3
     Eigenvalues --   647.850551122.201791470.96871
           X            0.99857  -0.05349   0.00000
           Y            0.05349   0.99857   0.00000
           Z            0.00000   0.00000   1.00000
 This molecule is an asymmetric top.
 Rotational symmetry number  1.
 Warning -- assumption of classical behavior for rotation
           may cause significant error
 Rotational temperatures (Kelvin)      0.13369     0.07718     0.05888
 Rotational constants (GHZ):           2.78574     1.60821     1.22691
 Zero-point vibrational energy     416921.1 (Joules/Mol)
                                   99.64654 (Kcal/Mol)
 Warning -- explicit consideration of  12 degrees of freedom as
           vibrations may cause significant error
 Vibrational temperatures:    222.19   260.97   297.27   324.26   326.30
          (Kelvin)            396.87   516.02   704.65   709.55   759.60
                              840.40   871.90  1022.47  1088.52  1122.55
                             1213.26  1260.65  1285.82  1327.70  1411.52
                             1462.17  1482.70  1493.36  1563.98  1598.49
                             1652.82  1715.64  1742.33  1749.88  1799.06
                             1918.46  1956.50  2038.15  2048.12  2124.62
                             2130.57  2139.32  2142.07  2145.39  2183.30
                             2738.22  4373.61  4379.43  4402.78  4412.19
                             4474.99  4477.50  4486.11  4488.90  4499.16
                             4505.76

 Zero-point correction=                           0.158797 (Hartree/Particle)
 Thermal correction to Energy=                    0.167093
 Thermal correction to Enthalpy=                  0.168037
 Thermal correction to Gibbs Free Energy=         0.126488
 Sum of electronic and zero-point Energies=           -423.065098
 Sum of electronic and thermal Energies=              -423.056802
 Sum of electronic and thermal Enthalpies=            -423.055858
 Sum of electronic and thermal Free Energies=         -423.097407

                     E (Thermal)             CV                S
                      KCal/Mol        Cal/Mol-Kelvin    Cal/Mol-Kelvin
 Total                  104.853             32.511             87.448
 Electronic               0.000              0.000              0.000
 Translational            0.889              2.981             40.409
 Rotational               0.889              2.981             28.460
 Vibrational            103.075             26.549             18.579
 Vibration     1          0.620              1.898              2.617
 Vibration     2          0.630              1.865              2.314
 Vibration     3          0.641              1.830              2.073
 Vibration     4          0.650              1.802              1.916
 Vibration     5          0.650              1.800              1.904
 Vibration     6          0.677              1.718              1.559
 Vibration     7          0.733              1.557              1.128
 Vibration     8          0.846              1.273              0.684
 Vibration     9          0.849              1.265              0.675
 Vibration    10          0.883              1.188              0.592
 Vibration    11          0.941              1.066              0.478
 Vibration    12          0.965              1.019              0.439

 Normal termination of Gaussian 09 at Mon Jan 27 17:52:37 2020.
