 Gaussian 09, Revision D.01,
 Gaussian 09:  ES64L-G09RevD.01 24-Apr-2013

 -----------------------------
 # b3lyp 6-31G(2df,p) opt Freq
 -----------------------------

 -----
 titel
 -----
 Symbolic Z-matrix:
 Charge =  0 Multiplicity = 1

 SCF Done:  E(RB3LYP) =  -423.097432038     A.U. after   13 cycles
 Optimization completed.
    -- Stationary point found.
 Normal termination of Gaussian 09 at Tue Jan 28 09:09:17 2020.

 ----------------------------------------------------------------------
 #N Geom=AllCheck Guess=TCheck SCRF=Check GenChk RB3LYP/6-31G(2df,p) Fr
 eq
 ----------------------------------------------------------------------

 Structure from the checkpoint file:  "/scratch/puck/g09_f76cbf6e-188a-46b6-a9fd-a3198e295f3a/Gau-20282.chk"
 -----
 titel
 -----
 Charge =  0 Multiplicity = 1

                         Standard orientation:
 ---------------------------------------------------------------------
 Center     Atomic      Atomic             Coordinates (Angstroms)
 Number     Number       Type             X           Y           Z
 ---------------------------------------------------------------------
      1          6           0        1.057242    2.228534   -0.267200
      2          6           0       -0.022021    1.175375   -0.404942
      3          6           0       -0.759222    0.758623    0.846595
      4          6           0       -1.929138   -0.224730    0.533199
      5          8           0       -2.018570   -0.427472   -0.884751
      6          6           0       -1.020197   -1.142465   -0.143865
      7          6           0        0.204624   -0.211656    0.164005
      8          6           0        1.501502   -0.792939    0.635425
      9          8           0        2.158034   -1.535498   -0.387636
     10          1           0        1.804621    2.140956   -1.063851
     11          1           0        0.619141    3.229688   -0.334713
     12          1           0        1.582011    2.164396    0.690850
     13          1           0       -0.604397    1.240136   -1.317203
     14          1           0       -0.632204    1.264769    1.795368
     15          1           0       -2.824341   -0.389828    1.120192
     16          1           0       -0.999073   -2.221781   -0.233412
     17          1           0        2.151959   -0.005561    1.044255
     18          1           0        1.326801   -1.514140    1.442672
     19          1           0        2.263027   -0.949321   -1.144363
 ---------------------------------------------------------------------

 SCF Done:  E(RB3LYP) =  -423.097432038     A.U. after    1 cycles

 The electronic state is 1-A.
 Alpha  occ. eigenvalues --  -19.15439 -19.13448 -10.24037 -10.23710 -10.23208
 Alpha  occ. eigenvalues --  -10.19858 -10.19812 -10.19634 -10.18643  -1.07977
 Alpha  occ. eigenvalues --   -1.01485  -0.87770  -0.74021  -0.70551  -0.66063
 Alpha  occ. eigenvalues --   -0.63799  -0.55571  -0.54095  -0.53265  -0.49441
 Alpha  occ. eigenvalues --   -0.47704  -0.44685  -0.43693  -0.41566  -0.39642
 Alpha  occ. eigenvalues --   -0.39261  -0.37942  -0.35447  -0.34312  -0.33653
 Alpha  occ. eigenvalues --   -0.28372  -0.27229  -0.26538  -0.23021
 Alpha virt. eigenvalues --    0.05477   0.07362   0.10250   0.10549   0.10766
 Alpha virt. eigenvalues --    0.13831   0.13999   0.14233   0.16174   0.16915
 Alpha virt. eigenvalues --    0.17607   0.18360   0.19670   0.20045   0.21062

 Mulliken charges:
               1
     1  C   -0.436497
     2  C   -0.060216
     3  C   -0.186485
     4  C    0.012841
     5  O   -0.240763
     6  C   -0.038140
     7  C    0.264802
     8  C   -0.175047
     9  O   -0.415505
    10  H    0.116466
    11  H    0.127332
    12  H    0.119257
    13  H    0.113317
    14  H    0.092282
    15  H    0.109802
    16  H    0.113313
    17  H    0.091437
    18  H    0.109101
    19  H    0.282703
 Sum of Mulliken charges =   0.00000

 Dipole moment (field-independent basis, Debye):
    X=              0.3460    Y=              1.2839    Z=              1.2520  Tot=              1.8263
 Quadrupole moment (field-independent basis, Debye-Ang):
   XX=            -56.3211   YY=            -54.1986   ZZ=            -51.3439
   XY=              4.2224   XZ=             -4.7499   YZ=             -0.9201

  Exact polarizability:  80.053   2.182  78.612  -3.715   0.078  65.659
 Approx polarizability: 112.224  -3.917 112.610  -4.575   3.005 107.650

                      1                      2                      3
                      A                      A                      A
 Frequencies --     82.2014               137.2452               210.4378
 Red. masses --      3.7350                 3.5806                 1.2978
 Frc consts  --      0.0149                 0.0397                 0.0339
 IR Inten    --      2.1513                 1.8901                 0.9141

                      4                      5                      6
                      A                      A                      A
 Frequencies --    247.2014               259.4053               282.1777
 Red. masses --      2.5879                 1.9566                 2.4378
 Frc consts  --      0.0932                 0.0776                 0.1144
 IR Inten    --      2.6042                 3.0805                23.7849

                      7                      8                      9
                      A                      A                      A
 Frequencies --    326.8625               385.9168               439.9486
 Red. masses --      1.3296                 3.0292                 3.2927
 Frc consts  --      0.0837                 0.2658                 0.3755
 IR Inten    --     63.6084                18.1033                14.5391

                     10                     11                     12
                      A                      A                      A
 Frequencies --    454.4155               613.4830               688.2913
 Red. masses --      3.8379                 5.0928                 3.4419
 Frc consts  --      0.4669                 1.1293                 0.9607
 IR Inten    --      1.9396                15.4406                 2.2238

                     13                     14                     15
                      A                      A                      A
 Frequencies --    758.1165               792.0408               826.6563
 Red. masses --      3.4653                 3.8345                 4.5502
 Frc consts  --      1.1734                 1.4173                 1.8320
 IR Inten    --      1.5368                 1.4847                 3.0933

                     16                     17                     18
                      A                      A                      A
 Frequencies --    847.0487               869.1820               914.9323
 Red. masses --      1.6029                 2.1737                 2.1307
 Frc consts  --      0.6776                 0.9675                 1.0509
 IR Inten    --     23.6304                 8.9467                 7.4259

                     19                     20                     21
                      A                      A                      A
 Frequencies --    930.2650               982.0930               990.3216
 Red. masses --      1.5299                 2.7186                 1.6839
 Frc consts  --      0.7801                 1.5449                 0.9730
 IR Inten    --      6.6001                27.2892                 3.0921

                     22                     23                     24
                      A                      A                      A
 Frequencies --   1030.4166              1038.9482              1048.1080
 Red. masses --      1.4903                 2.3499                 1.8199
 Frc consts  --      0.9323                 1.4945                 1.1779
 IR Inten    --     16.3030                56.5645                26.3005

                     25                     26                     27
                      A                      A                      A
 Frequencies --   1081.6702              1113.2390              1149.5880
 Red. masses --      2.2264                 2.5461                 1.5649
 Frc consts  --      1.5348                 1.8591                 1.2185
 IR Inten    --      7.3157                19.0958                 2.8163

                     28                     29                     30
                      A                      A                      A
 Frequencies --   1165.1942              1196.4577              1229.1778
 Red. masses --      1.4158                 1.4187                 1.2955
 Frc consts  --      1.1325                 1.1965                 1.1532
 IR Inten    --     11.3726                 6.5368                10.2811

                     31                     32                     33
                      A                      A                      A
 Frequencies --   1242.5999              1265.6835              1336.9709
 Red. masses --      1.4089                 1.5444                 2.1054
 Frc consts  --      1.2817                 1.4577                 2.2174
 IR Inten    --     11.9754                 8.4190                 0.6203

                     34                     35                     36
                      A                      A                      A
 Frequencies --   1363.7928              1371.5759              1417.0363
 Red. masses --      1.3496                 3.2620                 1.2703
 Frc consts  --      1.4790                 3.6156                 1.5029
 IR Inten    --      3.0383                 9.1895                 6.6894

                     37                     38                     39
                      A                      A                      A
 Frequencies --   1423.3951              1437.3504              1493.3431
 Red. masses --      1.2509                 3.3457                 1.0553
 Frc consts  --      1.4932                 4.0725                 1.3866
 IR Inten    --     61.1990                20.8119                 3.3559

                     40                     41                     42
                      A                      A                      A
 Frequencies --   1501.9082              1512.0364              2996.5054
 Red. masses --      1.0889                 1.0800                 1.0660
 Frc consts  --      1.4472                 1.4547                 5.6396
 IR Inten    --      3.2343                 3.4244                44.5271

                     43                     44                     45
                      A                      A                      A
 Frequencies --   3031.3415              3053.9611              3092.0027
 Red. masses --      1.0363                 1.0956                 1.1003
 Frc consts  --      5.6105                 6.0203                 6.1978
 IR Inten    --     34.3752                36.0905                20.9066

                     46                     47                     48
                      A                      A                      A
 Frequencies --   3102.7381              3175.4595              3184.5726
 Red. masses --      1.1003                 1.0872                 1.0871
 Frc consts  --      6.2407                 6.4590                 6.4957
 IR Inten    --     19.7816                 8.7085                 8.5882

                     49                     50                     51
                      A                      A                      A
 Frequencies --   3194.0208              3202.3830              3813.1358
 Red. masses --      1.0917                 1.1026                 1.0660
 Frc consts  --      6.5619                 6.6623                 9.1325
 IR Inten    --     14.0746                16.8024                13.8542

 - Thermochemistry -
 -------------------
 Temperature   298.150 Kelvin.  Pressure   1.00000 Atm.
 Atom     1 has atomic number  6 and mass  12.00000

 Molecular mass:   126.06808 amu.
 Principal axes and moments of inertia in atomic units:
                           1         2         3
     Eigenvalues --   808.487361143.953451612.15412
           X            0.99716   0.07428  -0.01226
           Y           -0.07448   0.99708  -0.01698
           Z            0.01096   0.01784   0.99978
 This molecule is an asymmetric top.
 Rotational symmetry number  1.
 Warning -- assumption of classical behavior for rotation
           may cause significant error
 Rotational temperatures (Kelvin)      0.10713     0.07571     0.05373
 Rotational constants (GHZ):           2.23224     1.57764     1.11946
 Zero-point vibrational energy     414523.1 (Joules/Mol)
                                   99.07340 (Kcal/Mol)
 Warning -- explicit consideration of  11 degrees of freedom as
           vibrations may cause significant error
 Vibrational temperatures:    118.27   197.46   302.77   355.67   373.23
          (Kelvin)            405.99   470.28   555.25   632.99   653.80
                              882.66   990.30  1090.76  1139.57  1189.37
                             1218.71  1250.56  1316.38  1338.44  1413.01
                             1424.85  1482.54  1494.81  1507.99  1556.28
                             1601.70  1654.00  1676.45  1721.43  1768.51
                             1787.82  1821.03  1923.60  1962.19  1973.39
                             2038.80  2047.95  2068.02  2148.58  2160.91
                             2175.48  4311.30  4361.42  4393.96  4448.70
                             4464.14  4568.77  4581.88  4595.48  4607.51
                             5486.25

 Zero-point correction=                           0.157884 (Hartree/Particle)
 Thermal correction to Energy=                    0.166468
 Thermal correction to Enthalpy=                  0.167412
 Thermal correction to Gibbs Free Energy=         0.124798
 Sum of electronic and zero-point Energies=           -422.939549
 Sum of electronic and thermal Energies=              -422.930964
 Sum of electronic and thermal Enthalpies=            -422.930020
 Sum of electronic and thermal Free Energies=         -422.972634

                     E (Thermal)             CV                S
                      KCal/Mol        Cal/Mol-Kelvin    Cal/Mol-Kelvin
 Total                  104.460             33.098             89.688
 Electronic               0.000              0.000              0.000
 Translational            0.889              2.981             40.409
 Rotational               0.889              2.981             28.791
 Vibrational            102.683             27.136             20.489
 Vibration     1          0.600              1.961              3.838
 Vibration     2          0.614              1.916              2.842
 Vibration     3          0.643              1.825              2.040
 Vibration     4          0.661              1.767              1.750
 Vibration     5          0.668              1.747              1.666
 Vibration     6          0.681              1.707              1.520
 Vibration     7          0.711              1.622              1.276
 Vibration     8          0.755              1.500              1.016
 Vibration     9          0.800              1.383              0.827
 Vibration    10          0.813              1.351              0.783
 Vibration    11          0.973              1.003              0.427

 Optimization completed.
    -- Stationary point found.
 Normal termination of Gaussian 09 at Tue Jan 28 09:52:13 2020.
