 Gaussian 09, Revision D.01,
 Gaussian 09:  ES64L-G09RevD.01 24-Apr-2013

 -----------------------------
 # b3lyp 6-31G(2df,p) opt Freq
 -----------------------------

 -----
 titel
 -----
 Symbolic Z-matrix:
 Charge =  0 Multiplicity = 1

 SCF Done:  E(RB3LYP) =  -423.207254114     A.U. after   14 cycles
 Optimization completed.
    -- Stationary point found.
 Normal termination of Gaussian 09 at Tue Jan 28 08:14:08 2020.

 ----------------------------------------------------------------------
 #N Geom=AllCheck Guess=TCheck SCRF=Check GenChk RB3LYP/6-31G(2df,p) Fr
 eq
 ----------------------------------------------------------------------

 Structure from the checkpoint file:  "/scratch/puck/g09_ecc8db5a-9e33-4b79-a1ac-8afbd3120284/Gau-25824.chk"
 -----
 titel
 -----
 Charge =  0 Multiplicity = 1

                         Standard orientation:
 ---------------------------------------------------------------------
 Center     Atomic      Atomic             Coordinates (Angstroms)
 Number     Number       Type             X           Y           Z
 ---------------------------------------------------------------------
      1          8           0        0.986046   -1.653924   -0.972758
      2          6           0        0.036881   -1.078238   -0.078295
      3          6           0        0.817740   -0.603403    1.145978
      4          6           0        1.838587    0.480246    0.773208
      5          6           0        1.245459    1.531841   -0.122359
      6          6           0        0.112589    1.366634   -0.803486
      7          6           0       -0.710055    0.096241   -0.741687
      8          6           0       -2.041422    0.412430   -0.072768
      9          8           0       -2.475064   -0.138727    0.906729
     10          1           0        0.509992   -2.032201   -1.718291
     11          1           0       -0.702146   -1.826674    0.235315
     12          1           0        0.098026   -0.214066    1.872986
     13          1           0        1.320089   -1.460574    1.603601
     14          1           0        2.241717    0.946589    1.679964
     15          1           0        2.696273    0.022862    0.262155
     16          1           0        1.797945    2.462307   -0.231282
     17          1           0       -0.266280    2.163263   -1.439174
     18          1           0       -0.971067   -0.189086   -1.775888
     19          1           0       -2.611084    1.234282   -0.564700
 ---------------------------------------------------------------------

 SCF Done:  E(RB3LYP) =  -423.207254114     A.U. after    1 cycles

 The electronic state is 1-A.
 Alpha  occ. eigenvalues --  -19.14515 -19.13618 -10.27582 -10.23238 -10.20287
 Alpha  occ. eigenvalues --  -10.18887 -10.18712 -10.18294 -10.17682  -1.05203
 Alpha  occ. eigenvalues --   -1.01866  -0.83475  -0.76306  -0.74024  -0.65294
 Alpha  occ. eigenvalues --   -0.60459  -0.57178  -0.53834  -0.50393  -0.47951
 Alpha  occ. eigenvalues --   -0.47016  -0.44786  -0.43423  -0.42078  -0.40522
 Alpha  occ. eigenvalues --   -0.40045  -0.37441  -0.35929  -0.35083  -0.32279
 Alpha  occ. eigenvalues --   -0.31323  -0.27887  -0.26323  -0.23796
 Alpha virt. eigenvalues --   -0.02674   0.02631   0.06825   0.09819   0.11674
 Alpha virt. eigenvalues --    0.13899   0.14326   0.14822   0.15913   0.16737
 Alpha virt. eigenvalues --    0.18424   0.19004   0.21443   0.22198   0.23224

 Mulliken charges:
               1
     1  O   -0.446137
     2  C    0.112875
     3  C   -0.221096
     4  C   -0.244460
     5  C   -0.033989
     6  C   -0.079239
     7  C   -0.156872
     8  C    0.152757
     9  O   -0.245944
    10  H    0.279633
    11  H    0.081272
    12  H    0.120515
    13  H    0.102816
    14  H    0.101924
    15  H    0.129282
    16  H    0.089992
    17  H    0.089710
    18  H    0.084858
    19  H    0.082104
 Sum of Mulliken charges =   0.00000

 Dipole moment (field-independent basis, Debye):
    X=              0.3174    Y=              0.6687    Z=             -1.9246  Tot=              2.0620
 Quadrupole moment (field-independent basis, Debye-Ang):
   XX=            -57.9359   YY=            -51.0015   ZZ=            -51.3783
   XY=              1.0693   XZ=              6.9827   YZ=              1.5343

  Exact polarizability:  86.983   2.394  73.397   7.314  -4.351  70.783
 Approx polarizability: 128.584   5.704 104.120   9.415  -6.793 113.640

                      1                      2                      3
                      A                      A                      A
 Frequencies --     66.9272               120.8824               178.4053
 Red. masses --      5.1298                 2.8547                 4.3264
 Frc consts  --      0.0135                 0.0246                 0.0811
 IR Inten    --      3.3430                 2.0495                 4.5671

                      4                      5                      6
                      A                      A                      A
 Frequencies --    202.4064               253.3412               269.3031
 Red. masses --      3.1643                 2.3394                 1.1376
 Frc consts  --      0.0764                 0.0885                 0.0486
 IR Inten    --      4.7559                 7.2510                95.7364

                      7                      8                      9
                      A                      A                      A
 Frequencies --    363.8767               389.0596               455.7084
 Red. masses --      3.7424                 2.4437                 2.7861
 Frc consts  --      0.2920                 0.2179                 0.3409
 IR Inten    --      2.9438                 3.0235                 1.0856

                     10                     11                     12
                      A                      A                      A
 Frequencies --    503.5550               595.5726               668.3634
 Red. masses --      4.0672                 5.2873                 2.6131
 Frc consts  --      0.6076                 1.1050                 0.6878
 IR Inten    --      4.1005                 8.1886                 7.8361

                     13                     14                     15
                      A                      A                      A
 Frequencies --    713.7941               751.8697               805.2663
 Red. masses --      1.6985                 2.2406                 2.1794
 Frc consts  --      0.5099                 0.7463                 0.8326
 IR Inten    --     37.0854                14.8038                20.3641

                     16                     17                     18
                      A                      A                      A
 Frequencies --    859.3403               913.3162               932.6608
 Red. masses --      2.6937                 2.3023                 2.3515
 Frc consts  --      1.1720                 1.1315                 1.2051
 IR Inten    --      8.1153                26.0353                 4.9467

                     19                     20                     21
                      A                      A                      A
 Frequencies --    978.0997              1004.6613              1014.5528
 Red. masses --      2.1201                 1.3019                 2.3207
 Frc consts  --      1.1950                 0.7742                 1.4074
 IR Inten    --     24.3500                 2.4013                 1.5871

                     22                     23                     24
                      A                      A                      A
 Frequencies --   1045.9469              1069.0786              1089.5920
 Red. masses --      2.3584                 1.9556                 1.9269
 Frc consts  --      1.5202                 1.3169                 1.3478
 IR Inten    --      6.0421                 5.0239                14.1744

                     25                     26                     27
                      A                      A                      A
 Frequencies --   1117.9200              1159.1650              1188.6372
 Red. masses --      2.2081                 1.0824                 1.1662
 Frc consts  --      1.6259                 0.8569                 0.9708
 IR Inten    --     23.7497                 1.4498                10.5828

                     28                     29                     30
                      A                      A                      A
 Frequencies --   1246.0230              1254.0366              1275.5974
 Red. masses --      1.2763                 1.3644                 1.1898
 Frc consts  --      1.1675                 1.2642                 1.1406
 IR Inten    --     19.6153                 9.5950                18.7985

                     31                     32                     33
                      A                      A                      A
 Frequencies --   1318.4857              1361.6504              1370.6142
 Red. masses --      1.6948                 1.3686                 1.5922
 Frc consts  --      1.7359                 1.4951                 1.7623
 IR Inten    --     33.1817                 8.4060                 0.0351

                     34                     35                     36
                      A                      A                      A
 Frequencies --   1375.8815              1415.4580              1431.4083
 Red. masses --      1.3971                 1.3820                 1.4934
 Frc consts  --      1.5583                 1.6314                 1.8028
 IR Inten    --      9.4279                 7.2879                 7.7391

                     37                     38                     39
                      A                      A                      A
 Frequencies --   1435.9294              1468.1879              1485.8923
 Red. masses --      1.3273                 1.0885                 1.1070
 Frc consts  --      1.6125                 1.3825                 1.4400
 IR Inten    --      1.0827                 4.8449                 7.2017

                     40                     41                     42
                      A                      A                      A
 Frequencies --   1719.9234              1822.4291              2864.9950
 Red. masses --      6.6029                10.3583                 1.0828
 Frc consts  --     11.5081                20.2694                 5.2366
 IR Inten    --      3.9791               150.0331               131.9674

                     43                     44                     45
                      A                      A                      A
 Frequencies --   2955.5609              3020.4409              3023.4321
 Red. masses --      1.0805                 1.0836                 1.0617
 Frc consts  --      5.5611                 5.8243                 5.7179
 IR Inten    --     29.2118                31.2296                20.2731

                     46                     47                     48
                      A                      A                      A
 Frequencies --   3050.0881              3061.4021              3101.8234
 Red. masses --      1.0856                 1.0731                 1.1044
 Frc consts  --      5.9505                 5.9254                 6.2607
 IR Inten    --     12.1968                35.6716                20.6983

                     49                     50                     51
                      A                      A                      A
 Frequencies --   3142.2162              3165.6061              3821.6845
 Red. masses --      1.0829                 1.0969                 1.0663
 Frc consts  --      6.2996                 6.4764                 9.1760
 IR Inten    --      4.7686                34.5316                16.5245

 - Thermochemistry -
 -------------------
 Temperature   298.150 Kelvin.  Pressure   1.00000 Atm.
 Atom     1 has atomic number  8 and mass  15.99491

 Molecular mass:   126.06808 amu.
 Principal axes and moments of inertia in atomic units:
                           1         2         3
     Eigenvalues --   800.044091237.172511443.75044
           X            0.99873   0.01325   0.04865
           Y           -0.01154   0.99931  -0.03526
           Z           -0.04908   0.03465   0.99819
 This molecule is an asymmetric top.
 Rotational symmetry number  1.
 Warning -- assumption of classical behavior for rotation
           may cause significant error
 Rotational temperatures (Kelvin)      0.10826     0.07001     0.05999
 Rotational constants (GHZ):           2.25580     1.45876     1.25004
 Zero-point vibrational energy     418095.3 (Joules/Mol)
                                   99.92716 (Kcal/Mol)
 Warning -- explicit consideration of  11 degrees of freedom as
           vibrations may cause significant error
 Vibrational temperatures:     96.29   173.92   256.69   291.22   364.50
          (Kelvin)            387.47   523.54   559.77   655.66   724.50
                              856.90   961.62  1026.99  1081.77  1158.60
                             1236.40  1314.06  1341.89  1407.27  1445.48
                             1459.71  1504.88  1538.16  1567.68  1608.44
                             1667.78  1710.18  1792.75  1804.28  1835.30
                             1897.00  1959.11  1972.01  1979.58  2036.53
                             2059.47  2065.98  2112.39  2137.86  2474.58
                             2622.07  4122.08  4252.39  4345.74  4350.04
                             4388.39  4404.67  4462.83  4520.94  4554.60
                             5498.54

 Zero-point correction=                           0.159244 (Hartree/Particle)
 Thermal correction to Energy=                    0.167907
 Thermal correction to Enthalpy=                  0.168851
 Thermal correction to Gibbs Free Energy=         0.125774
 Sum of electronic and zero-point Energies=           -423.048010
 Sum of electronic and thermal Energies=              -423.039347
 Sum of electronic and thermal Enthalpies=            -423.038403
 Sum of electronic and thermal Free Energies=         -423.081480

                     E (Thermal)             CV                S
                      KCal/Mol        Cal/Mol-Kelvin    Cal/Mol-Kelvin
 Total                  105.363             32.577             90.663
 Electronic               0.000              0.000              0.000
 Translational            0.889              2.981             40.409
 Rotational               0.889              2.981             28.748
 Vibrational            103.586             26.615             21.507
 Vibration     1          0.598              1.970              4.242
 Vibration     2          0.609              1.932              3.086
 Vibration     3          0.629              1.869              2.345
 Vibration     4          0.639              1.836              2.111
 Vibration     5          0.665              1.757              1.707
 Vibration     6          0.674              1.730              1.601
 Vibration     7          0.737              1.547              1.105
 Vibration     8          0.757              1.494              1.004
 Vibration     9          0.814              1.348              0.779
 Vibration    10          0.859              1.242              0.649
 Vibration    11          0.953              1.041              0.457

 Normal termination of Gaussian 09 at Tue Jan 28 09:01:19 2020.
