 Gaussian 09, Revision D.01,
 Gaussian 09:  ES64L-G09RevD.01 24-Apr-2013

 -----------------------------
 # b3lyp 6-31G(2df,p) opt Freq
 -----------------------------

 -----
 titel
 -----
 Symbolic Z-matrix:
 Charge =  0 Multiplicity = 1

 SCF Done:  E(RB3LYP) =  -423.165994090     A.U. after   14 cycles
 Optimization completed.
    -- Stationary point found.
 Normal termination of Gaussian 09 at Tue Jan 28 02:57:39 2020.

 ----------------------------------------------------------------------
 #N Geom=AllCheck Guess=TCheck SCRF=Check GenChk RB3LYP/6-31G(2df,p) Fr
 eq
 ----------------------------------------------------------------------

 Structure from the checkpoint file:  "/scratch/puck/g09_477811ca-5639-494a-84b0-19fc1604c5b3/Gau-44363.chk"
 -----
 titel
 -----
 Charge =  0 Multiplicity = 1

                         Standard orientation:
 ---------------------------------------------------------------------
 Center     Atomic      Atomic             Coordinates (Angstroms)
 Number     Number       Type             X           Y           Z
 ---------------------------------------------------------------------
      1          8           0       -3.172945   -0.726942   -0.025996
      2          6           0       -1.797789   -0.583519   -0.251364
      3          6           0       -1.243289    0.740419   -0.855356
      4          6           0       -0.051546    0.603444    0.101492
      5          6           0        0.937829    1.627685    0.504947
      6          6           0        1.386012    0.465496   -0.385062
      7          6           0        2.275257   -0.554017    0.209147
      8          8           0        3.119165   -1.170554   -0.394296
      9          6           0       -0.825850   -0.416794    0.954112
     10          1           0       -3.468538    0.012150    0.516548
     11          1           0       -1.508012   -1.440069   -0.865657
     12          1           0       -1.046069    0.770022   -1.929598
     13          1           0       -1.879180    1.593400   -0.587708
     14          1           0        0.902573    2.609075    0.043923
     15          1           0        1.294514    1.623824    1.531348
     16          1           0        1.575889    0.671992   -1.433439
     17          1           0        2.115193   -0.718779    1.301300
     18          1           0       -0.312237   -1.308217    1.318960
     19          1           0       -1.327624    0.070289    1.799157
 ---------------------------------------------------------------------

 SCF Done:  E(RB3LYP) =  -423.165994090     A.U. after    1 cycles

 The electronic state is 1-A.
 Alpha  occ. eigenvalues --  -19.14556 -19.13080 -10.26735 -10.24258 -10.22073
 Alpha  occ. eigenvalues --  -10.20679 -10.20592 -10.19481 -10.19421  -1.03851
 Alpha  occ. eigenvalues --   -1.02986  -0.89456  -0.81102  -0.68320  -0.66671
 Alpha  occ. eigenvalues --   -0.62679  -0.58402  -0.54863  -0.51589  -0.48821
 Alpha  occ. eigenvalues --   -0.47770  -0.46320  -0.42864  -0.41075  -0.40238
 Alpha  occ. eigenvalues --   -0.39737  -0.39316  -0.38231  -0.35262  -0.33428
 Alpha  occ. eigenvalues --   -0.29502  -0.28764  -0.26912  -0.24676
 Alpha virt. eigenvalues --   -0.02087   0.06796   0.08397   0.08823   0.10076
 Alpha virt. eigenvalues --    0.11509   0.12041   0.14838   0.15826   0.16052
 Alpha virt. eigenvalues --    0.17486   0.18990   0.19671   0.20079   0.22900

 Mulliken charges:
               1
     1  O   -0.430178
     2  C    0.180336
     3  C   -0.342598
     4  C    0.343054
     5  C   -0.372339
     6  C   -0.153399
     7  C    0.164123
     8  O   -0.268807
     9  C   -0.350619
    10  H    0.277733
    11  H    0.105993
    12  H    0.113069
    13  H    0.098149
    14  H    0.127723
    15  H    0.123683
    16  H    0.105890
    17  H    0.064369
    18  H    0.115785
    19  H    0.098033
 Sum of Mulliken charges =   0.00000

 Dipole moment (field-independent basis, Debye):
    X=             -1.9253    Y=              2.8849    Z=              1.3880  Tot=              3.7357
 Quadrupole moment (field-independent basis, Debye-Ang):
   XX=            -66.3469   YY=            -54.2909   ZZ=            -51.0875
   XY=              0.6511   XZ=              0.3277   YZ=             -0.9040

  Exact polarizability:  91.328  -6.111  72.963  -2.560   0.573  69.861
 Approx polarizability: 123.770 -14.251 110.856  -8.986   5.906 107.234

                      1                      2                      3
                      A                      A                      A
 Frequencies --     56.6305               113.1093               147.9080
 Red. masses --      6.3538                 4.0253                 2.9680
 Frc consts  --      0.0120                 0.0303                 0.0383
 IR Inten    --      1.9843                 3.7400                 0.5179

                      4                      5                      6
                      A                      A                      A
 Frequencies --    213.8167               284.0425               318.1597
 Red. masses --      2.4373                 2.0292                 1.5027
 Frc consts  --      0.0657                 0.0965                 0.0896
 IR Inten    --      1.4523                19.9568                60.5860

                      7                      8                      9
                      A                      A                      A
 Frequencies --    365.6496               377.1757               445.4015
 Red. masses --      2.3514                 2.7853                 2.2334
 Frc consts  --      0.1852                 0.2335                 0.2611
 IR Inten    --      2.0605                15.2287                 6.8386

                     10                     11                     12
                      A                      A                      A
 Frequencies --    454.1797               495.2981               518.4773
 Red. masses --      2.2120                 4.4923                 3.4991
 Frc consts  --      0.2688                 0.6493                 0.5542
 IR Inten    --      6.6504                 2.9965                10.1218

                     13                     14                     15
                      A                      A                      A
 Frequencies --    708.7307               818.7294               828.5199
 Red. masses --      3.2199                 1.3378                 3.0367
 Frc consts  --      0.9529                 0.5283                 1.2282
 IR Inten    --      0.5743                 0.4952                 2.3672

                     16                     17                     18
                      A                      A                      A
 Frequencies --    858.5925               898.6458               929.3293
 Red. masses --      1.2747                 1.6113                 3.3367
 Frc consts  --      0.5536                 0.7667                 1.6979
 IR Inten    --     11.3636                 0.8799                15.2482

                     19                     20                     21
                      A                      A                      A
 Frequencies --    954.6808              1003.1025              1039.3351
 Red. masses --      2.3845                 3.6489                 2.0098
 Frc consts  --      1.2805                 2.1632                 1.2791
 IR Inten    --     15.0431                11.2295                18.5232

                     22                     23                     24
                      A                      A                      A
 Frequencies --   1049.8316              1066.2223              1070.3241
 Red. masses --      1.5286                 1.6639                 1.3738
 Frc consts  --      0.9926                 1.1145                 0.9273
 IR Inten    --      5.9865                10.4277                 3.0866

                     25                     26                     27
                      A                      A                      A
 Frequencies --   1081.9354              1127.3194              1174.9248
 Red. masses --      1.2445                 2.4849                 1.6041
 Frc consts  --      0.8583                 1.8606                 1.3047
 IR Inten    --      3.3276               195.1944                34.6161

                     28                     29                     30
                      A                      A                      A
 Frequencies --   1181.2662              1201.0852              1222.2578
 Red. masses --      1.7731                 1.9959                 1.4438
 Frc consts  --      1.4578                 1.6964                 1.2708
 IR Inten    --      5.9421                 1.8799                 0.5906

                     31                     32                     33
                      A                      A                      A
 Frequencies --   1247.0819              1277.6601              1304.8314
 Red. masses --      1.5295                 1.3040                 1.6843
 Frc consts  --      1.4015                 1.2542                 1.6896
 IR Inten    --     20.1787                 1.3414                 4.2776

                     34                     35                     36
                      A                      A                      A
 Frequencies --   1336.0214              1392.4545              1436.8635
 Red. masses --      1.5628                 1.9297                 1.2327
 Frc consts  --      1.6435                 2.2044                 1.4995
 IR Inten    --      1.6912                 6.6062                72.8471

                     37                     38                     39
                      A                      A                      A
 Frequencies --   1445.9798              1468.3270              1484.8041
 Red. masses --      1.3024                 1.0933                 1.3184
 Frc consts  --      1.6044                 1.3888                 1.7125
 IR Inten    --      4.5721                 2.6043                 4.2080

                     40                     41                     42
                      A                      A                      A
 Frequencies --   1496.0303              1816.7652              2846.4670
 Red. masses --      1.3588                10.0888                 1.0806
 Frc consts  --      1.7919                19.6195                 5.1584
 IR Inten    --      3.2470               264.7083                84.3601

                     43                     44                     45
                      A                      A                      A
 Frequencies --   3030.8056              3037.1131              3080.2844
 Red. masses --      1.0627                 1.0660                 1.0866
 Frc consts  --      5.7514                 5.7933                 6.0744
 IR Inten    --     28.5897                29.0722                 9.0608

                     46                     47                     48
                      A                      A                      A
 Frequencies --   3104.4128              3113.9845              3121.1068
 Red. masses --      1.1015                 1.1005                 1.0544
 Frc consts  --      6.2545                 6.2873                 6.0518
 IR Inten    --     24.7882                25.8281                10.1845

                     49                     50                     51
                      A                      A                      A
 Frequencies --   3169.7912              3209.4825              3803.3502
 Red. masses --      1.0898                 1.1156                 1.0658
 Frc consts  --      6.4512                 6.7705                 9.0835
 IR Inten    --      4.2837                 4.5502                15.3812

 - Thermochemistry -
 -------------------
 Temperature   298.150 Kelvin.  Pressure   1.00000 Atm.
 Atom     1 has atomic number  8 and mass  15.99491

 Molecular mass:   126.06808 amu.
 Principal axes and moments of inertia in atomic units:
                           1         2         3
     Eigenvalues --   527.077971974.627502182.96150
           X            0.99997   0.00636   0.00473
           Y           -0.00620   0.99940  -0.03402
           Z           -0.00494   0.03399   0.99941
 This molecule is an asymmetric top.
 Rotational symmetry number  1.
 Warning -- assumption of classical behavior for rotation
           may cause significant error
 Rotational temperatures (Kelvin)      0.16433     0.04386     0.03968
 Rotational constants (GHZ):           3.42405     0.91397     0.82674
 Zero-point vibrational energy     414077.2 (Joules/Mol)
                                   98.96682 (Kcal/Mol)
 Warning -- explicit consideration of  12 degrees of freedom as
           vibrations may cause significant error
 Vibrational temperatures:     81.48   162.74   212.81   307.63   408.67
          (Kelvin)            457.76   526.09   542.67   640.83   653.46
                              712.62   745.97  1019.70  1177.97  1192.05
                             1235.32  1292.95  1337.10  1373.57  1443.24
                             1495.37  1510.47  1534.05  1539.96  1556.66
                             1621.96  1690.45  1699.58  1728.09  1758.55
                             1794.27  1838.27  1877.36  1922.23  2003.43
                             2067.32  2080.44  2112.59  2136.30  2152.45
                             2613.92  4095.43  4360.65  4369.72  4431.84
                             4466.55  4480.32  4490.57  4560.62  4617.72
                             5472.17

 Zero-point correction=                           0.157714 (Hartree/Particle)
 Thermal correction to Energy=                    0.166564
 Thermal correction to Enthalpy=                  0.167508
 Thermal correction to Gibbs Free Energy=         0.123763
 Sum of electronic and zero-point Energies=           -423.008280
 Sum of electronic and thermal Energies=              -422.999430
 Sum of electronic and thermal Enthalpies=            -422.998486
 Sum of electronic and thermal Free Energies=         -423.042231

                     E (Thermal)             CV                S
                      KCal/Mol        Cal/Mol-Kelvin    Cal/Mol-Kelvin
 Total                  104.521             33.394             92.069
 Electronic               0.000              0.000              0.000
 Translational            0.889              2.981             40.409
 Rotational               0.889              2.981             29.209
 Vibrational            102.743             27.432             22.452
 Vibration     1          0.596              1.975              4.571
 Vibration     2          0.607              1.939              3.215
 Vibration     3          0.617              1.905              2.699
 Vibration     4          0.644              1.820              2.011
 Vibration     5          0.682              1.703              1.509
 Vibration     6          0.705              1.639              1.320
 Vibration     7          0.739              1.543              1.098
 Vibration     8          0.748              1.519              1.050
 Vibration     9          0.805              1.371              0.810
 Vibration    10          0.813              1.352              0.783
 Vibration    11          0.851              1.260              0.670
 Vibration    12          0.873              1.209              0.614

 Normal termination of Gaussian 09 at Tue Jan 28 04:42:27 2020.
