 Gaussian 09, Revision D.01,
 Gaussian 09:  ES64L-G09RevD.01 24-Apr-2013

 -----------------------------
 # b3lyp 6-31G(2df,p) opt Freq
 -----------------------------

 -----
 titel
 -----
 Symbolic Z-matrix:
 Charge =  0 Multiplicity = 1

 SCF Done:  E(RB3LYP) =  -423.235877870     A.U. after   14 cycles
 Optimization completed.
    -- Stationary point found.
 Normal termination of Gaussian 09 at Mon Jan 27 22:03:02 2020.

 ----------------------------------------------------------------------
 #N Geom=AllCheck Guess=TCheck SCRF=Check GenChk RB3LYP/6-31G(2df,p) Fr
 eq
 ----------------------------------------------------------------------

 Structure from the checkpoint file:  "/scratch/puck/g09_01968778-c18d-4f89-9ab5-108265178e2a/Gau-181004.chk"
 -----
 titel
 -----
 Charge =  0 Multiplicity = 1

                         Standard orientation:
 ---------------------------------------------------------------------
 Center     Atomic      Atomic             Coordinates (Angstroms)
 Number     Number       Type             X           Y           Z
 ---------------------------------------------------------------------
      1          6           0       -0.104376    2.160211   -0.113373
      2          6           0        0.685994    0.895358   -0.004872
      3          6           0        2.011149    0.743543   -0.044286
      4          6           0        2.454706   -0.684191    0.150298
      5          6           0        1.129684   -1.479365    0.043637
      6          6           0        0.014801   -0.438399    0.247801
      7          8           0       -1.054039   -0.702238   -0.709867
      8          6           0       -2.312244   -0.482144   -0.311715
      9          8           0       -2.670875   -0.055657    0.753062
     10          1           0       -0.781903    2.128824   -0.975057
     11          1           0       -0.734531    2.308133    0.771307
     12          1           0        0.548088    3.029581   -0.227960
     13          1           0        2.716108    1.560581   -0.161075
     14          1           0        3.198542   -1.004507   -0.588096
     15          1           0        2.925258   -0.816342    1.134001
     16          1           0        1.017876   -1.893393   -0.962246
     17          1           0        1.064490   -2.308475    0.751571
     18          1           0       -0.442438   -0.469841    1.241068
     19          1           0       -2.990466   -0.761479   -1.134016
 ---------------------------------------------------------------------

 SCF Done:  E(RB3LYP) =  -423.235877870     A.U. after    1 cycles

 The electronic state is 1-A.
 Alpha  occ. eigenvalues --  -19.18541 -19.13114 -10.30647 -10.24223 -10.18974
 Alpha  occ. eigenvalues --  -10.18915 -10.18761 -10.18240 -10.18185  -1.10020
 Alpha  occ. eigenvalues --   -1.01839  -0.85142  -0.75296  -0.72677  -0.67033
 Alpha  occ. eigenvalues --   -0.62163  -0.57446  -0.53093  -0.51915  -0.47933
 Alpha  occ. eigenvalues --   -0.46603  -0.45207  -0.44283  -0.41152  -0.40822
 Alpha  occ. eigenvalues --   -0.38016  -0.36832  -0.36168  -0.35639  -0.34830
 Alpha  occ. eigenvalues --   -0.34184  -0.29610  -0.27925  -0.24205
 Alpha virt. eigenvalues --    0.00728   0.02292   0.09487   0.10351   0.11660
 Alpha virt. eigenvalues --    0.13875   0.13891   0.15300   0.16008   0.16998
 Alpha virt. eigenvalues --    0.18582   0.18993   0.19383   0.21224   0.23282

 Mulliken charges:
               1
     1  C   -0.501064
     2  C    0.326481
     3  C   -0.169407
     4  C   -0.256878
     5  C   -0.245521
     6  C    0.037451
     7  O   -0.222718
     8  C    0.185783
     9  O   -0.310676
    10  H    0.130802
    11  H    0.143232
    12  H    0.120621
    13  H    0.091364
    14  H    0.107411
    15  H    0.111378
    16  H    0.122605
    17  H    0.105671
    18  H    0.116383
    19  H    0.107081
 Sum of Mulliken charges =   0.00000

 Dipole moment (field-independent basis, Debye):
    X=              1.7718    Y=             -0.2743    Z=             -0.8970  Tot=              2.0048
 Quadrupole moment (field-independent basis, Debye-Ang):
   XX=            -54.9395   YY=            -50.7720   ZZ=            -54.3649
   XY=              1.0092   XZ=              4.8859   YZ=             -0.6556

  Exact polarizability: 102.500  -4.344  74.876   0.770   0.476  59.827
 Approx polarizability: 145.066  -7.362 100.913  -5.053   4.165 100.055

                      1                      2                      3
                      A                      A                      A
 Frequencies --     36.5583                65.2458               175.4267
 Red. masses --      7.0565                 2.4898                 1.3519
 Frc consts  --      0.0056                 0.0062                 0.0245
 IR Inten    --      2.0899                 0.9252                 1.4520

                      4                      5                      6
                      A                      A                      A
 Frequencies --    187.3486               224.2524               245.3190
 Red. masses --      1.8493                 4.1739                 2.0904
 Frc consts  --      0.0382                 0.1237                 0.0741
 IR Inten    --      2.1594                 6.8692                 2.4968

                      7                      8                      9
                      A                      A                      A
 Frequencies --    302.5210               341.1480               414.8689
 Red. masses --      2.6003                 3.2662                 3.1741
 Frc consts  --      0.1402                 0.2240                 0.3219
 IR Inten    --      7.1864                 2.4633                 7.5117

                     10                     11                     12
                      A                      A                      A
 Frequencies --    550.5378               588.3876               669.3433
 Red. masses --      4.3814                 3.0204                 2.7295
 Frc consts  --      0.7824                 0.6161                 0.7205
 IR Inten    --      3.4974                 0.6126                 0.0904

                     13                     14                     15
                      A                      A                      A
 Frequencies --    767.9226               804.2572               859.6124
 Red. masses --      5.5482                 2.1197                 1.3479
 Frc consts  --      1.9277                 0.8078                 0.5868
 IR Inten    --      1.7856                 1.4478                18.9592

                     16                     17                     18
                      A                      A                      A
 Frequencies --    893.9969               928.1935               953.5404
 Red. masses --      1.8813                 2.5924                 3.1931
 Frc consts  --      0.8859                 1.3159                 1.7106
 IR Inten    --      9.4197                 2.6773                21.9926

                     19                     20                     21
                      A                      A                      A
 Frequencies --    970.7068              1032.1440              1040.3526
 Red. masses --      2.1632                 1.6841                 1.7825
 Frc consts  --      1.2009                 1.0571                 1.1367
 IR Inten    --     11.1399                15.9888                23.4151

                     22                     23                     24
                      A                      A                      A
 Frequencies --   1044.5157              1069.3615              1083.3884
 Red. masses --      1.6499                 1.8197                 1.8293
 Frc consts  --      1.0606                 1.2260                 1.2651
 IR Inten    --      0.3774                 3.4160                 2.1201

                     25                     26                     27
                      A                      A                      A
 Frequencies --   1173.3813              1199.9567              1208.1146
 Red. masses --      1.4743                 1.9593                 4.7884
 Frc consts  --      1.1960                 1.6622                 4.1177
 IR Inten    --      5.7653                99.4294               300.8374

                     28                     29                     30
                      A                      A                      A
 Frequencies --   1250.1142              1283.3893              1306.6177
 Red. masses --      1.4293                 1.4378                 1.3238
 Frc consts  --      1.3160                 1.3953                 1.3316
 IR Inten    --      1.6226                 0.7788                 3.0138

                     31                     32                     33
                      A                      A                      A
 Frequencies --   1336.7616              1352.1073              1380.1812
 Red. masses --      1.6445                 1.6443                 1.4181
 Frc consts  --      1.7314                 1.7712                 1.5916
 IR Inten    --      1.5316                 2.0686                10.3995

                     34                     35                     36
                      A                      A                      A
 Frequencies --   1411.0562              1414.7675              1475.5839
 Red. masses --      1.1399                 1.2826                 1.0474
 Frc consts  --      1.3372                 1.5126                 1.3436
 IR Inten    --      1.5117                 1.5145                10.1418

                     37                     38                     39
                      A                      A                      A
 Frequencies --   1484.3070              1490.6083              1501.6132
 Red. masses --      1.0820                 1.0580                 1.0956
 Frc consts  --      1.4046                 1.3850                 1.4555
 IR Inten    --      1.6222                 8.2127                 1.3029

                     40                     41                     42
                      A                      A                      A
 Frequencies --   1725.1965              1812.8637              3016.4724
 Red. masses --      7.1231                 9.5155                 1.0666
 Frc consts  --     12.4910                18.4251                 5.7179
 IR Inten    --      0.2396               282.0998                50.4989

                     43                     44                     45
                      A                      A                      A
 Frequencies --   3019.1835              3027.5046              3051.9539
 Red. masses --      1.0896                 1.0370                 1.0932
 Frc consts  --      5.8517                 5.6004                 5.9995
 IR Inten    --     65.1821                21.0609                22.3540

                     46                     47                     48
                      A                      A                      A
 Frequencies --   3069.1063              3070.2612              3078.2856
 Red. masses --      1.0684                 1.0780                 1.0981
 Frc consts  --      5.9295                 5.9872                 6.1308
 IR Inten    --     20.5161                 8.8530                12.7812

                     49                     50                     51
                      A                      A                      A
 Frequencies --   3116.3998              3116.5757              3182.9189
 Red. masses --      1.1036                 1.1019                 1.0935
 Frc consts  --      6.3150                 6.3059                 6.5271
 IR Inten    --     14.3094                28.6949                16.3147

 - Thermochemistry -
 -------------------
 Temperature   298.150 Kelvin.  Pressure   1.00000 Atm.
 Atom     1 has atomic number  6 and mass  12.00000

 Molecular mass:   126.06808 amu.
 Principal axes and moments of inertia in atomic units:
                           1         2         3
     Eigenvalues --   632.996361443.040811882.58855
           X            0.99972  -0.02112   0.01069
           Y            0.02123   0.99972  -0.01012
           Z           -0.01047   0.01035   0.99989
 This molecule is an asymmetric top.
 Rotational symmetry number  1.
 Warning -- assumption of classical behavior for rotation
           may cause significant error
 Rotational temperatures (Kelvin)      0.13683     0.06002     0.04601
 Rotational constants (GHZ):           2.85111     1.25065     0.95865
 Zero-point vibrational energy     417522.0 (Joules/Mol)
                                   99.79016 (Kcal/Mol)
 Warning -- explicit consideration of  11 degrees of freedom as
           vibrations may cause significant error
 Vibrational temperatures:     52.60    93.87   252.40   269.55   322.65
          (Kelvin)            352.96   435.26   490.84   596.90   792.10
                              846.56   963.03  1104.87  1157.15  1236.79
                             1286.26  1335.46  1371.93  1396.63  1485.02
                             1496.83  1502.82  1538.57  1558.75  1688.23
                             1726.47  1738.21  1798.63  1846.51  1879.93
                             1923.30  1945.38  1985.77  2030.19  2035.53
                             2123.03  2135.58  2144.65  2160.48  2482.17
                             2608.30  4340.03  4343.93  4355.90  4391.08
                             4415.75  4417.42  4428.96  4483.80  4484.05
                             4579.50

 Zero-point correction=                           0.159026 (Hartree/Particle)
 Thermal correction to Energy=                    0.168008
 Thermal correction to Enthalpy=                  0.168952
 Thermal correction to Gibbs Free Energy=         0.124240
 Sum of electronic and zero-point Energies=           -423.076852
 Sum of electronic and thermal Energies=              -423.067870
 Sum of electronic and thermal Enthalpies=            -423.066926
 Sum of electronic and thermal Free Energies=         -423.111638

                     E (Thermal)             CV                S
                      KCal/Mol        Cal/Mol-Kelvin    Cal/Mol-Kelvin
 Total                  105.426             32.379             94.105
 Electronic               0.000              0.000              0.000
 Translational            0.889              2.981             40.409
 Rotational               0.889              2.981             28.932
 Vibrational            103.649             26.417             24.764
 Vibration     1          0.594              1.982              5.437
 Vibration     2          0.597              1.971              4.292
 Vibration     3          0.627              1.873              2.377
 Vibration     4          0.632              1.857              2.254
 Vibration     5          0.649              1.804              1.924
 Vibration     6          0.660              1.771              1.764
 Vibration     7          0.694              1.669              1.403
 Vibration     8          0.721              1.593              1.207
 Vibration     9          0.778              1.438              0.910
 Vibration    10          0.906              1.139              0.543
 Vibration    11          0.946              1.057              0.470

 Optimization completed.
    -- Stationary point found.
 Normal termination of Gaussian 09 at Mon Jan 27 22:44:19 2020.
