 Gaussian 09, Revision D.01,
 Gaussian 09:  ES64L-G09RevD.01 24-Apr-2013

 -----------------------------
 # b3lyp 6-31G(2df,p) opt Freq
 -----------------------------

 -----
 titel
 -----
 Symbolic Z-matrix:
 Charge =  0 Multiplicity = 1

 SCF Done:  E(RB3LYP) =  -423.186330485     A.U. after   13 cycles
 SCF Done:  E(RB3LYP) =  -423.186331280     A.U. after    6 cycles
 Optimization completed.
    -- Stationary point found.
 Normal termination of Gaussian 09 at Tue Jan 28 00:07:36 2020.

 ----------------------------------------------------------------------
 #N Geom=AllCheck Guess=TCheck SCRF=Check GenChk RB3LYP/6-31G(2df,p) Fr
 eq
 ----------------------------------------------------------------------

 Structure from the checkpoint file:  "/scratch/puck/g09_cbd0f142-5786-4a79-b048-62a96abdcb78/Gau-184672.chk"
 -----
 titel
 -----
 Charge =  0 Multiplicity = 1

                         Standard orientation:
 ---------------------------------------------------------------------
 Center     Atomic      Atomic             Coordinates (Angstroms)
 Number     Number       Type             X           Y           Z
 ---------------------------------------------------------------------
      1          6           0       -2.630485   -0.015012   -0.092517
      2          6           0       -1.155367    0.032686    0.131879
      3          6           0       -0.470304    0.087553    1.287755
      4          6           0        0.999665   -0.040374    0.929410
      5          8           0        1.234266   -1.396486    0.464028
      6          6           0        0.519164   -1.516442   -0.776267
      7          6           0       -0.121230   -0.116775   -0.980489
      8          6           0        1.043219    0.746124   -0.402460
      9          8           0        0.832831    2.129317   -0.342553
     10          1           0       -2.928387   -0.963260   -0.557911
     11          1           0       -3.184005    0.089476    0.844623
     12          1           0       -2.954419    0.779648   -0.775996
     13          1           0       -0.881385    0.090000    2.289810
     14          1           0        1.740144    0.191208    1.692609
     15          1           0        1.224509   -1.757119   -1.581545
     16          1           0       -0.222915   -2.321155   -0.707226
     17          1           0       -0.450653    0.099139   -1.996940
     18          1           0        1.987910    0.597183   -0.931463
     19          1           0        0.024454    2.265673    0.168380
 ---------------------------------------------------------------------

 SCF Done:  E(RB3LYP) =  -423.186331280     A.U. after    1 cycles

 The electronic state is 1-A.
 Alpha  occ. eigenvalues --  -19.13602 -19.13317 -10.23205 -10.22913 -10.22820
 Alpha  occ. eigenvalues --  -10.19990 -10.19427 -10.19307 -10.18005  -1.03728
 Alpha  occ. eigenvalues --   -1.01594  -0.84062  -0.74526  -0.74453  -0.68015
 Alpha  occ. eigenvalues --   -0.60742  -0.58765  -0.53305  -0.51344  -0.49018
 Alpha  occ. eigenvalues --   -0.47402  -0.43424  -0.41876  -0.41545  -0.40635
 Alpha  occ. eigenvalues --   -0.39814  -0.38155  -0.37514  -0.34564  -0.33463
 Alpha  occ. eigenvalues --   -0.31417  -0.27390  -0.25229  -0.23131
 Alpha virt. eigenvalues --    0.00298   0.08867   0.10081   0.11561   0.12561
 Alpha virt. eigenvalues --    0.13027   0.14421   0.15651   0.16055   0.16605
 Alpha virt. eigenvalues --    0.17248   0.18898   0.19585   0.21166   0.22332

 Mulliken charges:
               1
     1  C   -0.515318
     2  C    0.325148
     3  C   -0.221251
     4  C    0.037722
     5  O   -0.277014
     6  C   -0.077941
     7  C   -0.184772
     8  C    0.152686
     9  O   -0.448181
    10  H    0.134626
    11  H    0.128948
    12  H    0.131040
    13  H    0.098947
    14  H    0.077270
    15  H    0.102397
    16  H    0.098163
    17  H    0.071142
    18  H    0.093511
    19  H    0.272877
 Sum of Mulliken charges =   0.00000

 Dipole moment (field-independent basis, Debye):
    X=             -2.2034    Y=             -0.1236    Z=             -0.2507  Tot=              2.2211
 Quadrupole moment (field-independent basis, Debye-Ang):
   XX=            -52.3435   YY=            -58.3878   ZZ=            -50.5814
   XY=             -0.7309   XZ=             -0.4252   YZ=              4.1086

  Exact polarizability:  82.782  -0.504  68.427   1.768   4.601  75.448
 Approx polarizability: 117.290  -1.894 103.473   8.891   5.649 122.556

                      1                      2                      3
                      A                      A                      A
 Frequencies --    146.0720               181.3595               255.2761
 Red. masses --      3.2285                 1.0530                 2.5912
 Frc consts  --      0.0406                 0.0204                 0.0995
 IR Inten    --      0.0584                 0.1660                 3.5583

                      4                      5                      6
                      A                      A                      A
 Frequencies --    272.0355               308.7566               339.1381
 Red. masses --      3.8709                 3.4545                 2.0950
 Frc consts  --      0.1688                 0.1940                 0.1420
 IR Inten    --      6.4721                 1.1825                 1.3752

                      7                      8                      9
                      A                      A                      A
 Frequencies --    442.4619               458.7570               528.0398
 Red. masses --      1.5558                 2.4978                 3.2952
 Frc consts  --      0.1795                 0.3097                 0.5413
 IR Inten    --     39.1618                18.9916                 4.9758

                     10                     11                     12
                      A                      A                      A
 Frequencies --    574.3987               619.1945               732.3190
 Red. masses --      5.1140                 3.7524                 4.0539
 Frc consts  --      0.9941                 0.8476                 1.2809
 IR Inten    --      1.2712                 1.1866                16.2609

                     13                     14                     15
                      A                      A                      A
 Frequencies --    802.9438               826.1800               847.8210
 Red. masses --      2.9862                 1.8562                 2.3207
 Frc consts  --      1.1343                 0.7465                 0.9828
 IR Inten    --      1.5680                 6.3776                16.9247

                     16                     17                     18
                      A                      A                      A
 Frequencies --    896.2484               919.2624               935.2721
 Red. masses --      3.1596                 2.4697                 2.7203
 Frc consts  --      1.4954                 1.2296                 1.4020
 IR Inten    --     26.5067                10.5995                 6.3164

                     19                     20                     21
                      A                      A                      A
 Frequencies --    938.9503               990.5912              1010.8788
 Red. masses --      2.6893                 4.5071                 1.5004
 Frc consts  --      1.3970                 2.6057                 0.9034
 IR Inten    --     21.2124                26.7657                 4.1467

                     22                     23                     24
                      A                      A                      A
 Frequencies --   1018.9777              1050.0248              1077.3845
 Red. masses --      1.7826                 1.6101                 1.6814
 Frc consts  --      1.0905                 1.0459                 1.1499
 IR Inten    --     11.8896                 6.7095                 7.7594

                     25                     26                     27
                      A                      A                      A
 Frequencies --   1131.8543              1139.6228              1195.1705
 Red. masses --      2.7929                 1.9250                 1.2742
 Frc consts  --      2.1081                 1.4730                 1.0723
 IR Inten    --    111.6895                17.0012                12.4759

                     28                     29                     30
                      A                      A                      A
 Frequencies --   1217.3188              1243.5949              1258.0032
 Red. masses --      1.6220                 1.7024                 1.5073
 Frc consts  --      1.4162                 1.5512                 1.4054
 IR Inten    --     13.3984                 3.5787                 5.6507

                     31                     32                     33
                      A                      A                      A
 Frequencies --   1269.4147              1277.9195              1311.4579
 Red. masses --      1.4236                 1.5309                 1.4888
 Frc consts  --      1.3516                 1.4730                 1.5087
 IR Inten    --      7.8934                 0.4195                14.5586

                     34                     35                     36
                      A                      A                      A
 Frequencies --   1347.0697              1367.4599              1413.5856
 Red. masses --      1.7201                 1.4596                 1.2902
 Frc consts  --      1.8390                 1.6081                 1.5189
 IR Inten    --     14.6344                 3.8045                 0.5692

                     37                     38                     39
                      A                      A                      A
 Frequencies --   1442.9640              1478.2872              1485.3598
 Red. masses --      1.2559                 1.0453                 1.0669
 Frc consts  --      1.5407                 1.3458                 1.3869
 IR Inten    --     83.0659                 6.5127                 8.2035

                     40                     41                     42
                      A                      A                      A
 Frequencies --   1523.8672              1671.6563              3013.4589
 Red. masses --      1.0903                 6.3938                 1.0552
 Frc consts  --      1.4917                10.5269                 5.6455
 IR Inten    --      0.9871                11.7851                61.0517

                     43                     44                     45
                      A                      A                      A
 Frequencies --   3019.0557              3051.1686              3066.1573
 Red. masses --      1.0380                 1.1105                 1.0983
 Frc consts  --      5.5742                 6.0910                 6.0834
 IR Inten    --     25.0105                34.2875                14.7317

                     46                     47                     48
                      A                      A                      A
 Frequencies --   3091.5908              3111.6388              3119.3705
 Red. masses --      1.0866                 1.0996                 1.0887
 Frc consts  --      6.1189                 6.2725                 6.2417
 IR Inten    --     29.7064                15.1474                29.9234

                     49                     50                     51
                      A                      A                      A
 Frequencies --   3143.9825              3206.1366              3764.1894
 Red. masses --      1.0907                 1.0960                 1.0641
 Frc consts  --      6.3518                 6.6379                 8.8834
 IR Inten    --     27.9272                 9.5857                16.3258

 - Thermochemistry -
 -------------------
 Temperature   298.150 Kelvin.  Pressure   1.00000 Atm.
 Atom     1 has atomic number  6 and mass  12.00000

 Molecular mass:   126.06808 amu.
 Principal axes and moments of inertia in atomic units:
                           1         2         3
     Eigenvalues --   815.28937 988.152701274.30627
           X            0.99999   0.00243  -0.00375
           Y           -0.00222   0.99838   0.05692
           Z            0.00388  -0.05691   0.99837
 This molecule is an asymmetric top.
 Rotational symmetry number  1.
 Warning -- assumption of classical behavior for rotation
           may cause significant error
 Rotational temperatures (Kelvin)      0.10624     0.08765     0.06797
 Rotational constants (GHZ):           2.21362     1.82638     1.41625
 Zero-point vibrational energy     421885.2 (Joules/Mol)
                                  100.83298 (Kcal/Mol)
 Warning -- explicit consideration of  11 degrees of freedom as
           vibrations may cause significant error
 Vibrational temperatures:    210.16   260.94   367.28   391.40   444.23
          (Kelvin)            487.94   636.60   660.05   759.73   826.43
                              890.88  1053.64  1155.26  1188.69  1219.82
                             1289.50  1322.61  1345.65  1350.94  1425.24
                             1454.43  1466.08  1510.75  1550.11  1628.48
                             1639.66  1719.58  1751.45  1789.25  1809.98
                             1826.40  1838.64  1886.89  1938.13  1967.47
                             2033.83  2076.10  2126.92  2137.10  2192.50
                             2405.14  4335.69  4343.74  4389.95  4411.51
                             4448.10  4476.95  4488.07  4523.48  4612.91
                             5415.82

 Zero-point correction=                           0.160688 (Hartree/Particle)
 Thermal correction to Energy=                    0.168401
 Thermal correction to Enthalpy=                  0.169345
 Thermal correction to Gibbs Free Energy=         0.128937
 Sum of electronic and zero-point Energies=           -423.025644
 Sum of electronic and thermal Energies=              -423.017931
 Sum of electronic and thermal Enthalpies=            -423.016987
 Sum of electronic and thermal Free Energies=         -423.057394

                     E (Thermal)             CV                S
                      KCal/Mol        Cal/Mol-Kelvin    Cal/Mol-Kelvin
 Total                  105.673             31.092             85.045
 Electronic               0.000              0.000              0.000
 Translational            0.889              2.981             40.409
 Rotational               0.889              2.981             28.420
 Vibrational            103.895             25.130             16.216
 Vibration     1          0.617              1.907              2.723
 Vibration     2          0.630              1.865              2.314
 Vibration     3          0.666              1.754              1.694
 Vibration     4          0.675              1.725              1.583
 Vibration     5          0.698              1.657              1.369
 Vibration     6          0.719              1.597              1.216
 Vibration     7          0.802              1.378              0.819
 Vibration     8          0.817              1.342              0.770
 Vibration     9          0.883              1.188              0.592
 Vibration    10          0.931              1.087              0.496
 Vibration    11          0.979              0.991              0.418

 Normal termination of Gaussian 09 at Tue Jan 28 00:55:57 2020.
