 Gaussian 09, Revision D.01,
 Gaussian 09:  ES64L-G09RevD.01 24-Apr-2013

 -----------------------------
 # b3lyp 6-31G(2df,p) opt Freq
 -----------------------------

 -----
 titel
 -----
 Symbolic Z-matrix:
 Charge =  0 Multiplicity = 1

 SCF Done:  E(RB3LYP) =  -423.218297802     A.U. after   14 cycles
 Optimization completed.
    -- Stationary point found.
 Normal termination of Gaussian 09 at Tue Jan 28 03:56:39 2020.

 ----------------------------------------------------------------------
 #N Geom=AllCheck Guess=TCheck SCRF=Check GenChk RB3LYP/6-31G(2df,p) Fr
 eq
 ----------------------------------------------------------------------

 Structure from the checkpoint file:  "/scratch/puck/g09_90917107-e270-4fd3-8d4e-7b463bb01962/Gau-80762.chk"
 -----
 titel
 -----
 Charge =  0 Multiplicity = 1

                         Standard orientation:
 ---------------------------------------------------------------------
 Center     Atomic      Atomic             Coordinates (Angstroms)
 Number     Number       Type             X           Y           Z
 ---------------------------------------------------------------------
      1          8           0       -2.429016   -0.408724   -0.272037
      2          6           0       -1.099436   -0.819118   -0.031800
      3          6           0       -0.531508   -0.410023    1.375918
      4          6           0        0.810692    0.291434    1.060180
      5          6           0        0.506071    1.659306    0.407159
      6          6           0       -0.077148    1.279534   -1.003517
      7          6           0       -0.036304   -0.264472   -1.022547
      8          6           0        1.226797   -0.509300   -0.185162
      9          8           0        2.219065   -1.138952   -0.420892
     10          1           0       -2.510461    0.523393   -0.046351
     11          1           0       -1.130602   -1.908304   -0.123885
     12          1           0       -1.229827    0.258529    1.891678
     13          1           0       -0.391990   -1.286885    2.013596
     14          1           0        1.535209    0.310329    1.872442
     15          1           0       -0.199426    2.241134    1.007998
     16          1           0        1.416438    2.255933    0.305360
     17          1           0       -1.090830    1.658201   -1.162259
     18          1           0        0.538402    1.689216   -1.807948
     19          1           0       -0.052295   -0.724301   -2.008580
 ---------------------------------------------------------------------

 SCF Done:  E(RB3LYP) =  -423.218297802     A.U. after    1 cycles

 The electronic state is 1-A.
 Alpha  occ. eigenvalues --  -19.14633 -19.13699 -10.26644 -10.24444 -10.19962
 Alpha  occ. eigenvalues --  -10.19939 -10.19764 -10.19609 -10.19180  -1.04720
 Alpha  occ. eigenvalues --   -1.02949  -0.87474  -0.75337  -0.73993  -0.66577
 Alpha  occ. eigenvalues --   -0.62779  -0.56593  -0.53706  -0.51675  -0.49245
 Alpha  occ. eigenvalues --   -0.46377  -0.44878  -0.42355  -0.41529  -0.39685
 Alpha  occ. eigenvalues --   -0.38946  -0.37777  -0.36647  -0.35862  -0.35642
 Alpha  occ. eigenvalues --   -0.34006  -0.30939  -0.27411  -0.23433
 Alpha virt. eigenvalues --   -0.01375   0.05483   0.08367   0.10457   0.12971
 Alpha virt. eigenvalues --    0.13933   0.14800   0.15218   0.16090   0.16605
 Alpha virt. eigenvalues --    0.18076   0.19150   0.20520   0.20939   0.21163

 Mulliken charges:
               1
     1  O   -0.436740
     2  C    0.144754
     3  C   -0.273036
     4  C   -0.108650
     5  C   -0.227993
     6  C   -0.240640
     7  C   -0.140246
     8  C    0.414584
     9  O   -0.326886
    10  H    0.280008
    11  H    0.102633
    12  H    0.100435
    13  H    0.116460
    14  H    0.082471
    15  H    0.099933
    16  H    0.114355
    17  H    0.097573
    18  H    0.116759
    19  H    0.084227
 Sum of Mulliken charges =   0.00000

 Dipole moment (field-independent basis, Debye):
    X=             -1.2445    Y=              2.3816    Z=              1.0618  Tot=              2.8893
 Quadrupole moment (field-independent basis, Debye-Ang):
   XX=            -62.7820   YY=            -52.2913   ZZ=            -51.8648
   XY=              0.9709   XZ=             -0.0536   YZ=             -1.2326

  Exact polarizability:  77.169  -2.541  72.733  -0.382   0.543  70.578
 Approx polarizability: 118.931  -9.509 108.646  -2.458   2.956 102.239

                      1                      2                      3
                      A                      A                      A
 Frequencies --     90.8160               141.9897               227.5209
 Red. masses --      3.0754                 5.3380                 1.4919
 Frc consts  --      0.0149                 0.0634                 0.0455
 IR Inten    --      2.3726                 1.8696                43.1696

                      4                      5                      6
                      A                      A                      A
 Frequencies --    298.8792               311.9548               393.7263
 Red. masses --      1.3437                 3.7690                 2.7371
 Frc consts  --      0.0707                 0.2161                 0.2500
 IR Inten    --     39.6187                12.3255                 8.7036

                      7                      8                      9
                      A                      A                      A
 Frequencies --    448.4644               511.0095               539.4169
 Red. masses --      3.6165                 4.4445                 3.8224
 Frc consts  --      0.4285                 0.6838                 0.6553
 IR Inten    --      2.6853                 5.2316                 3.1456

                     10                     11                     12
                      A                      A                      A
 Frequencies --    633.6115               708.7557               759.6808
 Red. masses --      4.5414                 2.9699                 4.0636
 Frc consts  --      1.0742                 0.8790                 1.3817
 IR Inten    --      0.7029                13.4909                 0.2996

                     13                     14                     15
                      A                      A                      A
 Frequencies --    781.9792               832.4214               866.0933
 Red. masses --      2.1294                 2.3059                 2.3080
 Frc consts  --      0.7672                 0.9414                 1.0200
 IR Inten    --      0.9207                 6.3723                 7.6393

                     16                     17                     18
                      A                      A                      A
 Frequencies --    870.5497               879.4192               943.9792
 Red. masses --      2.3746                 3.5952                 1.7259
 Frc consts  --      1.0603                 1.6382                 0.9061
 IR Inten    --     10.6549                 2.3513                 0.1934

                     19                     20                     21
                      A                      A                      A
 Frequencies --    987.1490              1003.7395              1040.5594
 Red. masses --      2.0904                 2.2518                 2.6198
 Frc consts  --      1.2002                 1.3367                 1.6713
 IR Inten    --      2.8322                 1.2022                 2.4799

                     22                     23                     24
                      A                      A                      A
 Frequencies --   1062.4021              1082.3081              1117.6780
 Red. masses --      1.8695                 2.3097                 1.4261
 Frc consts  --      1.2432                 1.5940                 1.0496
 IR Inten    --      2.8276                43.2692                32.7398

                     25                     26                     27
                      A                      A                      A
 Frequencies --   1128.0757              1151.9630              1175.6709
 Red. masses --      1.6360                 1.6135                 1.3936
 Frc consts  --      1.2266                 1.2616                 1.1349
 IR Inten    --     87.0444                12.0938                14.8704

                     28                     29                     30
                      A                      A                      A
 Frequencies --   1203.5767              1245.6378              1260.5761
 Red. masses --      1.5067                 1.4373                 1.5791
 Frc consts  --      1.2859                 1.3140                 1.4784
 IR Inten    --      0.2466                 1.7203                 4.9075

                     31                     32                     33
                      A                      A                      A
 Frequencies --   1270.1722              1306.2785              1314.0890
 Red. masses --      1.3537                 1.2804                 1.4292
 Frc consts  --      1.2867                 1.2872                 1.4541
 IR Inten    --      1.1543                 0.0890                 3.7403

                     34                     35                     36
                      A                      A                      A
 Frequencies --   1322.1161              1341.2327              1349.3733
 Red. masses --      1.5003                 1.4499                 1.4994
 Frc consts  --      1.5451                 1.5367                 1.6085
 IR Inten    --      2.2732                 0.5736                 4.9572

                     37                     38                     39
                      A                      A                      A
 Frequencies --   1437.8715              1484.4272              1496.3829
 Red. masses --      1.1949                 1.0829                 1.0819
 Frc consts  --      1.4556                 1.4059                 1.4273
 IR Inten    --     57.1157                 1.2477                 2.1881

                     40                     41                     42
                      A                      A                      A
 Frequencies --   1516.4556              1879.8602              3042.0567
 Red. masses --      1.0916                12.2567                 1.0634
 Frc consts  --      1.4790                25.5196                 5.7981
 IR Inten    --      3.4035               265.6690                22.4657

                     43                     44                     45
                      A                      A                      A
 Frequencies --   3049.1227              3062.3019              3068.2638
 Red. masses --      1.0606                 1.0613                 1.0883
 Frc consts  --      5.8098                 5.8639                 6.0367
 IR Inten    --     28.7020                39.5813                11.1255

                     46                     47                     48
                      A                      A                      A
 Frequencies --   3087.0251              3097.5884              3106.7818
 Red. masses --      1.1051                 1.1004                 1.1044
 Frc consts  --      6.2050                 6.2206                 6.2805
 IR Inten    --      0.8039                28.2369                31.8140

                     49                     50                     51
                      A                      A                      A
 Frequencies --   3133.8352              3141.7493              3817.9040
 Red. masses --      1.0889                 1.0898                 1.0657
 Frc consts  --      6.3008                 6.3377                 9.1528
 IR Inten    --     25.1031                13.5195                10.2474

 - Thermochemistry -
 -------------------
 Temperature   298.150 Kelvin.  Pressure   1.00000 Atm.
 Atom     1 has atomic number  8 and mass  15.99491

 Molecular mass:   126.06808 amu.
 Principal axes and moments of inertia in atomic units:
                           1         2         3
     Eigenvalues --   718.963991155.568991244.65811
           X            0.99964   0.02677   0.00244
           Y           -0.02652   0.99709  -0.07153
           Z           -0.00435   0.07143   0.99744
 This molecule is an asymmetric top.
 Rotational symmetry number  1.
 Warning -- assumption of classical behavior for rotation
           may cause significant error
 Rotational temperatures (Kelvin)      0.12047     0.07495     0.06959
 Rotational constants (GHZ):           2.51020     1.56178     1.44999
 Zero-point vibrational energy     424820.8 (Joules/Mol)
                                  101.53461 (Kcal/Mol)
 Warning -- explicit consideration of   9 degrees of freedom as
           vibrations may cause significant error
 Vibrational temperatures:    130.66   204.29   327.35   430.02   448.83
          (Kelvin)            566.48   645.24   735.23   776.10   911.62
                             1019.74  1093.01  1125.09  1197.67  1246.11
                             1252.53  1265.29  1358.17  1420.29  1444.16
                             1497.13  1528.56  1557.20  1608.09  1623.05
                             1657.42  1691.53  1731.68  1792.19  1813.69
                             1827.49  1879.44  1890.68  1902.23  1929.73
                             1941.44  2068.77  2135.76  2152.96  2181.84
                             2704.70  4376.84  4387.00  4405.96  4414.54
                             4441.53  4456.73  4469.96  4508.88  4520.27
                             5493.11

 Zero-point correction=                           0.161806 (Hartree/Particle)
 Thermal correction to Energy=                    0.169484
 Thermal correction to Enthalpy=                  0.170428
 Thermal correction to Gibbs Free Energy=         0.129676
 Sum of electronic and zero-point Energies=           -423.056492
 Sum of electronic and thermal Energies=              -423.048814
 Sum of electronic and thermal Enthalpies=            -423.047870
 Sum of electronic and thermal Free Energies=         -423.088622

                     E (Thermal)             CV                S
                      KCal/Mol        Cal/Mol-Kelvin    Cal/Mol-Kelvin
 Total                  106.353             30.444             85.770
 Electronic               0.000              0.000              0.000
 Translational            0.889              2.981             40.409
 Rotational               0.889              2.981             28.427
 Vibrational            104.575             24.482             16.934
 Vibration     1          0.602              1.956              3.642
 Vibration     2          0.615              1.911              2.777
 Vibration     3          0.651              1.799              1.898
 Vibration     4          0.692              1.676              1.423
 Vibration     5          0.700              1.651              1.352
 Vibration     6          0.761              1.484              0.986
 Vibration     7          0.807              1.364              0.800
 Vibration     8          0.866              1.226              0.631
 Vibration     9          0.894              1.163              0.567

 Optimization completed.
    -- Stationary point found.
 Normal termination of Gaussian 09 at Tue Jan 28 04:40:28 2020.
