 Gaussian 09, Revision D.01,
 Gaussian 09:  ES64L-G09RevD.01 24-Apr-2013

 -----------------------------
 # b3lyp 6-31G(2df,p) opt Freq
 -----------------------------

 -----
 titel
 -----
 Symbolic Z-matrix:
 Charge =  0 Multiplicity = 1

 SCF Done:  E(RB3LYP) =  -423.127161399     A.U. after   14 cycles
 Optimization completed.
    -- Stationary point found.
 Normal termination of Gaussian 09 at Tue Jan 28 08:18:55 2020.

 ----------------------------------------------------------------------
 #N Geom=AllCheck Guess=TCheck SCRF=Check GenChk RB3LYP/6-31G(2df,p) Fr
 eq
 ----------------------------------------------------------------------

 Structure from the checkpoint file:  "/scratch/puck/g09_0c4b845c-7de4-4c36-a4db-e63ef7b83fb1/Gau-14768.chk"
 -----
 titel
 -----
 Charge =  0 Multiplicity = 1

                         Standard orientation:
 ---------------------------------------------------------------------
 Center     Atomic      Atomic             Coordinates (Angstroms)
 Number     Number       Type             X           Y           Z
 ---------------------------------------------------------------------
      1          8           0       -2.971099   -1.062804    0.297406
      2          6           0       -1.604112   -1.070392   -0.106949
      3          6           0       -1.074515    0.340055    0.149720
      4          8           0       -1.888137    1.285252   -0.523480
      5          6           0        0.344340    0.505725   -0.330221
      6          6           0        1.216624    1.579387    0.244801
      7          6           0        1.492995    0.125641    0.596437
      8          6           0        2.646592   -0.547679    0.076914
      9          6           0        3.614222   -1.115358   -0.357897
     10          1           0       -3.403611   -1.843764   -0.058054
     11          1           0       -1.019800   -1.807994    0.461355
     12          1           0       -1.510175   -1.300302   -1.178248
     13          1           0       -1.107039    0.517253    1.239866
     14          1           0       -2.795807    0.983199   -0.387626
     15          1           0        0.494073    0.278244   -1.381317
     16          1           0        1.920124    2.073391   -0.413919
     17          1           0        0.804578    2.204958    1.028944
     18          1           0        1.205634   -0.173758    1.601139
     19          1           0        4.469032   -1.615084   -0.740382
 ---------------------------------------------------------------------

 SCF Done:  E(RB3LYP) =  -423.127161399     A.U. after    1 cycles

 The electronic state is 1-A.
 Alpha  occ. eigenvalues --  -19.15200 -19.12635 -10.23457 -10.23308 -10.21549
 Alpha  occ. eigenvalues --  -10.19895 -10.19368 -10.17916 -10.16741  -1.03749
 Alpha  occ. eigenvalues --   -1.00539  -0.87553  -0.75203  -0.73287  -0.64778
 Alpha  occ. eigenvalues --   -0.62467  -0.57691  -0.53838  -0.52825  -0.49958
 Alpha  occ. eigenvalues --   -0.48268  -0.47052  -0.46040  -0.41274  -0.39437
 Alpha  occ. eigenvalues --   -0.37642  -0.35819  -0.33796  -0.33380  -0.31229
 Alpha  occ. eigenvalues --   -0.28596  -0.26726  -0.25634  -0.24356
 Alpha virt. eigenvalues --    0.04881   0.05022   0.06276   0.10006   0.10852
 Alpha virt. eigenvalues --    0.12320   0.12980   0.13742   0.15201   0.16128
 Alpha virt. eigenvalues --    0.17592   0.18250   0.19469   0.20983   0.23358

 Mulliken charges:
               1
     1  O   -0.432720
     2  C   -0.102321
     3  C    0.118389
     4  O   -0.447596
     5  C   -0.000208
     6  C   -0.290081
     7  C   -0.214422
     8  C    0.305350
     9  C   -0.440165
    10  H    0.295563
    11  H    0.099032
    12  H    0.097018
    13  H    0.065838
    14  H    0.288485
    15  H    0.102214
    16  H    0.127254
    17  H    0.123707
    18  H    0.111782
    19  H    0.192882
 Sum of Mulliken charges =   0.00000

 Dipole moment (field-independent basis, Debye):
    X=             -0.8532    Y=             -1.8923    Z=             -0.1385  Tot=              2.0804
 Quadrupole moment (field-independent basis, Debye-Ang):
   XX=            -49.5924   YY=            -51.3204   ZZ=            -52.9903
   XY=              5.0202   XZ=             -0.0404   YZ=              3.1447

  Exact polarizability: 102.695 -10.393  74.788  -4.928   3.981  60.609
 Approx polarizability: 136.894 -22.333 110.047 -11.051   7.159  96.282

                      1                      2                      3
                      A                      A                      A
 Frequencies --     63.9137                85.8380               112.6466
 Red. masses --      3.7624                 4.5339                 3.2620
 Frc consts  --      0.0091                 0.0197                 0.0244
 IR Inten    --      1.9792                 1.2406                 0.7755

                      4                      5                      6
                      A                      A                      A
 Frequencies --    165.1048               222.0081               255.4000
 Red. masses --      3.5930                 3.4626                 1.1365
 Frc consts  --      0.0577                 0.1006                 0.0437
 IR Inten    --      2.3153                 1.6925                85.7062

                      7                      8                      9
                      A                      A                      A
 Frequencies --    269.1000               312.3610               402.5720
 Red. masses --      4.4661                 3.1475                 5.3394
 Frc consts  --      0.1905                 0.1809                 0.5098
 IR Inten    --      4.2333                 8.1718                 6.2990

                     10                     11                     12
                      A                      A                      A
 Frequencies --    426.8789               481.0613               511.8474
 Red. masses --      3.3803                 1.1436                 4.1851
 Frc consts  --      0.3629                 0.1559                 0.6460
 IR Inten    --      6.7150                93.8189                 7.8949

                     13                     14                     15
                      A                      A                      A
 Frequencies --    527.6648               558.4562               582.4071
 Red. masses --      3.0878                 2.5130                 1.2490
 Frc consts  --      0.5065                 0.4618                 0.2496
 IR Inten    --      6.3500                 6.9495                58.3969

                     16                     17                     18
                      A                      A                      A
 Frequencies --    645.1224               802.4735               854.8416
 Red. masses --      1.2253                 2.1016                 1.8070
 Frc consts  --      0.3004                 0.7974                 0.7780
 IR Inten    --     41.4359                 2.2263                11.6693

                     19                     20                     21
                      A                      A                      A
 Frequencies --    901.4944               925.5440               934.3475
 Red. masses --      5.1237                 1.8174                 2.2889
 Frc consts  --      2.4533                 0.9173                 1.1773
 IR Inten    --     12.8810                15.1909                 4.9326

                     22                     23                     24
                      A                      A                      A
 Frequencies --   1018.8878              1053.2152              1075.6965
 Red. masses --      1.9232                 3.0577                 1.4975
 Frc consts  --      1.1763                 1.9984                 1.0209
 IR Inten    --      3.7938                47.2671                10.5822

                     25                     26                     27
                      A                      A                      A
 Frequencies --   1078.8251              1104.9704              1119.1610
 Red. masses --      3.0459                 1.1021                 2.3062
 Frc consts  --      2.0886                 0.7928                 1.7019
 IR Inten    --     78.2134                 7.4253                79.9247

                     28                     29                     30
                      A                      A                      A
 Frequencies --   1136.6351              1155.7776              1217.7594
 Red. masses --      1.9822                 1.5296                 1.6734
 Frc consts  --      1.5088                 1.2038                 1.4621
 IR Inten    --      6.5115                10.8744                 1.4313

                     31                     32                     33
                      A                      A                      A
 Frequencies --   1240.6965              1255.8887              1285.4499
 Red. masses --      1.3929                 1.1531                 1.1860
 Frc consts  --      1.2633                 1.0716                 1.1547
 IR Inten    --     21.3759                19.1890                12.7850

                     34                     35                     36
                      A                      A                      A
 Frequencies --   1329.5856              1369.2401              1395.7389
 Red. masses --      1.2257                 1.2299                 1.5248
 Frc consts  --      1.2766                 1.3585                 1.7501
 IR Inten    --     19.8896                40.9085                13.8003

                     37                     38                     39
                      A                      A                      A
 Frequencies --   1442.3916              1470.3064              1493.5504
 Red. masses --      1.4302                 1.3933                 1.7596
 Frc consts  --      1.7531                 1.7746                 2.3126
 IR Inten    --      2.6219                15.9579                 1.7237

                     40                     41                     42
                      A                      A                      A
 Frequencies --   1507.3544              2237.1595              2939.2369
 Red. masses --      1.0890                 6.0308                 1.0816
 Frc consts  --      1.4579                17.7836                 5.5055
 IR Inten    --      6.1870                16.5709                38.2823

                     43                     44                     45
                      A                      A                      A
 Frequencies --   2990.7976              3035.0594              3137.7611
 Red. masses --      1.0549                 1.1080                 1.0819
 Frc consts  --      5.5594                 6.0136                 6.2757
 IR Inten    --     41.0099                51.4195                 5.8363

                     46                     47                     48
                      A                      A                      A
 Frequencies --   3143.3412              3160.8940              3236.0724
 Red. masses --      1.0588                 1.0883                 1.1172
 Frc consts  --      6.1638                 6.4063                 6.8929
 IR Inten    --      9.4807                 7.6411                 4.6990

                     49                     50                     51
                      A                      A                      A
 Frequencies --   3506.4371              3768.3234              3845.0292
 Red. masses --      1.1600                 1.0649                 1.0667
 Frc consts  --      8.4034                 8.9093                 9.2916
 IR Inten    --     80.4521                49.7641                36.0712

 - Thermochemistry -
 -------------------
 Temperature   298.150 Kelvin.  Pressure   1.00000 Atm.
 Atom     1 has atomic number  8 and mass  15.99491

 Molecular mass:   126.06808 amu.
 Principal axes and moments of inertia in atomic units:
                           1         2         3
     Eigenvalues --   559.382232155.950032546.47035
           X            0.99993   0.01166  -0.00119
           Y           -0.01163   0.99956   0.02718
           Z            0.00151  -0.02717   0.99963
 This molecule is an asymmetric top.
 Rotational symmetry number  1.
 Warning -- assumption of classical behavior for rotation
           may cause significant error
 Rotational temperatures (Kelvin)      0.15484     0.04017     0.03401
 Rotational constants (GHZ):           3.22631     0.83710     0.70872
 Zero-point vibrational energy     411469.5 (Joules/Mol)
                                   98.34357 (Kcal/Mol)
 Warning -- explicit consideration of  15 degrees of freedom as
           vibrations may cause significant error
 Vibrational temperatures:     91.96   123.50   162.07   237.55   319.42
          (Kelvin)            367.46   387.17   449.42   579.21   614.18
                              692.14   736.43   759.19   803.49   837.95
                              928.19  1154.58  1229.92  1297.05  1331.65
                             1344.32  1465.95  1515.34  1547.69  1552.19
                             1589.80  1610.22  1635.36  1662.90  1752.08
                             1785.08  1806.94  1849.47  1912.97  1970.03
                             2008.15  2075.28  2115.44  2148.88  2168.74
                             3218.77  4228.90  4303.09  4366.77  4514.53
                             4522.56  4547.82  4655.98  5044.97  5421.77
                             5532.13

 Zero-point correction=                           0.156720 (Hartree/Particle)
 Thermal correction to Energy=                    0.166663
 Thermal correction to Enthalpy=                  0.167608
 Thermal correction to Gibbs Free Energy=         0.121534
 Sum of electronic and zero-point Energies=           -422.970441
 Sum of electronic and thermal Energies=              -422.960498
 Sum of electronic and thermal Enthalpies=            -422.959554
 Sum of electronic and thermal Free Energies=         -423.005628

                     E (Thermal)             CV                S
                      KCal/Mol        Cal/Mol-Kelvin    Cal/Mol-Kelvin
 Total                  104.583             36.691             96.971
 Electronic               0.000              0.000              0.000
 Translational            0.889              2.981             40.409
 Rotational               0.889              2.981             29.508
 Vibrational            102.805             30.729             27.054
 Vibration     1          0.597              1.972              4.333
 Vibration     2          0.601              1.959              3.753
 Vibration     3          0.607              1.939              3.223
 Vibration     4          0.624              1.885              2.490
 Vibration     5          0.648              1.808              1.943
 Vibration     6          0.666              1.754              1.693
 Vibration     7          0.673              1.730              1.602
 Vibration     8          0.701              1.650              1.350
 Vibration     9          0.768              1.465              0.953
 Vibration    10          0.789              1.412              0.869
 Vibration    11          0.837              1.292              0.707
 Vibration    12          0.867              1.224              0.629
 Vibration    13          0.883              1.189              0.592
 Vibration    14          0.914              1.121              0.527
 Vibration    15          0.939              1.069              0.481

 Optimization completed.
    -- Stationary point found.
 Normal termination of Gaussian 09 at Tue Jan 28 09:00:17 2020.
