 Gaussian 09, Revision D.01,
 Gaussian 09:  ES64L-G09RevD.01 24-Apr-2013

 -----------------------------
 # b3lyp 6-31G(2df,p) opt Freq
 -----------------------------

 -----
 titel
 -----
 Symbolic Z-matrix:
 Charge =  0 Multiplicity = 1

 SCF Done:  E(RB3LYP) =  -423.126596372     A.U. after   14 cycles
 Optimization completed.
    -- Stationary point found.
 Normal termination of Gaussian 09 at Mon Jan 27 22:00:26 2020.

 ----------------------------------------------------------------------
 #N Geom=AllCheck Guess=TCheck SCRF=Check GenChk RB3LYP/6-31G(2df,p) Fr
 eq
 ----------------------------------------------------------------------

 Structure from the checkpoint file:  "/scratch/puck/g09_6743a114-ad39-40ee-b17c-3f31a1b84cb6/Gau-179162.chk"
 -----
 titel
 -----
 Charge =  0 Multiplicity = 1

                         Standard orientation:
 ---------------------------------------------------------------------
 Center     Atomic      Atomic             Coordinates (Angstroms)
 Number     Number       Type             X           Y           Z
 ---------------------------------------------------------------------
      1          6           0        1.450656    1.969087   -0.372680
      2          6           0        0.966498    0.611948    0.067366
      3          8           0        1.000959    0.453565    1.456424
      4          6           0        1.269722   -0.630058   -0.731108
      5          8           0        1.616978   -1.738664    0.057799
      6          6           0       -0.153461   -0.092839   -0.690909
      7          6           0       -1.244101   -0.837782    0.067236
      8          6           0       -2.515141   -0.121742    0.051166
      9          6           0       -3.558235    0.474061    0.019336
     10          1           0        1.407467    2.067102   -1.461414
     11          1           0        0.826368    2.754408    0.065349
     12          1           0        2.483166    2.132365   -0.047595
     13          1           0        1.384182   -0.419053    1.622717
     14          1           0        1.831974   -0.545856   -1.660169
     15          1           0        1.117915   -2.506629   -0.238727
     16          1           0       -0.488599    0.384997   -1.606575
     17          1           0       -1.397040   -1.839812   -0.358908
     18          1           0       -0.922577   -0.979723    1.104440
     19          1           0       -4.481983    0.996942    0.004654
 ---------------------------------------------------------------------

 SCF Done:  E(RB3LYP) =  -423.126596373     A.U. after    1 cycles

 The electronic state is 1-A.
 Alpha  occ. eigenvalues --  -19.16701 -19.13700 -10.24015 -10.23933 -10.21086
 Alpha  occ. eigenvalues --  -10.19349 -10.17783 -10.17688 -10.16585  -1.05573
 Alpha  occ. eigenvalues --   -1.01770  -0.84918  -0.77729  -0.71902  -0.69476
 Alpha  occ. eigenvalues --   -0.60613  -0.57072  -0.52899  -0.52045  -0.51325
 Alpha  occ. eigenvalues --   -0.47943  -0.45060  -0.42913  -0.42044  -0.39578
 Alpha  occ. eigenvalues --   -0.39293  -0.38271  -0.36864  -0.33908  -0.31257
 Alpha  occ. eigenvalues --   -0.28023  -0.26014  -0.25574  -0.24000
 Alpha virt. eigenvalues --    0.04693   0.05843   0.06310   0.09787   0.12205
 Alpha virt. eigenvalues --    0.12938   0.13264   0.13747   0.15473   0.16289
 Alpha virt. eigenvalues --    0.16529   0.19155   0.20001   0.20326   0.21452

 Mulliken charges:
               1
     1  C   -0.440765
     2  C    0.406695
     3  O   -0.467914
     4  C   -0.024278
     5  O   -0.429975
     6  C   -0.124377
     7  C   -0.374517
     8  C    0.298097
     9  C   -0.445293
    10  H    0.111994
    11  H    0.133331
    12  H    0.122650
    13  H    0.296108
    14  H    0.092290
    15  H    0.299888
    16  H    0.097456
    17  H    0.113551
    18  H    0.141458
    19  H    0.193603
 Sum of Mulliken charges =   0.00000

 Dipole moment (field-independent basis, Debye):
    X=              0.3194    Y=             -1.4585    Z=             -1.7360  Tot=              2.2897
 Quadrupole moment (field-independent basis, Debye-Ang):
   XX=            -53.9270   YY=            -48.2126   ZZ=            -54.0696
   XY=             -1.4074   XZ=             -1.2435   YZ=             -1.2627

  Exact polarizability:  95.410  -6.739  75.530  -0.178  -0.662  61.688
 Approx polarizability: 131.741 -19.052 109.691   3.212   0.022  95.027

                      1                      2                      3
                      A                      A                      A
 Frequencies --     30.8556               104.2456               190.3709
 Red. masses --      3.6688                 3.7245                 4.1660
 Frc consts  --      0.0021                 0.0238                 0.0890
 IR Inten    --      0.7438                 0.1714                 5.5286

                      4                      5                      6
                      A                      A                      A
 Frequencies --    200.5209               211.5354               241.0563
 Red. masses --      1.2789                 2.7856                 2.1073
 Frc consts  --      0.0303                 0.0734                 0.0721
 IR Inten    --      1.9131                 6.5324                12.2196

                      7                      8                      9
                      A                      A                      A
 Frequencies --    273.3699               292.3900               333.5122
 Red. masses --      1.7252                 2.1650                 3.1296
 Frc consts  --      0.0760                 0.1091                 0.2051
 IR Inten    --     29.1285                63.7413                 3.7008

                     10                     11                     12
                      A                      A                      A
 Frequencies --    359.5671               446.0925               480.3811
 Red. masses --      3.2478                 1.1932                 3.7001
 Frc consts  --      0.2474                 0.1399                 0.5031
 IR Inten    --      7.8819                95.1662                 5.1249

                     13                     14                     15
                      A                      A                      A
 Frequencies --    544.5444               551.5799               614.6262
 Red. masses --      3.1458                 3.3212                 1.3324
 Frc consts  --      0.5496                 0.5953                 0.2966
 IR Inten    --      6.3434                14.2303                30.6751

                     16                     17                     18
                      A                      A                      A
 Frequencies --    620.0448               641.7056               713.3280
 Red. masses --      3.1566                 1.2596                 3.5562
 Frc consts  --      0.7150                 0.3056                 1.0661
 IR Inten    --     19.9898                41.6273                 6.6013

                     19                     20                     21
                      A                      A                      A
 Frequencies --    811.4331               854.6197               944.3083
 Red. masses --      3.0816                 2.1660                 1.7782
 Frc consts  --      1.1955                 0.9321                 0.9342
 IR Inten    --     12.0742                 4.5039                 6.9774

                     22                     23                     24
                      A                      A                      A
 Frequencies --    967.7063               991.7016              1031.0183
 Red. masses --      3.2240                 1.7855                 1.7282
 Frc consts  --      1.7788                 1.0346                 1.0824
 IR Inten    --      1.3811                 3.2269                31.4721

                     25                     26                     27
                      A                      A                      A
 Frequencies --   1073.3144              1112.1613              1120.3810
 Red. masses --      1.6921                 1.7271                 2.0004
 Frc consts  --      1.1485                 1.2586                 1.4795
 IR Inten    --     16.2064                26.1756                 3.0881

                     28                     29                     30
                      A                      A                      A
 Frequencies --   1147.4000              1215.6681              1252.9699
 Red. masses --      3.5950                 1.5145                 1.2985
 Frc consts  --      2.7885                 1.3187                 1.2011
 IR Inten    --     41.1391                14.0623                18.3232

                     31                     32                     33
                      A                      A                      A
 Frequencies --   1264.2453              1301.7116              1322.0702
 Red. masses --      1.4999                 1.4401                 1.5855
 Frc consts  --      1.4125                 1.4377                 1.6328
 IR Inten    --    109.4419                12.4475                13.8031

                     34                     35                     36
                      A                      A                      A
 Frequencies --   1370.6039              1387.2953              1417.7996
 Red. masses --      1.4597                 1.3625                 1.3312
 Frc consts  --      1.6156                 1.5450                 1.5766
 IR Inten    --     24.0127                28.0113                 3.8296

                     37                     38                     39
                      A                      A                      A
 Frequencies --   1461.2752              1466.2414              1481.7731
 Red. masses --      1.4592                 1.3532                 1.1261
 Frc consts  --      1.8358                 1.7141                 1.4568
 IR Inten    --     17.7186                14.2856                 8.9267

                     40                     41                     42
                      A                      A                      A
 Frequencies --   1502.5271              2241.2322              2999.1890
 Red. masses --      1.1758                 5.9299                 1.0690
 Frc consts  --      1.5639                17.5497                 5.6654
 IR Inten    --      2.5516                 4.3220                28.7822

                     43                     44                     45
                      A                      A                      A
 Frequencies --   3036.0504              3068.9946              3106.0010
 Red. masses --      1.0348                 1.0887                 1.1018
 Frc consts  --      5.6199                 6.0418                 6.2624
 IR Inten    --     22.0009                 2.2133                18.2380

                     46                     47                     48
                      A                      A                      A
 Frequencies --   3107.5406              3113.6947              3155.6115
 Red. masses --      1.0894                 1.1002                 1.0885
 Frc consts  --      6.1982                 6.2845                 6.3865
 IR Inten    --     21.4959                25.8345                11.2307

                     49                     50                     51
                      A                      A                      A
 Frequencies --   3507.9992              3740.1259              3810.8435
 Red. masses --      1.1622                 1.0653                 1.0667
 Frc consts  --      8.4269                 8.7798                 9.1272
 IR Inten    --     67.3401                65.4193                28.1520

 - Thermochemistry -
 -------------------
 Temperature   298.150 Kelvin.  Pressure   1.00000 Atm.
 Atom     1 has atomic number  6 and mass  12.00000

 Molecular mass:   126.06808 amu.
 Principal axes and moments of inertia in atomic units:
                           1         2         3
     Eigenvalues --   739.362571637.626451953.10389
           X            0.99978   0.01902  -0.00917
           Y           -0.01934   0.99915  -0.03634
           Z            0.00848   0.03651   0.99930
 This molecule is an asymmetric top.
 Rotational symmetry number  1.
 Warning -- assumption of classical behavior for rotation
           may cause significant error
 Rotational temperatures (Kelvin)      0.11715     0.05289     0.04435
 Rotational constants (GHZ):           2.44094     1.10205     0.92404
 Zero-point vibrational energy     408137.3 (Joules/Mol)
                                   97.54716 (Kcal/Mol)
 Warning -- explicit consideration of  16 degrees of freedom as
           vibrations may cause significant error
 Vibrational temperatures:     44.39   149.99   273.90   288.50   304.35
          (Kelvin)            346.83   393.32   420.68   479.85   517.34
                              641.83   691.16   783.48   793.60   884.31
                              892.11   923.27  1026.32  1167.47  1229.61
                             1358.65  1392.31  1426.84  1483.40  1544.26
                             1600.15  1611.98  1650.85  1749.07  1802.74
                             1818.96  1872.87  1902.16  1971.99  1996.01
                             2039.89  2102.45  2109.59  2131.94  2161.80
                             3224.63  4315.16  4368.19  4415.59  4468.84
                             4471.05  4479.91  4540.22  5047.22  5381.20
                             5482.95

 Zero-point correction=                           0.155451 (Hartree/Particle)
 Thermal correction to Energy=                    0.165615
 Thermal correction to Enthalpy=                  0.166559
 Thermal correction to Gibbs Free Energy=         0.120100
 Sum of electronic and zero-point Energies=           -422.971145
 Sum of electronic and thermal Energies=              -422.960981
 Sum of electronic and thermal Enthalpies=            -422.960037
 Sum of electronic and thermal Free Energies=         -423.006497

                     E (Thermal)             CV                S
                      KCal/Mol        Cal/Mol-Kelvin    Cal/Mol-Kelvin
 Total                  103.925             37.787             97.783
 Electronic               0.000              0.000              0.000
 Translational            0.889              2.981             40.409
 Rotational               0.889              2.981             29.249
 Vibrational            102.148             31.825             28.125
 Vibration     1          0.594              1.984              5.774
 Vibration     2          0.605              1.946              3.373
 Vibration     3          0.634              1.853              2.224
 Vibration     4          0.638              1.839              2.128
 Vibration     5          0.643              1.823              2.030
 Vibration     6          0.658              1.778              1.795
 Vibration     7          0.676              1.722              1.575
 Vibration     8          0.688              1.688              1.460
 Vibration     9          0.715              1.609              1.243
 Vibration    10          0.734              1.556              1.124
 Vibration    11          0.805              1.370              0.808
 Vibration    12          0.837              1.294              0.709
 Vibration    13          0.900              1.152              0.556
 Vibration    14          0.907              1.136              0.541
 Vibration    15          0.974              1.001              0.425
 Vibration    16          0.980              0.990              0.416

 Optimization completed.
    -- Stationary point found.
 Normal termination of Gaussian 09 at Mon Jan 27 22:42:10 2020.
