 Gaussian 09, Revision D.01,
 Gaussian 09:  ES64L-G09RevD.01 24-Apr-2013

 -----------------------------
 # b3lyp 6-31G(2df,p) opt Freq
 -----------------------------

 -----
 titel
 -----
 Symbolic Z-matrix:
 Charge =  0 Multiplicity = 1

 SCF Done:  E(RB3LYP) =  -423.147424353     A.U. after   13 cycles
 Optimization completed.
    -- Stationary point found.
 Normal termination of Gaussian 09 at Mon Jan 27 11:24:12 2020.

 ----------------------------------------------------------------------
 #N Geom=AllCheck Guess=TCheck SCRF=Check GenChk RB3LYP/6-31G(2df,p) Fr
 eq
 ----------------------------------------------------------------------

 Structure from the checkpoint file:  "/scratch/puck/g09_8668814b-6aab-4f6e-9e7d-937a3b450fcb/Gau-22770.chk"
 -----
 titel
 -----
 Charge =  0 Multiplicity = 1

                         Standard orientation:
 ---------------------------------------------------------------------
 Center     Atomic      Atomic             Coordinates (Angstroms)
 Number     Number       Type             X           Y           Z
 ---------------------------------------------------------------------
      1          6           0        1.997358    0.897289    0.439336
      2          6           0        1.615563    0.019968   -0.716379
      3          8           0        1.423446   -1.331084   -0.289718
      4          6           0        0.298825   -0.914733    0.542404
      5          6           0       -1.045124   -1.386045   -0.017207
      6          6           0       -2.104999   -0.293687    0.175405
      7          8           0       -1.741018    0.898487   -0.502386
      8          6           0       -0.599274    1.517750    0.070588
      9          6           0        0.544154    0.556997    0.206421
     10          1           0        2.544877    0.474946    1.278184
     11          1           0        2.269853    1.916419    0.177288
     12          1           0        1.863812    0.198626   -1.756409
     13          1           0        0.442401   -1.218546    1.586954
     14          1           0       -0.924577   -1.566519   -1.089526
     15          1           0       -1.365122   -2.323818    0.448847
     16          1           0       -3.063093   -0.605722   -0.249125
     17          1           0       -2.264857   -0.089021    1.248718
     18          1           0       -0.342327    2.363193   -0.575675
     19          1           0       -0.859400    1.925989    1.064167
 ---------------------------------------------------------------------

 SCF Done:  E(RB3LYP) =  -423.147424353     A.U. after    1 cycles

 The electronic state is 1-A.
 Alpha  occ. eigenvalues --  -19.14038 -19.13619 -10.23935 -10.23781 -10.23485
 Alpha  occ. eigenvalues --  -10.23153 -10.19858 -10.19195 -10.18275  -1.05177
 Alpha  occ. eigenvalues --   -1.03268  -0.83854  -0.77903  -0.72976  -0.64604
 Alpha  occ. eigenvalues --   -0.61388  -0.60229  -0.53287  -0.51223  -0.50128
 Alpha  occ. eigenvalues --   -0.46615  -0.46061  -0.45689  -0.41916  -0.41103
 Alpha  occ. eigenvalues --   -0.39101  -0.37382  -0.35677  -0.35163  -0.32410
 Alpha  occ. eigenvalues --   -0.30434  -0.26922  -0.25950  -0.23079
 Alpha virt. eigenvalues --    0.07408   0.09321   0.10982   0.11252   0.12173
 Alpha virt. eigenvalues --    0.13292   0.14069   0.15334   0.16234   0.16877
 Alpha virt. eigenvalues --    0.17052   0.17631   0.18623   0.20345   0.22666

 Mulliken charges:
               1
     1  C   -0.372255
     2  C    0.054445
     3  O   -0.304126
     4  C    0.068882
     5  C   -0.224998
     6  C   -0.086311
     7  O   -0.237982
     8  C   -0.199186
     9  C    0.269347
    10  H    0.113764
    11  H    0.114112
    12  H    0.106597
    13  H    0.077551
    14  H    0.121290
    15  H    0.099151
    16  H    0.112755
    17  H    0.086333
    18  H    0.110466
    19  H    0.090163
 Sum of Mulliken charges =   0.00000

 Dipole moment (field-independent basis, Debye):
    X=             -0.2804    Y=              0.8200    Z=              0.9734  Tot=              1.3033
 Quadrupole moment (field-independent basis, Debye-Ang):
   XX=            -55.0297   YY=            -53.7786   ZZ=            -51.8812
   XY=              6.3789   XZ=             -1.9009   YZ=             -0.8743

  Exact polarizability:  83.221   7.067  75.633  -1.925  -0.261  65.642
 Approx polarizability: 111.695   5.259 109.904  -3.805   0.399 104.775

                      1                      2                      3
                      A                      A                      A
 Frequencies --    144.3185               167.4865               294.5925
 Red. masses --      2.8170                 3.1449                 2.3196
 Frc consts  --      0.0346                 0.0520                 0.1186
 IR Inten    --      1.5655                 2.7913                 0.5122

                      4                      5                      6
                      A                      A                      A
 Frequencies --    359.3212               367.4138               450.8688
 Red. masses --      1.9473                 3.1270                 2.7770
 Frc consts  --      0.1481                 0.2487                 0.3326
 IR Inten    --      4.1597                 1.5472                 0.9916

                      7                      8                      9
                      A                      A                      A
 Frequencies --    455.9585               479.5394               561.1345
 Red. masses --      4.1704                 3.8170                 2.5468
 Frc consts  --      0.5108                 0.5172                 0.4725
 IR Inten    --      1.3679                 2.9152                 7.6772

                     10                     11                     12
                      A                      A                      A
 Frequencies --    687.6483               780.8816               797.9335
 Red. masses --      3.3189                 2.4842                 2.5912
 Frc consts  --      0.9246                 0.8925                 0.9720
 IR Inten    --     11.6159                 6.4167                15.2238

                     13                     14                     15
                      A                      A                      A
 Frequencies --    875.4050               882.9416               898.8562
 Red. masses --      2.3312                 2.0545                 2.0227
 Frc consts  --      1.0526                 0.9437                 0.9629
 IR Inten    --      8.9175                 4.1701                18.3518

                     16                     17                     18
                      A                      A                      A
 Frequencies --    936.4911               981.4893               994.4077
 Red. masses --      2.6408                 2.7128                 1.7565
 Frc consts  --      1.3646                 1.5397                 1.0233
 IR Inten    --     26.0562                13.9163                 3.5768

                     19                     20                     21
                      A                      A                      A
 Frequencies --   1004.8521              1026.8306              1039.7699
 Red. masses --      1.8225                 2.2198                 2.3410
 Frc consts  --      1.0842                 1.3790                 1.4912
 IR Inten    --      1.4594                18.6534                 9.9444

                     22                     23                     24
                      A                      A                      A
 Frequencies --   1050.2548              1085.8284              1102.0998
 Red. masses --      1.8015                 1.6896                 3.1510
 Frc consts  --      1.1708                 1.1737                 2.2549
 IR Inten    --     17.8262                21.2826                21.0344

                     25                     26                     27
                      A                      A                      A
 Frequencies --   1111.0940              1134.1916              1205.7395
 Red. masses --      2.4007                 2.9426                 1.2963
 Frc consts  --      1.7462                 2.2303                 1.1103
 IR Inten    --     20.1096                78.5291                 1.8751

                     28                     29                     30
                      A                      A                      A
 Frequencies --   1230.1741              1240.9731              1293.5716
 Red. masses --      1.6142                 1.3620                 1.9297
 Frc consts  --      1.4393                 1.2358                 1.9025
 IR Inten    --     17.4944                 5.8478                18.2786

                     31                     32                     33
                      A                      A                      A
 Frequencies --   1300.8406              1309.8913              1346.4201
 Red. masses --      1.4957                 1.3965                 1.3363
 Frc consts  --      1.4912                 1.4117                 1.4273
 IR Inten    --      2.5044                 6.3900                 3.0511

                     34                     35                     36
                      A                      A                      A
 Frequencies --   1364.9910              1383.2380              1404.3010
 Red. masses --      1.3361                 1.4728                 1.4542
 Frc consts  --      1.4667                 1.6603                 1.6896
 IR Inten    --      1.6266                12.5252                 4.1569

                     37                     38                     39
                      A                      A                      A
 Frequencies --   1425.4723              1477.9576              1484.7389
 Red. masses --      1.6355                 1.1019                 1.4922
 Frc consts  --      1.9580                 1.4181                 1.9381
 IR Inten    --     20.7905                 5.8002                 1.2070

                     40                     41                     42
                      A                      A                      A
 Frequencies --   1491.0330              1500.3008              2939.6712
 Red. masses --      1.1376                 1.1048                 1.0717
 Frc consts  --      1.4902                 1.4652                 5.4566
 IR Inten    --      1.9904                 3.5015                55.6860

                     43                     44                     45
                      A                      A                      A
 Frequencies --   2955.4539              3025.6053              3050.0258
 Red. masses --      1.0712                 1.0849                 1.0608
 Frc consts  --      5.5127                 5.8516                 5.8145
 IR Inten    --     71.2675                44.9550                20.9357

                     46                     47                     48
                      A                      A                      A
 Frequencies --   3072.0524              3089.4785              3103.3333
 Red. masses --      1.0895                 1.0914                 1.1036
 Frc consts  --      6.0581                 6.1376                 6.2623
 IR Inten    --     27.6199                39.0846                23.9453

                     49                     50                     51
                      A                      A                      A
 Frequencies --   3106.0931              3178.5119              3196.6996
 Red. masses --      1.0535                 1.0954                 1.1144
 Frc consts  --      5.9887                 6.5204                 6.7099
 IR Inten    --     14.9854                16.3640                12.2187

 - Thermochemistry -
 -------------------
 Temperature   298.150 Kelvin.  Pressure   1.00000 Atm.
 Atom     1 has atomic number  6 and mass  12.00000

 Molecular mass:   126.06808 amu.
 Principal axes and moments of inertia in atomic units:
                           1         2         3
     Eigenvalues --   603.353231070.401981458.63490
           X            0.99733   0.07280  -0.00552
           Y           -0.07280   0.99735   0.00020
           Z            0.00552   0.00021   0.99998
 This molecule is an asymmetric top.
 Rotational symmetry number  1.
 Warning -- assumption of classical behavior for rotation
           may cause significant error
 Rotational temperatures (Kelvin)      0.14355     0.08092     0.05938
 Rotational constants (GHZ):           2.99119     1.68604     1.23728
 Zero-point vibrational energy     423766.2 (Joules/Mol)
                                  101.28255 (Kcal/Mol)
 Warning -- explicit consideration of   9 degrees of freedom as
           vibrations may cause significant error
 Vibrational temperatures:    207.64   240.98   423.85   516.98   528.63
          (Kelvin)            648.70   656.02   689.95   807.35   989.37
                             1123.51  1148.05  1259.51  1270.35  1293.25
                             1347.40  1412.14  1430.73  1445.76  1477.38
                             1496.00  1511.08  1562.26  1585.67  1598.61
                             1631.85  1734.79  1769.94  1785.48  1861.16
                             1871.62  1884.64  1937.20  1963.92  1990.17
                             2020.47  2050.93  2126.45  2136.21  2145.26
                             2158.60  4229.53  4252.23  4353.17  4388.30
                             4419.99  4445.06  4465.00  4468.97  4573.16
                             4599.33

 Zero-point correction=                           0.161404 (Hartree/Particle)
 Thermal correction to Energy=                    0.168511
 Thermal correction to Enthalpy=                  0.169456
 Thermal correction to Gibbs Free Energy=         0.130093
 Sum of electronic and zero-point Energies=           -422.986020
 Sum of electronic and thermal Energies=              -422.978913
 Sum of electronic and thermal Enthalpies=            -422.977969
 Sum of electronic and thermal Free Energies=         -423.017332

                     E (Thermal)             CV                S
                      KCal/Mol        Cal/Mol-Kelvin    Cal/Mol-Kelvin
 Total                  105.743             28.989             82.846
 Electronic               0.000              0.000              0.000
 Translational            0.889              2.981             40.409
 Rotational               0.889              2.981             28.334
 Vibrational            103.965             23.028             14.103
 Vibration     1          0.616              1.909              2.746
 Vibration     2          0.624              1.882              2.464
 Vibration     3          0.689              1.684              1.447
 Vibration     4          0.734              1.556              1.125
 Vibration     5          0.740              1.539              1.091
 Vibration     6          0.810              1.359              0.793
 Vibration     7          0.814              1.348              0.778
 Vibration     8          0.836              1.295              0.711
 Vibration     9          0.917              1.115              0.522

 Normal termination of Gaussian 09 at Mon Jan 27 12:56:52 2020.
