 Gaussian 09, Revision D.01,
 Gaussian 09:  ES64L-G09RevD.01 24-Apr-2013

 -----------------------------
 # b3lyp 6-31G(2df,p) opt Freq
 -----------------------------

 -----
 titel
 -----
 Symbolic Z-matrix:
 Charge =  0 Multiplicity = 1

 SCF Done:  E(RB3LYP) =  -423.231936991     A.U. after   14 cycles
 Optimization completed.
    -- Stationary point found.
 Normal termination of Gaussian 09 at Tue Jan 28 00:05:48 2020.

 ----------------------------------------------------------------------
 #N Geom=AllCheck Guess=TCheck SCRF=Check GenChk RB3LYP/6-31G(2df,p) Fr
 eq
 ----------------------------------------------------------------------

 Structure from the checkpoint file:  "/scratch/puck/g09_36559ea0-97f5-4633-8121-77eb5828909b/Gau-2890.chk"
 -----
 titel
 -----
 Charge =  0 Multiplicity = 1

                         Standard orientation:
 ---------------------------------------------------------------------
 Center     Atomic      Atomic             Coordinates (Angstroms)
 Number     Number       Type             X           Y           Z
 ---------------------------------------------------------------------
      1          6           0       -1.924789    1.462181    0.436759
      2          6           0       -0.836319    0.728959   -0.362696
      3          6           0        0.589712    0.981765    0.112943
      4          6           0        1.753534    0.713694   -0.892387
      5          6           0        2.295352   -0.406376    0.043122
      6          6           0        1.001437   -0.312023    0.878563
      7          8           0        0.037803   -1.307000    0.515794
      8          6           0       -1.004589   -0.787694   -0.194580
      9          8           0       -1.909005   -1.467632   -0.583644
     10          1           0       -1.823057    1.273739    1.510928
     11          1           0       -1.857085    2.541891    0.274697
     12          1           0       -2.916282    1.123158    0.126301
     13          1           0       -0.960800    0.957812   -1.425942
     14          1           0        0.702623    1.907819    0.678402
     15          1           0        1.401927    0.343181   -1.859174
     16          1           0        2.425999    1.554067   -1.073633
     17          1           0        2.487596   -1.384400   -0.401659
     18          1           0        3.173895   -0.097773    0.615298
     19          1           0        1.088776   -0.305483    1.967249
 ---------------------------------------------------------------------

 SCF Done:  E(RB3LYP) =  -423.231936991     A.U. after    1 cycles

 The electronic state is 1-A.
 Alpha  occ. eigenvalues --  -19.17858 -19.11851 -10.29817 -10.24738 -10.20634
 Alpha  occ. eigenvalues --  -10.20237 -10.19578 -10.19362 -10.18940  -1.09597
 Alpha  occ. eigenvalues --   -1.01787  -0.85454  -0.79272  -0.69300  -0.67625
 Alpha  occ. eigenvalues --   -0.63334  -0.58660  -0.54445  -0.51848  -0.48953
 Alpha  occ. eigenvalues --   -0.45984  -0.44600  -0.43417  -0.41485  -0.40861
 Alpha  occ. eigenvalues --   -0.40154  -0.37235  -0.36748  -0.35902  -0.34363
 Alpha  occ. eigenvalues --   -0.32109  -0.30841  -0.28405  -0.26102
 Alpha virt. eigenvalues --    0.01535   0.06892   0.09312   0.09683   0.11161
 Alpha virt. eigenvalues --    0.12551   0.13749   0.15165   0.16074   0.16934
 Alpha virt. eigenvalues --    0.17317   0.18604   0.19567   0.20217   0.20989

 Mulliken charges:
               1
     1  C   -0.410845
     2  C   -0.142067
     3  C   -0.027951
     4  C   -0.253262
     5  C   -0.234084
     6  C    0.101605
     7  O   -0.229219
     8  C    0.421148
     9  O   -0.342570
    10  H    0.123581
    11  H    0.120410
    12  H    0.144648
    13  H    0.109110
    14  H    0.078704
    15  H    0.112021
    16  H    0.108833
    17  H    0.121018
    18  H    0.109800
    19  H    0.089119
 Sum of Mulliken charges =   0.00000

 Dipole moment (field-independent basis, Debye):
    X=              2.5700    Y=              3.3140    Z=              0.6849  Tot=              4.2493
 Quadrupole moment (field-independent basis, Debye-Ang):
   XX=            -54.9531   YY=            -57.2925   ZZ=            -51.6776
   XY=             -4.7898   XZ=             -1.0889   YZ=             -0.5462

  Exact polarizability:  87.184   0.053  71.300   3.050   0.705  65.322
 Approx polarizability: 117.772   5.451 105.421   9.634   1.878 100.749

                      1                      2                      3
                      A                      A                      A
 Frequencies --     66.7316               112.4456               212.6382
 Red. masses --      2.9449                 3.6453                 2.7735
 Frc consts  --      0.0077                 0.0272                 0.0739
 IR Inten    --      1.1248                 0.0354                 0.8918

                      4                      5                      6
                      A                      A                      A
 Frequencies --    231.7029               246.5584               351.7191
 Red. masses --      1.3929                 1.6753                 3.2644
 Frc consts  --      0.0441                 0.0600                 0.2379
 IR Inten    --      0.8449                 1.9257                 2.4843

                      7                      8                      9
                      A                      A                      A
 Frequencies --    418.0717               499.9061               639.7394
 Red. masses --      3.4979                 4.4165                 3.6473
 Frc consts  --      0.3602                 0.6503                 0.8795
 IR Inten    --      0.1176                 3.1847                 2.5121

                     10                     11                     12
                      A                      A                      A
 Frequencies --    641.7096               711.8058               727.3465
 Red. masses --      5.2235                 4.0430                 1.6920
 Frc consts  --      1.2673                 1.2069                 0.5274
 IR Inten    --      5.7842                 3.8231                 2.5324

                     13                     14                     15
                      A                      A                      A
 Frequencies --    774.7074               799.8423               866.9957
 Red. masses --      1.9628                 2.5608                 2.5920
 Frc consts  --      0.6941                 0.9652                 1.1479
 IR Inten    --      2.2876                 1.1427                 4.5262

                     16                     17                     18
                      A                      A                      A
 Frequencies --    894.1852               943.2525               957.6314
 Red. masses --      2.1427                 2.3884                 2.4216
 Frc consts  --      1.0094                 1.2520                 1.3084
 IR Inten    --      2.4431                19.9282                 1.0598

                     19                     20                     21
                      A                      A                      A
 Frequencies --    991.1474              1018.6011              1042.5466
 Red. masses --      3.0049                 1.5207                 1.7500
 Frc consts  --      1.7392                 0.9296                 1.1207
 IR Inten    --      3.1020                30.4134                27.8616

                     22                     23                     24
                      A                      A                      A
 Frequencies --   1068.2753              1096.4597              1119.2801
 Red. masses --      2.7821                 1.5474                 2.9088
 Frc consts  --      1.8706                 1.0961                 2.1471
 IR Inten    --     27.1782                27.5930                19.8281

                     25                     26                     27
                      A                      A                      A
 Frequencies --   1143.8389              1189.9179              1209.2543
 Red. masses --      2.3927                 2.0754                 1.5832
 Frc consts  --      1.8445                 1.7313                 1.3641
 IR Inten    --     71.2133                65.7498                44.9363

                     28                     29                     30
                      A                      A                      A
 Frequencies --   1225.5986              1258.0140              1273.7307
 Red. masses --      1.3308                 1.3618                 1.5239
 Frc consts  --      1.1778                 1.2698                 1.4567
 IR Inten    --      0.1166                 1.8959                 8.8599

                     31                     32                     33
                      A                      A                      A
 Frequencies --   1290.7932              1296.2241              1312.4577
 Red. masses --      1.5540                 1.5579                 1.4766
 Frc consts  --      1.5255                 1.5422                 1.4986
 IR Inten    --     19.5942                 3.8832                 3.5218

                     34                     35                     36
                      A                      A                      A
 Frequencies --   1351.5601              1373.1159              1406.9557
 Red. masses --      1.5621                 1.4154                 1.2190
 Frc consts  --      1.6813                 1.5723                 1.4217
 IR Inten    --      0.0956                16.9895                 2.8912

                     37                     38                     39
                      A                      A                      A
 Frequencies --   1469.4075              1491.1648              1496.1572
 Red. masses --      1.0896                 1.1082                 1.0493
 Frc consts  --      1.3861                 1.4519                 1.3840
 IR Inten    --      1.3481                 2.7259                 4.8319

                     40                     41                     42
                      A                      A                      A
 Frequencies --   1500.9044              1874.7949              3037.7082
 Red. masses --      1.0490                12.7810                 1.0358
 Frc consts  --      1.3923                26.4680                 5.6315
 IR Inten    --      5.1261               346.9585                18.2437

                     43                     44                     45
                      A                      A                      A
 Frequencies --   3060.2310              3065.0574              3068.5738
 Red. masses --      1.0815                 1.0611                 1.0643
 Frc consts  --      5.9674                 5.8733                 5.9046
 IR Inten    --      2.5382                31.0767                23.5826

                     46                     47                     48
                      A                      A                      A
 Frequencies --   3083.0993              3097.8665              3107.7075
 Red. masses --      1.0853                 1.0903                 1.1013
 Frc consts  --      6.0785                 6.1650                 6.2667
 IR Inten    --     32.7979                18.3628                25.6694

                     49                     50                     51
                      A                      A                      A
 Frequencies --   3116.6332              3126.0648              3133.1301
 Red. masses --      1.1045                 1.1020                 1.1067
 Frc consts  --      6.3208                 6.3447                 6.4010
 IR Inten    --      8.5827                12.6140                33.9278

 - Thermochemistry -
 -------------------
 Temperature   298.150 Kelvin.  Pressure   1.00000 Atm.
 Atom     1 has atomic number  6 and mass  12.00000

 Molecular mass:   126.06808 amu.
 Principal axes and moments of inertia in atomic units:
                           1         2         3
     Eigenvalues --   666.085181176.491271507.26135
           X            0.99769  -0.06587  -0.01660
           Y            0.06596   0.99781   0.00495
           Z            0.01624  -0.00604   0.99985
 This molecule is an asymmetric top.
 Rotational symmetry number  1.
 Warning -- assumption of classical behavior for rotation
           may cause significant error
 Rotational temperatures (Kelvin)      0.13003     0.07362     0.05746
 Rotational constants (GHZ):           2.70948     1.53400     1.19736
 Zero-point vibrational energy     421643.3 (Joules/Mol)
                                  100.77518 (Kcal/Mol)
 Warning -- explicit consideration of   8 degrees of freedom as
           vibrations may cause significant error
 Vibrational temperatures:     96.01   161.78   305.94   333.37   354.74
          (Kelvin)            506.04   601.51   719.25   920.44   923.28
                             1024.13  1046.49  1114.63  1150.79  1247.41
                             1286.53  1357.13  1377.82  1426.04  1465.54
                             1499.99  1537.01  1577.56  1610.39  1645.73
                             1712.02  1739.85  1763.36  1810.00  1832.61
                             1857.16  1864.98  1888.33  1944.59  1975.61
                             2024.29  2114.15  2145.45  2152.63  2159.46
                             2697.41  4370.58  4402.98  4409.93  4414.99
                             4435.89  4457.13  4471.29  4484.13  4497.70
                             4507.87

 Zero-point correction=                           0.160595 (Hartree/Particle)
 Thermal correction to Energy=                    0.168574
 Thermal correction to Enthalpy=                  0.169518
 Thermal correction to Gibbs Free Energy=         0.127713
 Sum of electronic and zero-point Energies=           -423.071342
 Sum of electronic and thermal Energies=              -423.063363
 Sum of electronic and thermal Enthalpies=            -423.062419
 Sum of electronic and thermal Free Energies=         -423.104224

                     E (Thermal)             CV                S
                      KCal/Mol        Cal/Mol-Kelvin    Cal/Mol-Kelvin
 Total                  105.782             30.481             87.985
 Electronic               0.000              0.000              0.000
 Translational            0.889              2.981             40.409
 Rotational               0.889              2.981             28.559
 Vibrational            104.004             24.519             19.018
 Vibration     1          0.598              1.970              4.248
 Vibration     2          0.607              1.939              3.226
 Vibration     3          0.644              1.822              2.021
 Vibration     4          0.653              1.792              1.866
 Vibration     5          0.661              1.768              1.755
 Vibration     6          0.728              1.572              1.158
 Vibration     7          0.781              1.431              0.899
 Vibration     8          0.855              1.250              0.658

 Optimization completed.
    -- Stationary point found.
 Normal termination of Gaussian 09 at Tue Jan 28 00:52:49 2020.
