 Gaussian 09, Revision D.01,
 Gaussian 09:  ES64L-G09RevD.01 24-Apr-2013

 -----------------------------
 # b3lyp 6-31G(2df,p) opt Freq
 -----------------------------

 -----
 titel
 -----
 Symbolic Z-matrix:
 Charge =  0 Multiplicity = 1

 SCF Done:  E(RB3LYP) =  -423.128790728     A.U. after   14 cycles
 Optimization completed.
    -- Stationary point found.
 Normal termination of Gaussian 09 at Mon Jan 27 18:37:06 2020.

 ----------------------------------------------------------------------
 #N Geom=AllCheck Guess=TCheck SCRF=Check GenChk RB3LYP/6-31G(2df,p) Fr
 eq
 ----------------------------------------------------------------------

 Structure from the checkpoint file:  "/scratch/puck/g09_f5497acc-8954-44ab-8e3b-ff0a3c57842e/Gau-43113.chk"
 -----
 titel
 -----
 Charge =  0 Multiplicity = 1

                         Standard orientation:
 ---------------------------------------------------------------------
 Center     Atomic      Atomic             Coordinates (Angstroms)
 Number     Number       Type             X           Y           Z
 ---------------------------------------------------------------------
      1          6           0        1.584031   -1.198249   -1.022816
      2          6           0        0.843958   -0.420489    0.030949
      3          6           0        0.033372   -1.138350    1.146790
      4          6           0       -1.113959   -0.109509    0.939267
      5          6           0       -2.114599   -0.363917   -0.219261
      6          8           0       -1.352857    0.475507   -1.140875
      7          6           0       -0.322858    0.592326   -0.184029
      8          6           0        0.686368    1.695061    0.043202
      9          8           0        1.617739    0.704535    0.559631
     10          1           0        2.437993   -1.723479   -0.579691
     11          1           0        0.929053   -1.943863   -1.484723
     12          1           0        1.962330   -0.535967   -1.806994
     13          1           0       -0.231686   -2.178289    0.930651
     14          1           0        0.516576   -1.088401    2.125033
     15          1           0       -1.516602    0.416692    1.804574
     16          1           0       -2.179500   -1.399446   -0.574466
     17          1           0       -3.122860    0.035535   -0.073404
     18          1           0        1.061776    2.166357   -0.875847
     19          1           0        0.445985    2.469284    0.780211
 ---------------------------------------------------------------------

 SCF Done:  E(RB3LYP) =  -423.128790728     A.U. after    1 cycles

 The electronic state is 1-A.
 Alpha  occ. eigenvalues --  -19.14419 -19.13552 -10.23994 -10.23617 -10.23161
 Alpha  occ. eigenvalues --  -10.23009 -10.19480 -10.18593 -10.17731  -1.05781
 Alpha  occ. eigenvalues --   -1.02821  -0.81749  -0.74107  -0.71806  -0.67703
 Alpha  occ. eigenvalues --   -0.62578  -0.59285  -0.51484  -0.49515  -0.48951
 Alpha  occ. eigenvalues --   -0.47567  -0.44405  -0.43990  -0.41630  -0.40621
 Alpha  occ. eigenvalues --   -0.39674  -0.38459  -0.35436  -0.33540  -0.32927
 Alpha  occ. eigenvalues --   -0.30364  -0.29189  -0.24626  -0.23687
 Alpha virt. eigenvalues --    0.06290   0.08557   0.09358   0.10707   0.11580
 Alpha virt. eigenvalues --    0.12783   0.13817   0.15609   0.15870   0.16568
 Alpha virt. eigenvalues --    0.17330   0.18069   0.18519   0.20519   0.22984

 Mulliken charges:
               1
     1  C   -0.473498
     2  C    0.373412
     3  C   -0.297360
     4  C   -0.130056
     5  C   -0.109699
     6  O   -0.326575
     7  C    0.379608
     8  C   -0.182882
     9  O   -0.335466
    10  H    0.127795
    11  H    0.120016
    12  H    0.126366
    13  H    0.097781
    14  H    0.114916
    15  H    0.080101
    16  H    0.106066
    17  H    0.114664
    18  H    0.108674
    19  H    0.106138
 Sum of Mulliken charges =   0.00000

 Dipole moment (field-independent basis, Debye):
    X=             -1.1368    Y=             -0.8431    Z=              0.6476  Tot=              1.5565
 Quadrupole moment (field-independent basis, Debye-Ang):
   XX=            -54.3944   YY=            -50.2596   ZZ=            -55.0899
   XY=              0.0873   XZ=             -4.1352   YZ=              0.7610

  Exact polarizability:  79.248   1.004  77.413  -2.433   0.024  67.099
 Approx polarizability: 109.979   2.078 110.785   1.221  -1.865 101.347

                      1                      2                      3
                      A                      A                      A
 Frequencies --    112.3533               178.4833               199.5299
 Red. masses --      2.6308                 1.6203                 1.5862
 Frc consts  --      0.0196                 0.0304                 0.0372
 IR Inten    --      0.6039                 0.7896                 1.0262

                      4                      5                      6
                      A                      A                      A
 Frequencies --    240.3518               331.3383               347.8097
 Red. masses --      2.4429                 2.5204                 2.6561
 Frc consts  --      0.0831                 0.1630                 0.1893
 IR Inten    --      4.8618                 2.3213                 2.2634

                      7                      8                      9
                      A                      A                      A
 Frequencies --    386.6789               480.2648               523.8238
 Red. masses --      2.4917                 2.6153                 4.2500
 Frc consts  --      0.2195                 0.3554                 0.6871
 IR Inten    --      3.7846                 3.2464                 1.0755

                     10                     11                     12
                      A                      A                      A
 Frequencies --    609.5214               697.0998               783.0044
 Red. masses --      3.8893                 3.0599                 2.8246
 Frc consts  --      0.8513                 0.8761                 1.0203
 IR Inten    --      3.5582                 2.7043                 3.9985

                     13                     14                     15
                      A                      A                      A
 Frequencies --    810.9120               837.1212               868.0448
 Red. masses --      2.7338                 2.7259                 2.2892
 Frc consts  --      1.0592                 1.1255                 1.0163
 IR Inten    --      6.1711                 8.3815                 2.6719

                     16                     17                     18
                      A                      A                      A
 Frequencies --    897.7186               920.8554               964.8875
 Red. masses --      1.6796                 1.8956                 6.0517
 Frc consts  --      0.7975                 0.9471                 3.3196
 IR Inten    --     12.7767                 6.2557                72.7228

                     19                     20                     21
                      A                      A                      A
 Frequencies --    970.3795               991.1131              1025.8222
 Red. masses --      4.3762                 1.8270                 1.8593
 Frc consts  --      2.4279                 1.0574                 1.1528
 IR Inten    --     44.9577                26.5540                 7.4547

                     22                     23                     24
                      A                      A                      A
 Frequencies --   1067.3920              1124.8998              1137.1405
 Red. masses --      2.9295                 1.5981                 1.7414
 Frc consts  --      1.9665                 1.1914                 1.3267
 IR Inten    --      9.9879                 8.1389                17.3099

                     25                     26                     27
                      A                      A                      A
 Frequencies --   1138.3300              1161.1450              1177.4454
 Red. masses --      1.7129                 1.2303                 2.0402
 Frc consts  --      1.3077                 0.9773                 1.6665
 IR Inten    --      1.7424                 4.1856                18.4518

                     28                     29                     30
                      A                      A                      A
 Frequencies --   1191.1102              1226.6407              1233.8244
 Red. masses --      1.5539                 1.9124                 2.2097
 Frc consts  --      1.2989                 1.6954                 1.9819
 IR Inten    --     10.4403                 9.1436                29.6391

                     31                     32                     33
                      A                      A                      A
 Frequencies --   1284.9534              1305.8124              1314.4768
 Red. masses --      2.0703                 1.8597                 2.0161
 Frc consts  --      2.0140                 1.8683                 2.0525
 IR Inten    --     23.3230                 8.5658                 7.5430

                     34                     35                     36
                      A                      A                      A
 Frequencies --   1347.9513              1368.6161              1408.3072
 Red. masses --      1.7185                 2.1985                 1.3489
 Frc consts  --      1.8397                 2.4263                 1.5762
 IR Inten    --      1.0600                35.3922                 8.0675

                     37                     38                     39
                      A                      A                      A
 Frequencies --   1461.2964              1480.1108              1486.0877
 Red. masses --      1.1131                 1.0574                 1.0499
 Frc consts  --      1.4004                 1.3648                 1.3661
 IR Inten    --      4.2151                 4.7283                 3.8201

                     40                     41                     42
                      A                      A                      A
 Frequencies --   1514.4816              1519.2260              3005.1301
 Red. masses --      1.1043                 1.1307                 1.0601
 Frc consts  --      1.4923                 1.5376                 5.6404
 IR Inten    --      1.7329                 1.6546                69.6309

                     43                     44                     45
                      A                      A                      A
 Frequencies --   3026.2832              3031.3402              3050.1653
 Red. masses --      1.0575                 1.0363                 1.0608
 Frc consts  --      5.7064                 5.6103                 5.8148
 IR Inten    --     57.8710                14.6948                32.1255

                     46                     47                     48
                      A                      A                      A
 Frequencies --   3065.8536              3081.6486              3098.5754
 Red. masses --      1.1044                 1.1086                 1.0997
 Frc consts  --      6.1164                 6.2027                 6.2209
 IR Inten    --     36.9816                25.6892                12.6759

                     49                     50                     51
                      A                      A                      A
 Frequencies --   3108.0677              3113.3353              3119.3066
 Red. masses --      1.0955                 1.1009                 1.1001
 Frc consts  --      6.2349                 6.2873                 6.3064
 IR Inten    --     19.4661                22.3123                32.1676

 - Thermochemistry -
 -------------------
 Temperature   298.150 Kelvin.  Pressure   1.00000 Atm.
 Atom     1 has atomic number  6 and mass  12.00000

 Molecular mass:   126.06808 amu.
 Principal axes and moments of inertia in atomic units:
                           1         2         3
     Eigenvalues --   694.573201058.857021171.27934
           X            0.99846  -0.00889  -0.05479
           Y            0.01263   0.99759   0.06828
           Z            0.05405  -0.06887   0.99616
 This molecule is an asymmetric top.
 Rotational symmetry number  1.
 Warning -- assumption of classical behavior for rotation
           may cause significant error
 Rotational temperatures (Kelvin)      0.12470     0.08180     0.07395
 Rotational constants (GHZ):           2.59835     1.70442     1.54083
 Zero-point vibrational energy     417652.6 (Joules/Mol)
                                   99.82137 (Kcal/Mol)
 Warning -- explicit consideration of  10 degrees of freedom as
           vibrations may cause significant error
 Vibrational temperatures:    161.65   256.80   287.08   345.81   476.72
          (Kelvin)            500.42   556.34   690.99   753.66   876.96
                             1002.97  1126.57  1166.72  1204.43  1248.92
                             1291.62  1324.90  1388.26  1396.16  1425.99
                             1475.93  1535.74  1618.48  1636.09  1637.80
                             1670.63  1694.08  1713.74  1764.86  1775.20
                             1848.76  1878.77  1891.24  1939.40  1969.13
                             2026.24  2102.48  2129.55  2138.15  2179.00
                             2185.82  4323.71  4354.14  4361.42  4388.50
                             4411.07  4433.80  4458.15  4471.81  4479.39
                             4487.98

 Zero-point correction=                           0.159075 (Hartree/Particle)
 Thermal correction to Energy=                    0.166870
 Thermal correction to Enthalpy=                  0.167814
 Thermal correction to Gibbs Free Energy=         0.127081
 Sum of electronic and zero-point Energies=           -422.969715
 Sum of electronic and thermal Energies=              -422.961921
 Sum of electronic and thermal Enthalpies=            -422.960977
 Sum of electronic and thermal Free Energies=         -423.001709

                     E (Thermal)             CV                S
                      KCal/Mol        Cal/Mol-Kelvin    Cal/Mol-Kelvin
 Total                  104.712             30.684             85.729
 Electronic               0.000              0.000              0.000
 Translational            0.889              2.981             40.409
 Rotational               0.889              2.981             28.245
 Vibrational            102.935             24.722             17.075
 Vibration     1          0.607              1.939              3.228
 Vibration     2          0.629              1.869              2.344
 Vibration     3          0.638              1.841              2.137
 Vibration     4          0.657              1.779              1.800
 Vibration     5          0.714              1.613              1.254
 Vibration     6          0.725              1.580              1.176
 Vibration     7          0.755              1.499              1.013
 Vibration     8          0.837              1.294              0.709
 Vibration     9          0.879              1.197              0.601
 Vibration    10          0.968              1.012              0.434

 Normal termination of Gaussian 09 at Mon Jan 27 19:33:32 2020.
