 Gaussian 09, Revision D.01,
 Gaussian 09:  ES64L-G09RevD.01 24-Apr-2013

 -----------------------------
 # b3lyp 6-31G(2df,p) opt Freq
 -----------------------------

 -----
 titel
 -----
 Symbolic Z-matrix:
 Charge =  0 Multiplicity = 1

 SCF Done:  E(RB3LYP) =  -423.211806117     A.U. after   14 cycles
 Optimization completed.
    -- Stationary point found.
 Normal termination of Gaussian 09 at Mon Jan 27 10:22:22 2020.

 ----------------------------------------------------------------------
 #N Geom=AllCheck Guess=TCheck SCRF=Check GenChk RB3LYP/6-31G(2df,p) Fr
 eq
 ----------------------------------------------------------------------

 Structure from the checkpoint file:  "/scratch/puck/g09_1f960558-f6f5-4ea2-b4ae-38825de7d496/Gau-19677.chk"
 -----
 titel
 -----
 Charge =  0 Multiplicity = 1

                         Standard orientation:
 ---------------------------------------------------------------------
 Center     Atomic      Atomic             Coordinates (Angstroms)
 Number     Number       Type             X           Y           Z
 ---------------------------------------------------------------------
      1          6           0        2.447429   -1.333521   -0.575113
      2          6           0        1.928203   -0.502158    0.610534
      3          6           0        0.768379    0.385010    0.262325
      4          6           0        0.779875    1.740090    0.146605
      5          8           0       -0.447535    2.218416   -0.188314
      6          6           0       -1.267484    1.139795   -0.294822
      7          6           0       -0.591310   -0.011238   -0.032358
      8          6           0       -1.173691   -1.394607   -0.032881
      9          8           0       -2.586823   -1.397429    0.100886
     10          1           0        2.778166   -0.683075   -1.390466
     11          1           0        3.292388   -1.959652   -0.271631
     12          1           0        1.669150   -1.992619   -0.972640
     13          1           0        1.642918   -1.180269    1.425670
     14          1           0        2.743606    0.115722    1.003163
     15          1           0        1.552932    2.480185    0.278065
     16          1           0       -2.290603    1.344282   -0.561213
     17          1           0       -0.973870   -1.904516   -0.983179
     18          1           0       -0.693320   -2.002753    0.751384
     19          1           0       -2.794914   -0.925418    0.914537
 ---------------------------------------------------------------------

 SCF Done:  E(RB3LYP) =  -423.211806117     A.U. after    1 cycles

 The electronic state is 1-A.
 Alpha  occ. eigenvalues --  -19.19870 -19.13790 -10.23518 -10.22190 -10.22168
 Alpha  occ. eigenvalues --  -10.19281 -10.18316 -10.18088 -10.17900  -1.10149
 Alpha  occ. eigenvalues --   -1.01930  -0.81878  -0.76429  -0.73027  -0.68562
 Alpha  occ. eigenvalues --   -0.63407  -0.56596  -0.56188  -0.52092  -0.48093
 Alpha  occ. eigenvalues --   -0.45331  -0.44890  -0.43444  -0.42670  -0.41836
 Alpha  occ. eigenvalues --   -0.41013  -0.38030  -0.36654  -0.35008  -0.34228
 Alpha  occ. eigenvalues --   -0.32943  -0.27903  -0.25438  -0.21952
 Alpha virt. eigenvalues --    0.02019   0.06210   0.08354   0.08839   0.12241
 Alpha virt. eigenvalues --    0.13776   0.14328   0.15084   0.15673   0.16703
 Alpha virt. eigenvalues --    0.17469   0.18205   0.18880   0.22211   0.23928

 Mulliken charges:
               1
     1  C   -0.371228
     2  C   -0.305115
     3  C    0.149300
     4  C   -0.103239
     5  O   -0.147587
     6  C   -0.095280
     7  C    0.106297
     8  C   -0.169776
     9  O   -0.412044
    10  H    0.122636
    11  H    0.113563
    12  H    0.122791
    13  H    0.105718
    14  H    0.104828
    15  H    0.133532
    16  H    0.143261
    17  H    0.125976
    18  H    0.095079
    19  H    0.281287
 Sum of Mulliken charges =   0.00000

 Dipole moment (field-independent basis, Debye):
    X=              1.2583    Y=             -0.0905    Z=              1.0621  Tot=              1.6491
 Quadrupole moment (field-independent basis, Debye-Ang):
   XX=            -52.2877   YY=            -55.4525   ZZ=            -52.8911
   XY=             -2.0721   XZ=             -1.9348   YZ=             -0.5588

  Exact polarizability:  90.679  -2.105  86.916   3.942  -0.711  54.773
 Approx polarizability: 128.372  -2.706 137.013   8.924  -3.577  84.667

                      1                      2                      3
                      A                      A                      A
 Frequencies --     57.7368                79.7323               144.4073
 Red. masses --      2.3934                 2.7929                 3.2721
 Frc consts  --      0.0047                 0.0105                 0.0402
 IR Inten    --      0.3022                 2.5554                 0.4226

                      4                      5                      6
                      A                      A                      A
 Frequencies --    169.9000               212.6799               249.4689
 Red. masses --      2.5691                 1.5957                 2.0113
 Frc consts  --      0.0437                 0.0425                 0.0737
 IR Inten    --      1.6438                 1.3061                 4.8167

                      7                      8                      9
                      A                      A                      A
 Frequencies --    299.0123               357.8592               403.1190
 Red. masses --      2.4124                 1.2324                 3.5890
 Frc consts  --      0.1271                 0.0930                 0.3436
 IR Inten    --      1.0971               116.4105                 9.0068

                     10                     11                     12
                      A                      A                      A
 Frequencies --    485.7031               607.1764               624.9166
 Red. masses --      3.7347                 3.8081                 4.1284
 Frc consts  --      0.5191                 0.8272                 0.9499
 IR Inten    --      2.9225                 1.5505                 6.5403

                     13                     14                     15
                      A                      A                      A
 Frequencies --    674.3812               738.1666               765.4850
 Red. masses --      2.3737                 2.2756                 2.2573
 Frc consts  --      0.6360                 0.7306                 0.7793
 IR Inten    --      4.1620                10.2882                 3.9910

                     16                     17                     18
                      A                      A                      A
 Frequencies --    784.0140               789.2171               900.1428
 Red. masses --      1.2614                 1.2646                 4.2734
 Frc consts  --      0.4568                 0.4641                 2.0401
 IR Inten    --     19.0199                14.2834                25.6763

                     19                     20                     21
                      A                      A                      A
 Frequencies --    966.9400               995.0435              1059.6373
 Red. masses --      2.2539                 1.5736                 4.2426
 Frc consts  --      1.2416                 0.9180                 2.8067
 IR Inten    --     10.2053                27.2520                65.1748

                     22                     23                     24
                      A                      A                      A
 Frequencies --   1067.4726              1086.0850              1088.8463
 Red. masses --      2.0508                 2.0877                 2.0435
 Frc consts  --      1.3768                 1.4509                 1.4275
 IR Inten    --     16.2331                19.3492                12.3733

                     25                     26                     27
                      A                      A                      A
 Frequencies --   1168.7175              1185.9108              1211.2844
 Red. masses --      3.4355                 4.8000                 1.1844
 Frc consts  --      2.7648                 3.9774                 1.0239
 IR Inten    --      6.1201                 3.4540                21.2615

                     28                     29                     30
                      A                      A                      A
 Frequencies --   1243.1016              1283.3617              1302.5687
 Red. masses --      1.2820                 1.3247                 1.8654
 Frc consts  --      1.1672                 1.2855                 1.8648
 IR Inten    --      8.6269                 0.6859                11.0898

                     31                     32                     33
                      A                      A                      A
 Frequencies --   1357.8285              1362.3708              1404.8546
 Red. masses --      1.7210                 1.4894                 1.5012
 Frc consts  --      1.8695                 1.6287                 1.7457
 IR Inten    --      0.7298                 5.0267                31.9774

                     34                     35                     36
                      A                      A                      A
 Frequencies --   1407.8795              1434.2609              1481.5754
 Red. masses --      1.2227                 1.8178                 1.0659
 Frc consts  --      1.4279                 2.2031                 1.3786
 IR Inten    --      2.0712                29.1584                 1.8769

                     37                     38                     39
                      A                      A                      A
 Frequencies --   1495.9561              1501.7022              1507.7824
 Red. masses --      1.0436                 1.0823                 1.0792
 Frc consts  --      1.3760                 1.4380                 1.4456
 IR Inten    --      3.5677                 1.1467                 2.3612

                     40                     41                     42
                      A                      A                      A
 Frequencies --   1575.1486              1645.2583              2966.1043
 Red. masses --      4.9126                 6.6825                 1.0720
 Frc consts  --      7.1814                10.6576                 5.5568
 IR Inten    --     13.5855                 0.4415                56.0082

                     43                     44                     45
                      A                      A                      A
 Frequencies --   3017.5499              3036.9340              3043.6636
 Red. masses --      1.0643                 1.0354                 1.0875
 Frc consts  --      5.7100                 5.6263                 5.9355
 IR Inten    --     28.3303                20.4814                30.7682

                     46                     47                     48
                      A                      A                      A
 Frequencies --   3060.3825              3107.3134              3112.5989
 Red. masses --      1.0969                 1.1014                 1.1026
 Frc consts  --      6.0530                 6.2658                 6.2935
 IR Inten    --     12.8491                40.2156                30.9326

                     49                     50                     51
                      A                      A                      A
 Frequencies --   3266.3679              3284.9885              3804.7581
 Red. masses --      1.0969                 1.0982                 1.0659
 Frc consts  --      6.8952                 6.9823                 9.0911
 IR Inten    --      0.8892                 0.0111                15.4283

 - Thermochemistry -
 -------------------
 Temperature   298.150 Kelvin.  Pressure   1.00000 Atm.
 Atom     1 has atomic number  6 and mass  12.00000

 Molecular mass:   126.06808 amu.
 Principal axes and moments of inertia in atomic units:
                           1         2         3
     Eigenvalues --   917.625621250.789612024.66229
           X            0.99717  -0.07504  -0.00552
           Y            0.07507   0.99716   0.00610
           Z            0.00505  -0.00650   0.99997
 This molecule is an asymmetric top.
 Rotational symmetry number  1.
 Warning -- assumption of classical behavior for rotation
           may cause significant error
 Rotational temperatures (Kelvin)      0.09439     0.06925     0.04278
 Rotational constants (GHZ):           1.96675     1.44288     0.89138
 Zero-point vibrational energy     417959.5 (Joules/Mol)
                                   99.89471 (Kcal/Mol)
 Warning -- explicit consideration of  11 degrees of freedom as
           vibrations may cause significant error
 Vibrational temperatures:     83.07   114.72   207.77   244.45   306.00
          (Kelvin)            358.93   430.21   514.88   580.00   698.82
                              873.59   899.11   970.28  1062.06  1101.36
                             1128.02  1135.51  1295.10  1391.21  1431.64
                             1524.58  1535.85  1562.63  1566.60  1681.52
                             1706.26  1742.77  1788.54  1846.47  1874.10
                             1953.61  1960.15  2021.27  2025.62  2063.58
                             2131.65  2152.34  2160.61  2169.36  2266.28
                             2367.16  4267.56  4341.58  4369.47  4379.15
                             4403.20  4470.73  4478.33  4699.57  4726.36
                             5474.19

 Zero-point correction=                           0.159192 (Hartree/Particle)
 Thermal correction to Energy=                    0.168400
 Thermal correction to Enthalpy=                  0.169344
 Thermal correction to Gibbs Free Energy=         0.124528
 Sum of electronic and zero-point Energies=           -423.052614
 Sum of electronic and thermal Energies=              -423.043406
 Sum of electronic and thermal Enthalpies=            -423.042462
 Sum of electronic and thermal Free Energies=         -423.087278

                     E (Thermal)             CV                S
                      KCal/Mol        Cal/Mol-Kelvin    Cal/Mol-Kelvin
 Total                  105.673             33.515             94.324
 Electronic               0.000              0.000              0.000
 Translational            0.889              2.981             40.409
 Rotational               0.889              2.981             29.231
 Vibrational            103.895             27.553             24.684
 Vibration     1          0.596              1.974              4.533
 Vibration     2          0.600              1.963              3.897
 Vibration     3          0.616              1.909              2.745
 Vibration     4          0.625              1.880              2.437
 Vibration     5          0.644              1.822              2.021
 Vibration     6          0.662              1.764              1.734
 Vibration     7          0.692              1.676              1.422
 Vibration     8          0.733              1.559              1.131
 Vibration     9          0.769              1.463              0.951
 Vibration    10          0.842              1.282              0.695
 Vibration    11          0.966              1.017              0.437

 Optimization completed.
    -- Stationary point found.
 Normal termination of Gaussian 09 at Mon Jan 27 11:06:21 2020.
