 Gaussian 09, Revision D.01,
 Gaussian 09:  ES64L-G09RevD.01 24-Apr-2013

 -----------------------------
 # b3lyp 6-31G(2df,p) opt Freq
 -----------------------------

 -----
 titel
 -----
 Symbolic Z-matrix:
 Charge =  0 Multiplicity = 1

 SCF Done:  E(RB3LYP) =  -423.097685929     A.U. after   13 cycles
 Optimization completed.
    -- Stationary point found.
 Normal termination of Gaussian 09 at Mon Jan 27 17:59:48 2020.

 ----------------------------------------------------------------------
 #N Geom=AllCheck Guess=TCheck SCRF=Check GenChk RB3LYP/6-31G(2df,p) Fr
 eq
 ----------------------------------------------------------------------

 Structure from the checkpoint file:  "/scratch/puck/g09_2a860866-4fb4-45b3-91cf-6f169dad68e7/Gau-64177.chk"
 -----
 titel
 -----
 Charge =  0 Multiplicity = 1

                         Standard orientation:
 ---------------------------------------------------------------------
 Center     Atomic      Atomic             Coordinates (Angstroms)
 Number     Number       Type             X           Y           Z
 ---------------------------------------------------------------------
      1          6           0       -2.392759   -0.610371   -0.258863
      2          6           0       -0.918751   -0.464712   -0.083665
      3          8           0       -0.000011   -1.178159   -0.968902
      4          6           0        0.918740   -0.464730   -0.083659
      5          6           0        2.392746   -0.610408   -0.258857
      6          6           0       -0.000011   -0.608022    1.169602
      7          8           0        0.000004    0.813565    1.479120
      8          6           0        0.000008    0.807744    0.015377
      9          6           0        0.000031    2.093257   -0.741583
     10          1           0       -2.701534   -0.268715   -1.251725
     11          1           0       -2.696736   -1.655335   -0.144234
     12          1           0       -2.911107   -0.010349    0.495409
     13          1           0        2.701597   -0.268373   -1.251565
     14          1           0        2.911100   -0.010726    0.495681
     15          1           0        2.696638   -1.655442   -0.144635
     16          1           0       -0.000025   -1.328912    1.987510
     17          1           0       -0.000055    1.883642   -1.815866
     18          1           0       -0.887246    2.687258   -0.501148
     19          1           0        0.887405    2.687162   -0.501272
 ---------------------------------------------------------------------

 SCF Done:  E(RB3LYP) =  -423.097685929     A.U. after    1 cycles

 The electronic state is 1-A.
 Alpha  occ. eigenvalues --  -19.13189 -19.12920 -10.24480 -10.24477 -10.24364
 Alpha  occ. eigenvalues --  -10.23835 -10.18813 -10.18710 -10.18710  -1.08635
 Alpha  occ. eigenvalues --   -1.00819  -0.76273  -0.76246  -0.74370  -0.71611
 Alpha  occ. eigenvalues --   -0.62230  -0.57835  -0.49002  -0.48298  -0.47610
 Alpha  occ. eigenvalues --   -0.46152  -0.43551  -0.43383  -0.41320  -0.41007
 Alpha  occ. eigenvalues --   -0.40967  -0.38535  -0.38133  -0.35286  -0.34855
 Alpha  occ. eigenvalues --   -0.30227  -0.28291  -0.23502  -0.23426
 Alpha virt. eigenvalues --    0.07274   0.09258   0.10537   0.11569   0.12712
 Alpha virt. eigenvalues --    0.13398   0.13968   0.14675   0.14819   0.15728
 Alpha virt. eigenvalues --    0.15846   0.17651   0.18817   0.18839   0.22305

 Mulliken charges:
               1
     1  C   -0.538613
     2  C    0.379864
     3  O   -0.378837
     4  C    0.379865
     5  C   -0.538613
     6  C   -0.053348
     7  O   -0.362978
     8  C    0.327892
     9  C   -0.541182
    10  H    0.134217
    11  H    0.136727
    12  H    0.139574
    13  H    0.134212
    14  H    0.139575
    15  H    0.136731
    16  H    0.093968
    17  H    0.139010
    18  H    0.135970
    19  H    0.135968
 Sum of Mulliken charges =   0.00000

 Dipole moment (field-independent basis, Debye):
    X=              0.0000    Y=              0.2708    Z=             -0.3516  Tot=              0.4438
 Quadrupole moment (field-independent basis, Debye-Ang):
   XX=            -47.8725   YY=            -53.2896   ZZ=            -56.3832
   XY=             -0.0001   XZ=              0.0000   YZ=             -5.8694

  Exact polarizability:  84.231   0.000  75.141   0.000  -4.005  68.368
 Approx polarizability: 110.681   0.000 110.822   0.000   0.408 109.450

                      1                      2                      3
                      A                      A                      A
 Frequencies --    171.3204               185.9413               196.1082
 Red. masses --      2.4988                 2.3440                 1.3310
 Frc consts  --      0.0432                 0.0477                 0.0302
 IR Inten    --      0.2470                 0.4404                 1.0611

                      4                      5                      6
                      A                      A                      A
 Frequencies --    198.7332               203.1568               212.8270
 Red. masses --      1.0554                 1.0102                 1.9417
 Frc consts  --      0.0246                 0.0246                 0.0518
 IR Inten    --      0.0796                 0.0168                 1.3751

                      7                      8                      9
                      A                      A                      A
 Frequencies --    260.9454               264.1282               434.5594
 Red. masses --      2.8382                 3.5066                 2.4890
 Frc consts  --      0.1139                 0.1441                 0.2769
 IR Inten    --      2.4431                 0.7502                 1.6643

                     10                     11                     12
                      A                      A                      A
 Frequencies --    529.0613               559.7355               597.9257
 Red. masses --      4.4363                 4.6287                 3.7651
 Frc consts  --      0.7316                 0.8544                 0.7931
 IR Inten    --     10.0801                16.8115                 0.1251

                     13                     14                     15
                      A                      A                      A
 Frequencies --    689.2087               723.6528               744.4961
 Red. masses --      3.3725                 2.7474                 3.4195
 Frc consts  --      0.9438                 0.8477                 1.1167
 IR Inten    --      0.1502                 0.3630                 0.0169

                     16                     17                     18
                      A                      A                      A
 Frequencies --    763.2613               769.5631               801.6445
 Red. masses --      2.8483                 3.6281                 4.0220
 Frc consts  --      0.9776                 1.2660                 1.5228
 IR Inten    --      0.6568                29.1800                15.9686

                     19                     20                     21
                      A                      A                      A
 Frequencies --    859.5467               924.2744               953.4411
 Red. masses --      3.2994                 2.2801                 3.0635
 Frc consts  --      1.4362                 1.1476                 1.6408
 IR Inten    --      0.4462                23.4471                19.2334

                     22                     23                     24
                      A                      A                      A
 Frequencies --   1045.2872              1073.9388              1099.0132
 Red. masses --      1.4771                 1.9937                 1.8026
 Frc consts  --      0.9509                 1.3548                 1.2828
 IR Inten    --      1.1822                10.1567                16.1673

                     25                     26                     27
                      A                      A                      A
 Frequencies --   1104.8671              1112.0936              1164.5463
 Red. masses --      1.6649                 1.7786                 2.5020
 Frc consts  --      1.1975                 1.2960                 1.9992
 IR Inten    --      1.1031                14.0172                 6.3162

                     28                     29                     30
                      A                      A                      A
 Frequencies --   1204.4179              1249.4734              1274.7379
 Red. masses --      3.0377                 2.0363                 3.3696
 Frc consts  --      2.5963                 1.8731                 3.2261
 IR Inten    --     67.5600                 2.3870                27.9113

                     31                     32                     33
                      A                      A                      A
 Frequencies --   1324.4441              1389.5221              1404.8446
 Red. masses --      3.0831                 1.2610                 1.4056
 Frc consts  --      3.1864                 1.4345                 1.6345
 IR Inten    --      8.6232                 0.2642                18.4773

                     34                     35                     36
                      A                      A                      A
 Frequencies --   1405.8119              1463.9102              1473.9815
 Red. masses --      1.6001                 4.7049                 1.0479
 Frc consts  --      1.8632                 5.9405                 1.3414
 IR Inten    --     10.5484                 2.1544                 2.6175

                     37                     38                     39
                      A                      A                      A
 Frequencies --   1475.7462              1476.2738              1488.2111
 Red. masses --      1.0443                 1.0519                 1.0470
 Frc consts  --      1.3400                 1.3507                 1.3663
 IR Inten    --      1.3263                 8.9520                 3.5355

                     40                     41                     42
                      A                      A                      A
 Frequencies --   1488.9321              1496.0197              3037.2274
 Red. masses --      1.0531                 1.1278                 1.0344
 Frc consts  --      1.3755                 1.4871                 5.6218
 IR Inten    --      9.1535                 1.6149                15.1767

                     43                     44                     45
                      A                      A                      A
 Frequencies --   3038.7194              3039.2352              3109.0759
 Red. masses --      1.0344                 1.0343                 1.1016
 Frc consts  --      5.6276                 5.6288                 6.2739
 IR Inten    --     28.8324                 3.0339                11.2726

                     46                     47                     48
                      A                      A                      A
 Frequencies --   3110.4407              3110.6553              3114.9378
 Red. masses --      1.1014                 1.1017                 1.1008
 Frc consts  --      6.2785                 6.2809                 6.2930
 IR Inten    --     24.2477                 0.5768                 5.4552

                     49                     50                     51
                      A                      A                      A
 Frequencies --   3116.9361              3117.0706              3121.0632
 Red. masses --      1.1011                 1.1008                 1.0938
 Frc consts  --      6.3026                 6.3017                 6.2774
 IR Inten    --      0.0022                23.5546                40.4716

 - Thermochemistry -
 -------------------
 Temperature   298.150 Kelvin.  Pressure   1.00000 Atm.
 Atom     1 has atomic number  6 and mass  12.00000

 Molecular mass:   126.06808 amu.
 Principal axes and moments of inertia in atomic units:
                           1         2         3
     Eigenvalues --   798.353031038.657191228.84951
           X            1.00000   0.00000   0.00000
           Y            0.00000   0.98959  -0.14394
           Z            0.00000   0.14394   0.98959
 This molecule is an asymmetric top.
 Rotational symmetry number  1.
 Warning -- assumption of classical behavior for rotation
           may cause significant error
 Rotational temperatures (Kelvin)      0.10849     0.08339     0.07048
 Rotational constants (GHZ):           2.26058     1.73757     1.46864
 Zero-point vibrational energy     407776.8 (Joules/Mol)
                                   97.46101 (Kcal/Mol)
 Warning -- explicit consideration of  12 degrees of freedom as
           vibrations may cause significant error
 Vibrational temperatures:    246.49   267.53   282.16   285.93   292.30
          (Kelvin)            306.21   375.44   380.02   625.23   761.20
                              805.33   860.28   991.62  1041.17  1071.16
                             1098.16  1107.23  1153.39  1236.69  1329.82
                             1371.79  1503.93  1545.16  1581.23  1589.66
                             1600.05  1675.52  1732.89  1797.71  1834.06
                             1905.58  1999.21  2021.26  2022.65  2106.24
                             2120.73  2123.27  2124.03  2141.20  2142.24
                             2152.44  4369.89  4372.03  4372.78  4473.26
                             4475.22  4475.53  4481.70  4484.57  4484.76
                             4490.51

 Zero-point correction=                           0.155314 (Hartree/Particle)
 Thermal correction to Energy=                    0.164318
 Thermal correction to Enthalpy=                  0.165262
 Thermal correction to Gibbs Free Energy=         0.122388
 Sum of electronic and zero-point Energies=           -422.942372
 Sum of electronic and thermal Energies=              -422.933368
 Sum of electronic and thermal Enthalpies=            -422.932424
 Sum of electronic and thermal Free Energies=         -422.975298

                     E (Thermal)             CV                S
                      KCal/Mol        Cal/Mol-Kelvin    Cal/Mol-Kelvin
 Total                  103.111             34.405             90.237
 Electronic               0.000              0.000              0.000
 Translational            0.889              2.981             40.409
 Rotational               0.889              2.981             28.412
 Vibrational            101.334             28.443             21.416
 Vibration     1          0.626              1.878              2.421
 Vibration     2          0.632              1.859              2.268
 Vibration     3          0.636              1.845              2.169
 Vibration     4          0.637              1.842              2.145
 Vibration     5          0.639              1.835              2.104
 Vibration     6          0.644              1.821              2.019
 Vibration     7          0.669              1.744              1.655
 Vibration     8          0.671              1.739              1.634
 Vibration     9          0.795              1.395              0.844
 Vibration    10          0.884              1.186              0.589
 Vibration    11          0.915              1.118              0.524
 Vibration    12          0.956              1.036              0.453

 Normal termination of Gaussian 09 at Mon Jan 27 18:41:19 2020.
