 Gaussian 09, Revision D.01,
 Gaussian 09:  ES64L-G09RevD.01 24-Apr-2013

 -----------------------------
 # b3lyp 6-31G(2df,p) opt Freq
 -----------------------------

 -----
 titel
 -----
 Symbolic Z-matrix:
 Charge =  0 Multiplicity = 1

 SCF Done:  E(RB3LYP) =  -423.167861338     A.U. after   14 cycles
 Optimization completed.
    -- Stationary point found.
 Normal termination of Gaussian 09 at Tue Jan 28 03:59:01 2020.

 ----------------------------------------------------------------------
 #N Geom=AllCheck Guess=TCheck SCRF=Check GenChk RB3LYP/6-31G(2df,p) Fr
 eq
 ----------------------------------------------------------------------

 Structure from the checkpoint file:  "/scratch/puck/g09_adbc7178-232f-4b76-b1d8-2188487e5df0/Gau-14277.chk"
 -----
 titel
 -----
 Charge =  0 Multiplicity = 1

                         Standard orientation:
 ---------------------------------------------------------------------
 Center     Atomic      Atomic             Coordinates (Angstroms)
 Number     Number       Type             X           Y           Z
 ---------------------------------------------------------------------
      1          8           0       -0.186136    2.035092    0.088418
      2          6           0       -0.627246    0.805361   -0.449641
      3          6           0       -2.040325    0.464765    0.061796
      4          6           0       -2.016533   -1.043507    0.108296
      5          6           0       -0.777305   -1.528675    0.011952
      6          6           0        0.244183   -0.437396   -0.090698
      7          6           0        1.243256   -0.203643    1.075006
      8          8           0        2.319230    0.027570    0.136221
      9          6           0        1.538031   -0.565474   -0.924518
     10          1           0        0.729156    2.168118   -0.185197
     11          1           0       -0.660830    0.861866   -1.550342
     12          1           0       -2.189476    0.897663    1.060014
     13          1           0       -2.828331    0.871156   -0.580350
     14          1           0       -2.912735   -1.641026    0.233951
     15          1           0       -0.505978   -2.578506    0.051177
     16          1           0        1.056959    0.660672    1.717390
     17          1           0        1.423064   -1.099011    1.685397
     18          1           0        1.593839    0.011330   -1.856579
     19          1           0        1.845223   -1.602149   -1.125725
 ---------------------------------------------------------------------

 SCF Done:  E(RB3LYP) =  -423.167861338     A.U. after    1 cycles

 The electronic state is 1-A.
 Alpha  occ. eigenvalues --  -19.13984 -19.13588 -10.23563 -10.23137 -10.22666
 Alpha  occ. eigenvalues --  -10.19832 -10.18972 -10.18580 -10.18492  -1.04142
 Alpha  occ. eigenvalues --   -1.02049  -0.84474  -0.73646  -0.70540  -0.68976
 Alpha  occ. eigenvalues --   -0.62249  -0.55581  -0.54937  -0.51777  -0.50213
 Alpha  occ. eigenvalues --   -0.48044  -0.43959  -0.43332  -0.41132  -0.40616
 Alpha  occ. eigenvalues --   -0.38539  -0.37175  -0.36906  -0.34753  -0.31354
 Alpha  occ. eigenvalues --   -0.30723  -0.27136  -0.25022  -0.24611
 Alpha virt. eigenvalues --    0.00901   0.06839   0.08029   0.11912   0.12108
 Alpha virt. eigenvalues --    0.13111   0.14003   0.14985   0.15858   0.16983
 Alpha virt. eigenvalues --    0.17339   0.19581   0.19700   0.20729   0.21421

 Mulliken charges:
               1
     1  O   -0.436432
     2  C    0.083799
     3  C   -0.283812
     4  C   -0.075453
     5  C   -0.163781
     6  C    0.236350
     7  C   -0.129423
     8  O   -0.286843
     9  C   -0.145043
    10  H    0.291877
    11  H    0.072041
    12  H    0.122493
    13  H    0.109354
    14  H    0.099180
    15  H    0.096893
    16  H    0.119927
    17  H    0.093770
    18  H    0.099346
    19  H    0.095758
 Sum of Mulliken charges =   0.00000

 Dipole moment (field-independent basis, Debye):
    X=             -1.0483    Y=             -1.2467    Z=             -0.7022  Tot=              1.7738
 Quadrupole moment (field-independent basis, Debye-Ang):
   XX=            -56.1890   YY=            -53.6750   ZZ=            -51.7111
   XY=              1.3463   XZ=             -1.0376   YZ=             -1.3659

  Exact polarizability:  89.061  -2.568  74.817  -1.952   0.141  64.435
 Approx polarizability: 130.296  -6.418 109.533  -3.088   2.132  98.085

                      1                      2                      3
                      A                      A                      A
 Frequencies --     83.5455               101.6617               224.8902
 Red. masses --      4.2155                 3.4390                 2.4099
 Frc consts  --      0.0173                 0.0209                 0.0718
 IR Inten    --     12.2266                 3.2128                 0.2100

                      4                      5                      6
                      A                      A                      A
 Frequencies --    271.2827               318.1783               380.3225
 Red. masses --      2.7991                 2.9363                 1.3325
 Frc consts  --      0.1214                 0.1751                 0.1136
 IR Inten    --      6.1597                 4.0720                89.1433

                      7                      8                      9
                      A                      A                      A
 Frequencies --    429.9076               455.4524               482.6061
 Red. masses --      2.2098                 2.7565                 2.5439
 Frc consts  --      0.2406                 0.3369                 0.3491
 IR Inten    --     19.3079                 4.6516                 3.0775

                     10                     11                     12
                      A                      A                      A
 Frequencies --    561.2430               659.6260               754.9119
 Red. masses --      4.0388                 3.4020                 1.3563
 Frc consts  --      0.7496                 0.8721                 0.4554
 IR Inten    --      5.7584                 1.5913                31.4506

                     13                     14                     15
                      A                      A                      A
 Frequencies --    770.0323               817.9559               889.1235
 Red. masses --      3.7354                 3.3259                 2.3186
 Frc consts  --      1.3050                 1.3110                 1.0799
 IR Inten    --      3.4433                11.9208                 7.5691

                     16                     17                     18
                      A                      A                      A
 Frequencies --    952.9831               962.4750               976.7238
 Red. masses --      2.0702                 1.4478                 1.3198
 Frc consts  --      1.1077                 0.7902                 0.7418
 IR Inten    --      7.8869                 1.2204                 1.4284

                     19                     20                     21
                      A                      A                      A
 Frequencies --    989.3599               994.2778              1016.2145
 Red. masses --      2.0812                 3.8850                 4.3126
 Frc consts  --      1.2003                 2.2629                 2.6240
 IR Inten    --      1.4615                17.3943                61.4024

                     22                     23                     24
                      A                      A                      A
 Frequencies --   1018.0046              1065.6713              1108.3724
 Red. masses --      3.3345                 2.8745                 2.1714
 Frc consts  --      2.0360                 1.9233                 1.5716
 IR Inten    --     25.1005                14.1879                46.3407

                     25                     26                     27
                      A                      A                      A
 Frequencies --   1130.9404              1153.4240              1176.2835
 Red. masses --      1.4083                 1.0876                 1.3640
 Frc consts  --      1.0613                 0.8525                 1.1119
 IR Inten    --     10.4274                 0.4549                 5.2418

                     28                     29                     30
                      A                      A                      A
 Frequencies --   1178.4286              1211.4954              1252.3785
 Red. masses --      1.4751                 2.9199                 2.0319
 Frc consts  --      1.2070                 2.5250                 1.8777
 IR Inten    --      7.5000                 2.9525                 3.3050

                     31                     32                     33
                      A                      A                      A
 Frequencies --   1283.5727              1298.1667              1307.9268
 Red. masses --      1.2067                 1.2628                 1.4885
 Frc consts  --      1.1714                 1.2538                 1.5002
 IR Inten    --     45.7663                 2.8473                11.3446

                     34                     35                     36
                      A                      A                      A
 Frequencies --   1340.3937              1369.6866              1385.0978
 Red. masses --      1.3893                 1.6144                 1.5326
 Frc consts  --      1.4707                 1.7845                 1.7323
 IR Inten    --     17.2285                 1.9274                13.8927

                     37                     38                     39
                      A                      A                      A
 Frequencies --   1436.1916              1487.4507              1504.7100
 Red. masses --      1.6120                 1.1025                 1.0777
 Frc consts  --      1.9591                 1.4372                 1.4376
 IR Inten    --      6.2135                 2.5611                 0.6856

                     40                     41                     42
                      A                      A                      A
 Frequencies --   1531.5293              1675.5118              2957.9800
 Red. masses --      1.1129                 6.4519                 1.0833
 Frc consts  --      1.5380                10.6717                 5.5847
 IR Inten    --      1.1319                 1.2575                45.0105

                     43                     44                     45
                      A                      A                      A
 Frequencies --   2990.0404              3011.4724              3026.1395
 Red. masses --      1.0576                 1.0655                 1.0648
 Frc consts  --      5.5707                 5.6935                 5.7449
 IR Inten    --     84.1328                50.2851                22.0427

                     46                     47                     48
                      A                      A                      A
 Frequencies --   3044.5938              3073.5331              3100.4676
 Red. masses --      1.1066                 1.0972                 1.1002
 Frc consts  --      6.0436                 6.1066                 6.2312
 IR Inten    --     40.9831                26.8261                18.6055

                     49                     50                     51
                      A                      A                      A
 Frequencies --   3177.2764              3203.5705              3792.7190
 Red. masses --      1.0853                 1.1030                 1.0661
 Frc consts  --      6.4550                 6.6693                 9.0351
 IR Inten    --      5.4317                22.1815                24.6857

 - Thermochemistry -
 -------------------
 Temperature   298.150 Kelvin.  Pressure   1.00000 Atm.
 Atom     1 has atomic number  8 and mass  15.99491

 Molecular mass:   126.06808 amu.
 Principal axes and moments of inertia in atomic units:
                           1         2         3
     Eigenvalues --   667.400451137.691211506.42381
           X            0.99995  -0.00844  -0.00549
           Y            0.00840   0.99994  -0.00701
           Z            0.00555   0.00696   0.99996
 This molecule is an asymmetric top.
 Rotational symmetry number  1.
 Warning -- assumption of classical behavior for rotation
           may cause significant error
 Rotational temperatures (Kelvin)      0.12978     0.07613     0.05750
 Rotational constants (GHZ):           2.70414     1.58632     1.19803
 Zero-point vibrational energy     421000.6 (Joules/Mol)
                                  100.62156 (Kcal/Mol)
 Warning -- explicit consideration of  10 degrees of freedom as
           vibrations may cause significant error
 Vibrational temperatures:    120.20   146.27   323.57   390.31   457.79
          (Kelvin)            547.20   618.54   655.29   694.36   807.50
                              949.05  1086.15  1107.90  1176.85  1279.25
                             1371.13  1384.79  1405.29  1423.47  1430.54
                             1462.10  1464.68  1533.26  1594.70  1627.17
                             1659.52  1692.41  1695.49  1743.07  1801.89
                             1846.77  1867.77  1881.81  1928.53  1970.67
                             1992.84  2066.36  2140.11  2164.94  2203.53
                             2410.68  4255.87  4302.00  4332.83  4353.93
                             4380.49  4422.12  4460.88  4571.39  4609.22
                             5456.87

 Zero-point correction=                           0.160351 (Hartree/Particle)
 Thermal correction to Energy=                    0.168304
 Thermal correction to Enthalpy=                  0.169249
 Thermal correction to Gibbs Free Energy=         0.127740
 Sum of electronic and zero-point Energies=           -423.007511
 Sum of electronic and thermal Energies=              -422.999557
 Sum of electronic and thermal Enthalpies=            -422.998613
 Sum of electronic and thermal Free Energies=         -423.040121

                     E (Thermal)             CV                S
                      KCal/Mol        Cal/Mol-Kelvin    Cal/Mol-Kelvin
 Total                  105.613             30.976             87.363
 Electronic               0.000              0.000              0.000
 Translational            0.889              2.981             40.409
 Rotational               0.889              2.981             28.527
 Vibrational            103.835             25.014             18.427
 Vibration     1          0.600              1.961              3.806
 Vibration     2          0.604              1.948              3.422
 Vibration     3          0.650              1.803              1.919
 Vibration     4          0.675              1.726              1.588
 Vibration     5          0.705              1.639              1.319
 Vibration     6          0.750              1.512              1.038
 Vibration     7          0.791              1.405              0.859
 Vibration     8          0.814              1.349              0.779
 Vibration     9          0.839              1.289              0.703
 Vibration    10          0.917              1.115              0.521

 Normal termination of Gaussian 09 at Tue Jan 28 04:47:04 2020.
