 Gaussian 09, Revision D.01,
 Gaussian 09:  ES64L-G09RevD.01 24-Apr-2013

 -----------------------------
 # b3lyp 6-31G(2df,p) opt Freq
 -----------------------------

 -----
 titel
 -----
 Symbolic Z-matrix:
 Charge =  0 Multiplicity = 1

 SCF Done:  E(RB3LYP) =  -423.207257717     A.U. after   14 cycles
 Optimization completed.
    -- Stationary point found.
 Normal termination of Gaussian 09 at Tue Jan 28 08:20:58 2020.

 ----------------------------------------------------------------------
 #N Geom=AllCheck Guess=TCheck SCRF=Check GenChk RB3LYP/6-31G(2df,p) Fr
 eq
 ----------------------------------------------------------------------

 Structure from the checkpoint file:  "/scratch/puck/g09_4c6b0f15-261b-4797-b6f6-fe24317c1c92/Gau-59910.chk"
 -----
 titel
 -----
 Charge =  0 Multiplicity = 1

                         Standard orientation:
 ---------------------------------------------------------------------
 Center     Atomic      Atomic             Coordinates (Angstroms)
 Number     Number       Type             X           Y           Z
 ---------------------------------------------------------------------
      1          6           0        2.989105   -0.774742    0.492242
      2          6           0        1.517183   -0.842102    0.095386
      3          6           0        0.934266    0.508373   -0.268297
      4          8           0        1.574004    1.534514   -0.272283
      5          6           0       -0.566638    0.561371   -0.619054
      6          8           0       -1.111145   -0.720683   -0.911489
      7          6           0       -2.208797   -1.010265   -0.042177
      8          6           0       -2.296546    0.173976    0.878060
      9          6           0       -1.375146    1.071216    0.548263
     10          1           0        3.132249   -0.128227    1.362152
     11          1           0        3.369993   -1.770728    0.734614
     12          1           0        3.592964   -0.361299   -0.319681
     13          1           0        1.349994   -1.512191   -0.757046
     14          1           0        0.897783   -1.265175    0.898050
     15          1           0       -0.655254    1.222328   -1.495009
     16          1           0       -3.126056   -1.151354   -0.634758
     17          1           0       -2.019005   -1.953582    0.491813
     18          1           0       -3.026352    0.253409    1.673460
     19          1           0       -1.179746    2.029210    1.010041
 ---------------------------------------------------------------------

 SCF Done:  E(RB3LYP) =  -423.207257717     A.U. after    1 cycles

 The electronic state is 1-A.
 Alpha  occ. eigenvalues --  -19.14823 -19.12880 -10.26491 -10.24296 -10.24155
 Alpha  occ. eigenvalues --  -10.19933 -10.19840 -10.18855 -10.17300  -1.05003
 Alpha  occ. eigenvalues --   -1.03591  -0.79923  -0.77949  -0.75119  -0.65678
 Alpha  occ. eigenvalues --   -0.61683  -0.57518  -0.52831  -0.51480  -0.48492
 Alpha  occ. eigenvalues --   -0.46171  -0.45587  -0.43302  -0.42079  -0.41657
 Alpha  occ. eigenvalues --   -0.38430  -0.36921  -0.36211  -0.35711  -0.34376
 Alpha  occ. eigenvalues --   -0.32891  -0.28936  -0.27255  -0.22637
 Alpha virt. eigenvalues --   -0.01814   0.01633   0.09084   0.10828   0.12004
 Alpha virt. eigenvalues --    0.13659   0.14599   0.15479   0.16045   0.16339
 Alpha virt. eigenvalues --    0.16946   0.17916   0.18473   0.19510   0.21902

 Mulliken charges:
               1
     1  C   -0.381723
     2  C   -0.276018
     3  C    0.346799
     4  O   -0.313618
     5  C   -0.005338
     6  O   -0.270625
     7  C   -0.118780
     8  C   -0.095930
     9  C   -0.089516
    10  H    0.127801
    11  H    0.108914
    12  H    0.131378
    13  H    0.138922
    14  H    0.122683
    15  H    0.110988
    16  H    0.112573
    17  H    0.110562
    18  H    0.113828
    19  H    0.127099
 Sum of Mulliken charges =   0.00000

 Dipole moment (field-independent basis, Debye):
    X=             -2.0486    Y=             -1.4217    Z=              1.2209  Tot=              2.7764
 Quadrupole moment (field-independent basis, Debye-Ang):
   XX=            -51.4959   YY=            -55.1224   ZZ=            -52.5902
   XY=             -3.7499   XZ=             -2.0546   YZ=             -0.3532

  Exact polarizability:  92.541   8.526  77.955  -4.716  -1.292  61.699
 Approx polarizability: 120.876  23.691 125.324  -9.992  -3.650  94.765

                      1                      2                      3
                      A                      A                      A
 Frequencies --     41.7513                72.9982                89.0314
 Red. masses --      4.7196                 2.0515                 2.3520
 Frc consts  --      0.0048                 0.0064                 0.0110
 IR Inten    --      3.5656                 1.0993                 0.3731

                      4                      5                      6
                      A                      A                      A
 Frequencies --    171.7508               199.6092               224.3126
 Red. masses --      2.5321                 1.6731                 2.3938
 Frc consts  --      0.0440                 0.0393                 0.0710
 IR Inten    --      2.1553                 2.2925                 0.6590

                      7                      8                      9
                      A                      A                      A
 Frequencies --    289.1445               392.8579               443.1141
 Red. masses --      3.9999                 2.8094                 6.7630
 Frc consts  --      0.1970                 0.2555                 0.7824
 IR Inten    --     16.5805                 0.7792                 1.9242

                     10                     11                     12
                      A                      A                      A
 Frequencies --    525.8325               633.4603               713.6351
 Red. masses --      2.5031                 2.2745                 1.7883
 Frc consts  --      0.4078                 0.5377                 0.5366
 IR Inten    --      2.8139                 2.7271                27.0774

                     13                     14                     15
                      A                      A                      A
 Frequencies --    749.5117               774.6325               820.5557
 Red. masses --      1.7264                 6.2784                 3.6994
 Frc consts  --      0.5714                 2.2197                 1.4676
 IR Inten    --     19.5843                 6.7895                13.5477

                     16                     17                     18
                      A                      A                      A
 Frequencies --    826.8611               929.4444               951.3313
 Red. masses --      2.0617                 2.0042                 3.2457
 Frc consts  --      0.8305                 1.0201                 1.7307
 IR Inten    --     12.2575                 0.2759                12.2013

                     19                     20                     21
                      A                      A                      A
 Frequencies --    962.9343               991.7604              1005.6384
 Red. masses --      1.2625                 2.4333                 1.8545
 Frc consts  --      0.6897                 1.4101                 1.1050
 IR Inten    --      0.7555                 8.5832                 1.9577

                     22                     23                     24
                      A                      A                      A
 Frequencies --   1045.6765              1077.3661              1083.2130
 Red. masses --      1.6451                 2.1301                 1.8456
 Frc consts  --      1.0599                 1.4567                 1.2759
 IR Inten    --      5.8442                 4.3192                 1.3554

                     25                     26                     27
                      A                      A                      A
 Frequencies --   1112.5263              1116.3740              1172.7089
 Red. masses --      2.7768                 1.6658                 2.6965
 Frc consts  --      2.0250                 1.2232                 2.1849
 IR Inten    --     94.9317                55.1273                36.2019

                     28                     29                     30
                      A                      A                      A
 Frequencies --   1198.5594              1247.7388              1277.4395
 Red. masses --      1.1056                 1.3688                 1.2669
 Frc consts  --      0.9358                 1.2556                 1.2181
 IR Inten    --      1.1003                 0.4478                 0.7751

                     31                     32                     33
                      A                      A                      A
 Frequencies --   1319.3335              1336.1668              1370.2146
 Red. masses --      1.2451                 1.6272                 1.8520
 Frc consts  --      1.2769                 1.7117                 2.0486
 IR Inten    --      4.5049                 1.4837                21.6415

                     34                     35                     36
                      A                      A                      A
 Frequencies --   1383.8327              1414.7653              1439.2099
 Red. masses --      1.5505                 1.2269                 1.0860
 Frc consts  --      1.7494                 1.4469                 1.3254
 IR Inten    --      4.1949                 3.5245                11.7168

                     37                     38                     39
                      A                      A                      A
 Frequencies --   1494.2736              1498.3401              1520.4116
 Red. masses --      1.0382                 1.0505                 1.0858
 Frc consts  --      1.3658                 1.3896                 1.4788
 IR Inten    --      5.1800                 6.7991                 0.7717

                     40                     41                     42
                      A                      A                      A
 Frequencies --   1685.1876              1807.2336              2980.9344
 Red. masses --      6.4724                11.6168                 1.0592
 Frc consts  --     10.8296                22.3546                 5.5456
 IR Inten    --      0.5068               146.9739                94.7636

                     43                     44                     45
                      A                      A                      A
 Frequencies --   2988.4159              3001.8192              3029.7593
 Red. masses --      1.0806                 1.1047                 1.0652
 Frc consts  --      5.6861                 5.8650                 5.7609
 IR Inten    --     20.1929                41.3250                15.8710

                     46                     47                     48
                      A                      A                      A
 Frequencies --   3050.3408              3060.2696              3121.2547
 Red. masses --      1.0353                 1.0933                 1.1020
 Frc consts  --      5.6756                 6.0326                 6.3256
 IR Inten    --     23.1623                 3.6028                20.6104

                     49                     50                     51
                      A                      A                      A
 Frequencies --   3125.0489              3215.8355              3244.1546
 Red. masses --      1.1015                 1.0872                 1.1054
 Frc consts  --      6.3379                 6.6243                 6.8543
 IR Inten    --     20.2540                 1.5384                 3.9097

 - Thermochemistry -
 -------------------
 Temperature   298.150 Kelvin.  Pressure   1.00000 Atm.
 Atom     1 has atomic number  6 and mass  12.00000

 Molecular mass:   126.06808 amu.
 Principal axes and moments of inertia in atomic units:
                           1         2         3
     Eigenvalues --   568.357351648.496741885.41769
           X            0.99971  -0.02399   0.00341
           Y            0.02404   0.99958  -0.01591
           Z           -0.00303   0.01599   0.99987
 This molecule is an asymmetric top.
 Rotational symmetry number  1.
 Warning -- assumption of classical behavior for rotation
           may cause significant error
 Rotational temperatures (Kelvin)      0.15239     0.05254     0.04594
 Rotational constants (GHZ):           3.17536     1.09478     0.95721
 Zero-point vibrational energy     414078.8 (Joules/Mol)
                                   98.96721 (Kcal/Mol)
 Warning -- explicit consideration of  10 degrees of freedom as
           vibrations may cause significant error
 Vibrational temperatures:     60.07   105.03   128.10   247.11   287.19
          (Kelvin)            322.74   416.01   565.23   637.54   756.55
                              911.41  1026.76  1078.38  1114.52  1180.60
                             1189.67  1337.26  1368.75  1385.45  1426.92
                             1446.89  1504.49  1550.09  1558.50  1600.68
                             1606.21  1687.26  1724.46  1795.22  1837.95
                             1898.22  1922.44  1971.43  1991.02  2035.53
                             2070.70  2149.92  2155.77  2187.53  2424.61
                             2600.20  4288.89  4299.66  4318.94  4359.14
                             4388.75  4403.04  4490.78  4496.24  4626.86
                             4667.61

 Zero-point correction=                           0.157714 (Hartree/Particle)
 Thermal correction to Energy=                    0.166904
 Thermal correction to Enthalpy=                  0.167848
 Thermal correction to Gibbs Free Energy=         0.122531
 Sum of electronic and zero-point Energies=           -423.049543
 Sum of electronic and thermal Energies=              -423.040354
 Sum of electronic and thermal Enthalpies=            -423.039410
 Sum of electronic and thermal Free Energies=         -423.084727

                     E (Thermal)             CV                S
                      KCal/Mol        Cal/Mol-Kelvin    Cal/Mol-Kelvin
 Total                  104.734             32.831             95.378
 Electronic               0.000              0.000              0.000
 Translational            0.889              2.981             40.409
 Rotational               0.889              2.981             28.959
 Vibrational            102.956             26.870             26.011
 Vibration     1          0.594              1.980              5.174
 Vibration     2          0.599              1.967              4.071
 Vibration     3          0.602              1.957              3.681
 Vibration     4          0.626              1.877              2.416
 Vibration     5          0.638              1.840              2.137
 Vibration     6          0.649              1.804              1.924
 Vibration     7          0.686              1.694              1.479
 Vibration     8          0.760              1.485              0.989
 Vibration     9          0.803              1.376              0.817
 Vibration    10          0.881              1.193              0.597

 Optimization completed.
    -- Stationary point found.
 Normal termination of Gaussian 09 at Tue Jan 28 10:13:07 2020.
