 Gaussian 09, Revision D.01,
 Gaussian 09:  ES64L-G09RevD.01 24-Apr-2013

 -----------------------------
 # b3lyp 6-31G(2df,p) opt Freq
 -----------------------------

 -----
 titel
 -----
 Symbolic Z-matrix:
 Charge =  0 Multiplicity = 1

 SCF Done:  E(RB3LYP) =  -423.203417218     A.U. after   14 cycles
 Optimization completed.
    -- Stationary point found.
 Normal termination of Gaussian 09 at Tue Jan 28 14:09:47 2020.

 ----------------------------------------------------------------------
 #N Geom=AllCheck Guess=TCheck SCRF=Check GenChk RB3LYP/6-31G(2df,p) Fr
 eq
 ----------------------------------------------------------------------

 Structure from the checkpoint file:  "/scratch/puck/g09_6dd6e693-d052-4e36-829a-030b89120079/Gau-3898.chk"
 -----
 titel
 -----
 Charge =  0 Multiplicity = 1

                         Standard orientation:
 ---------------------------------------------------------------------
 Center     Atomic      Atomic             Coordinates (Angstroms)
 Number     Number       Type             X           Y           Z
 ---------------------------------------------------------------------
      1          6           0        2.740873   -0.266424    0.364859
      2          8           0        1.444751   -0.811047    0.549567
      3          6           0        0.522750   -0.473926   -0.491180
      4          6           0       -0.592951   -1.479342   -0.475955
      5          6           0       -1.849713   -1.178417   -0.150899
      6          6           0       -2.302842    0.190113    0.280434
      7          6           0       -1.120555    1.070290    0.732592
      8          6           0        0.028474    0.960785   -0.246914
      9          8           0        0.566382    1.911348   -0.767494
     10          1           0        2.729299    0.829892    0.323628
     11          1           0        3.340185   -0.589623    1.219268
     12          1           0        3.202151   -0.642039   -0.560682
     13          1           0        1.042243   -0.486334   -1.461677
     14          1           0       -0.320264   -2.492926   -0.756649
     15          1           0       -2.610592   -1.954338   -0.191180
     16          1           0       -2.838888    0.680298   -0.544577
     17          1           0       -3.032783    0.101528    1.093259
     18          1           0       -1.402941    2.118480    0.848252
     19          1           0       -0.753684    0.694179    1.696155
 ---------------------------------------------------------------------

 SCF Done:  E(RB3LYP) =  -423.203417218     A.U. after    1 cycles

 The electronic state is 1-A.
 Alpha  occ. eigenvalues --  -19.14883 -19.13198 -10.26497 -10.23875 -10.22290
 Alpha  occ. eigenvalues --  -10.20223 -10.19705 -10.19222 -10.18922  -1.04745
 Alpha  occ. eigenvalues --   -1.02789  -0.83529  -0.75855  -0.72990  -0.66953
 Alpha  occ. eigenvalues --   -0.62992  -0.57832  -0.51794  -0.49605  -0.48255
 Alpha  occ. eigenvalues --   -0.47231  -0.45656  -0.43743  -0.42548  -0.41482
 Alpha  occ. eigenvalues --   -0.39821  -0.38946  -0.36753  -0.35049  -0.33795
 Alpha  occ. eigenvalues --   -0.32224  -0.28575  -0.26211  -0.22878
 Alpha virt. eigenvalues --   -0.02185   0.00800   0.08958   0.11693   0.12122
 Alpha virt. eigenvalues --    0.13452   0.14562   0.15568   0.16418   0.17199
 Alpha virt. eigenvalues --    0.17437   0.17969   0.19211   0.19529   0.21319

 Mulliken charges:
               1
     1  C   -0.243019
     2  O   -0.260280
     3  C   -0.002476
     4  C   -0.074282
     5  C   -0.052477
     6  C   -0.268138
     7  C   -0.304819
     8  C    0.384266
     9  O   -0.324162
    10  H    0.130693
    11  H    0.126906
    12  H    0.108799
    13  H    0.084991
    14  H    0.099758
    15  H    0.097485
    16  H    0.126852
    17  H    0.115547
    18  H    0.116517
    19  H    0.137839
 Sum of Mulliken charges =   0.00000

 Dipole moment (field-independent basis, Debye):
    X=             -1.1816    Y=             -1.3474    Z=              0.4814  Tot=              1.8556
 Quadrupole moment (field-independent basis, Debye-Ang):
   XX=            -46.4372   YY=            -57.7564   ZZ=            -53.8859
   XY=             -1.4079   XZ=             -0.2500   YZ=              4.1885

  Exact polarizability:  98.410  -0.591  76.353  -4.985   2.212  60.390
 Approx polarizability: 135.181  -0.636 113.005 -10.367  -3.358  95.945

                      1                      2                      3
                      A                      A                      A
 Frequencies --     50.2802               109.8250               139.0786
 Red. masses --      3.9188                 2.3041                 3.0326
 Frc consts  --      0.0058                 0.0164                 0.0346
 IR Inten    --      3.4996                 3.9738                 0.9692

                      4                      5                      6
                      A                      A                      A
 Frequencies --    165.6202               236.7555               253.1751
 Red. masses --      1.4843                 2.4839                 2.6929
 Frc consts  --      0.0240                 0.0820                 0.1017
 IR Inten    --      0.4798                 1.7205                 8.4370

                      7                      8                      9
                      A                      A                      A
 Frequencies --    358.1561               420.9598               465.2137
 Red. masses --      3.0304                 3.6198                 3.8026
 Frc consts  --      0.2290                 0.3779                 0.4849
 IR Inten    --      2.6722                 0.2144                 7.0764

                     10                     11                     12
                      A                      A                      A
 Frequencies --    483.4625               534.3263               655.5161
 Red. masses --      3.5708                 3.4897                 3.2881
 Frc consts  --      0.4917                 0.5870                 0.8325
 IR Inten    --      7.2898                 1.7378                 7.1357

                     13                     14                     15
                      A                      A                      A
 Frequencies --    717.3347               748.8217               799.8903
 Red. masses --      1.8006                 2.6324                 1.9779
 Frc consts  --      0.5459                 0.8697                 0.7456
 IR Inten    --     10.4174                 6.9815                 3.1826

                     16                     17                     18
                      A                      A                      A
 Frequencies --    885.3543               957.5285               983.7805
 Red. masses --      2.7425                 3.1038                 3.5038
 Frc consts  --      1.2666                 1.6767                 1.9980
 IR Inten    --      3.5276                26.0010                 5.4008

                     19                     20                     21
                      A                      A                      A
 Frequencies --    990.2137              1006.5367              1037.0747
 Red. masses --      2.2791                 1.2952                 1.9569
 Frc consts  --      1.3166                 0.7731                 1.2400
 IR Inten    --      7.3832                 1.4015                 2.3599

                     22                     23                     24
                      A                      A                      A
 Frequencies --   1063.9023              1114.3250              1135.8427
 Red. masses --      2.0010                 7.2625                 1.5274
 Frc consts  --      1.3345                 5.3133                 1.1610
 IR Inten    --     15.1330               159.9445                 5.1928

                     25                     26                     27
                      A                      A                      A
 Frequencies --   1179.3149              1186.1169              1212.5085
 Red. masses --      1.1783                 1.2780                 1.4262
 Frc consts  --      0.9656                 1.0594                 1.2354
 IR Inten    --      6.8528                 4.6815                13.1278

                     28                     29                     30
                      A                      A                      A
 Frequencies --   1246.8316              1257.4643              1318.7307
 Red. masses --      1.4776                 1.4310                 1.4423
 Frc consts  --      1.3534                 1.3332                 1.4778
 IR Inten    --     14.4583                 2.2731                 6.3604

                     31                     32                     33
                      A                      A                      A
 Frequencies --   1333.5183              1354.0344              1374.4919
 Red. masses --      1.6087                 1.3187                 1.5981
 Frc consts  --      1.6855                 1.4245                 1.7789
 IR Inten    --      1.7058                31.0987                 5.4831

                     34                     35                     36
                      A                      A                      A
 Frequencies --   1416.9925              1463.4016              1475.2913
 Red. masses --      1.5761                 1.0941                 1.1269
 Frc consts  --      1.8645                 1.3805                 1.4451
 IR Inten    --      1.6094                 6.5158                 1.2411

                     37                     38                     39
                      A                      A                      A
 Frequencies --   1483.7110              1484.5277              1513.5062
 Red. masses --      1.0837                 1.0598                 1.0582
 Frc consts  --      1.4055                 1.3762                 1.4281
 IR Inten    --      7.1269                 1.9933                 9.2467

                     40                     41                     42
                      A                      A                      A
 Frequencies --   1722.9499              1814.4012              2987.6764
 Red. masses --      6.8419                11.2880                 1.0696
 Frc consts  --     11.9667                21.8944                 5.6254
 IR Inten    --      2.4912               151.3636                13.5943

                     43                     44                     45
                      A                      A                      A
 Frequencies --   2992.9080              3013.2065              3036.3837
 Red. masses --      1.0515                 1.0674                 1.0649
 Frc consts  --      5.5496                 5.7100                 5.7844
 IR Inten    --     76.1424                23.3094                 7.6210

                     46                     47                     48
                      A                      A                      A
 Frequencies --   3056.7505              3057.0916              3118.5101
 Red. masses --      1.0973                 1.0918                 1.0991
 Frc consts  --      6.0407                 6.0117                 6.2976
 IR Inten    --     31.1529                22.8442                16.6411

                     49                     50                     51
                      A                      A                      A
 Frequencies --   3120.2128              3150.2978              3174.5472
 Red. masses --      1.1002                 1.0841                 1.0967
 Frc consts  --      6.3109                 6.3393                 6.5121
 IR Inten    --     24.3446                 7.0112                24.3663

 - Thermochemistry -
 -------------------
 Temperature   298.150 Kelvin.  Pressure   1.00000 Atm.
 Atom     1 has atomic number  6 and mass  12.00000

 Molecular mass:   126.06808 amu.
 Principal axes and moments of inertia in atomic units:
                           1         2         3
     Eigenvalues --   705.516351258.615751682.90537
           X            0.99989  -0.01284  -0.00711
           Y            0.01316   0.99883   0.04662
           Z            0.00650  -0.04671   0.99889
 This molecule is an asymmetric top.
 Rotational symmetry number  1.
 Warning -- assumption of classical behavior for rotation
           may cause significant error
 Rotational temperatures (Kelvin)      0.12277     0.06882     0.05147
 Rotational constants (GHZ):           2.55804     1.43391     1.07240
 Zero-point vibrational energy     417845.7 (Joules/Mol)
                                   99.86753 (Kcal/Mol)
 Warning -- explicit consideration of  11 degrees of freedom as
           vibrations may cause significant error
 Vibrational temperatures:     72.34   158.01   200.10   238.29   340.64
          (Kelvin)            364.26   515.31   605.67   669.34   695.59
                              768.78   943.14  1032.08  1077.39  1150.86
                             1273.83  1377.67  1415.44  1424.69  1448.18
                             1492.12  1530.72  1603.26  1634.22  1696.77
                             1706.56  1744.53  1793.91  1809.21  1897.36
                             1918.63  1948.15  1977.58  2038.73  2105.51
                             2122.61  2134.73  2135.90  2177.60  2478.94
                             2610.52  4298.59  4306.12  4335.33  4368.67
                             4397.98  4398.47  4486.83  4489.28  4532.57
                             4567.46

 Zero-point correction=                           0.159149 (Hartree/Particle)
 Thermal correction to Energy=                    0.168011
 Thermal correction to Enthalpy=                  0.168955
 Thermal correction to Gibbs Free Energy=         0.125024
 Sum of electronic and zero-point Energies=           -423.044268
 Sum of electronic and thermal Energies=              -423.035406
 Sum of electronic and thermal Enthalpies=            -423.034462
 Sum of electronic and thermal Free Energies=         -423.078393

                     E (Thermal)             CV                S
                      KCal/Mol        Cal/Mol-Kelvin    Cal/Mol-Kelvin
 Total                  105.429             32.407             92.461
 Electronic               0.000              0.000              0.000
 Translational            0.889              2.981             40.409
 Rotational               0.889              2.981             28.793
 Vibrational            103.651             26.445             23.259
 Vibration     1          0.595              1.977              4.806
 Vibration     2          0.606              1.941              3.272
 Vibration     3          0.615              1.914              2.817
 Vibration     4          0.624              1.885              2.485
 Vibration     5          0.656              1.784              1.827
 Vibration     6          0.664              1.757              1.708
 Vibration     7          0.733              1.558              1.130
 Vibration     8          0.783              1.425              0.889
 Vibration     9          0.823              1.327              0.751
 Vibration    10          0.840              1.287              0.701
 Vibration    11          0.889              1.174              0.578

 Optimization completed.
    -- Stationary point found.
 Normal termination of Gaussian 09 at Tue Jan 28 14:59:35 2020.
