 Gaussian 09, Revision D.01,
 Gaussian 09:  ES64L-G09RevD.01 24-Apr-2013

 -----------------------------
 # b3lyp 6-31G(2df,p) opt Freq
 -----------------------------

 -----
 titel
 -----
 Symbolic Z-matrix:
 Charge =  0 Multiplicity = 1

 SCF Done:  E(RB3LYP) =  -423.111604647     A.U. after   13 cycles
 Optimization completed.
    -- Stationary point found.
 Normal termination of Gaussian 09 at Tue Jan 28 10:18:34 2020.

 ----------------------------------------------------------------------
 #N Geom=AllCheck Guess=TCheck SCRF=Check GenChk RB3LYP/6-31G(2df,p) Fr
 eq
 ----------------------------------------------------------------------

 Structure from the checkpoint file:  "/scratch/puck/g09_4bc8e0ce-33dd-481f-ac6f-d705d1039055/Gau-1051.chk"
 -----
 titel
 -----
 Charge =  0 Multiplicity = 1

                         Standard orientation:
 ---------------------------------------------------------------------
 Center     Atomic      Atomic             Coordinates (Angstroms)
 Number     Number       Type             X           Y           Z
 ---------------------------------------------------------------------
      1          6           0        2.912157   -0.209944   -0.218461
      2          6           0        1.758083    0.737045    0.138498
      3          6           0        0.421368    0.054248    0.188263
      4          6           0       -0.097002   -1.008851    1.161618
      5          6           0       -1.478019   -0.802980    0.490537
      6          8           0       -1.284462   -1.321008   -0.853430
      7          6           0       -0.449493   -0.192657   -1.091518
      8          6           0       -0.980077    0.640467    0.013379
      9          8           0       -1.490313    1.909735    0.016678
     10          1           0        3.866050    0.325626   -0.244532
     11          1           0        3.001981   -1.017634    0.515173
     12          1           0        2.753089   -0.669895   -1.198847
     13          1           0        1.965276    1.212943    1.107090
     14          1           0        1.712023    1.554777   -0.592866
     15          1           0        0.305471   -2.025042    1.104920
     16          1           0       -0.081980   -0.647890    2.194708
     17          1           0       -2.420099   -1.102255    0.944990
     18          1           0       -0.126879    0.035621   -2.098753
     19          1           0       -1.298826    2.319961    0.868240
 ---------------------------------------------------------------------

 SCF Done:  E(RB3LYP) =  -423.111604647     A.U. after    1 cycles

 The electronic state is 1-A.
 Alpha  occ. eigenvalues --  -19.16449 -19.13332 -10.23881 -10.23732 -10.23129
 Alpha  occ. eigenvalues --  -10.19555 -10.19080 -10.18591 -10.17676  -1.06510
 Alpha  occ. eigenvalues --   -1.03846  -0.85531  -0.76511  -0.72617  -0.65087
 Alpha  occ. eigenvalues --   -0.62259  -0.57357  -0.54692  -0.51015  -0.47925
 Alpha  occ. eigenvalues --   -0.45970  -0.44767  -0.43611  -0.41256  -0.38843
 Alpha  occ. eigenvalues --   -0.38364  -0.37518  -0.35854  -0.35460  -0.33853
 Alpha  occ. eigenvalues --   -0.32311  -0.26602  -0.24165  -0.22752
 Alpha virt. eigenvalues --    0.06099   0.08540   0.09359   0.11397   0.12638
 Alpha virt. eigenvalues --    0.13913   0.14189   0.15225   0.16333   0.16500
 Alpha virt. eigenvalues --    0.17321   0.18083   0.19586   0.21420   0.22352

 Mulliken charges:
               1
     1  C   -0.372354
     2  C   -0.308912
     3  C    0.215664
     4  C   -0.284938
     5  C   -0.009068
     6  O   -0.287696
     7  C   -0.006543
     8  C    0.262832
     9  O   -0.448398
    10  H    0.111963
    11  H    0.120914
    12  H    0.121799
    13  H    0.094377
    14  H    0.104081
    15  H    0.102178
    16  H    0.093270
    17  H    0.088193
    18  H    0.110621
    19  H    0.292017
 Sum of Mulliken charges =   0.00000

 Dipole moment (field-independent basis, Debye):
    X=              1.3375    Y=              1.2947    Z=              2.0516  Tot=              2.7702
 Quadrupole moment (field-independent basis, Debye-Ang):
   XX=            -54.9154   YY=            -54.6165   ZZ=            -50.3947
   XY=              0.0174   XZ=             -4.3025   YZ=              0.8588

  Exact polarizability:  81.886   1.272  72.248  -1.496  -0.855  70.466
 Approx polarizability: 109.445   1.151 109.693   0.282   1.945 110.439

                      1                      2                      3
                      A                      A                      A
 Frequencies --     76.8299               120.4216               196.8647
 Red. masses --      2.2781                 3.6938                 1.3557
 Frc consts  --      0.0079                 0.0316                 0.0310
 IR Inten    --      0.8614                 0.7451                 0.3340

                      4                      5                      6
                      A                      A                      A
 Frequencies --    231.0460               275.3446               310.5690
 Red. masses --      2.2158                 3.0596                 1.6008
 Frc consts  --      0.0697                 0.1367                 0.0910
 IR Inten    --      8.2041                 0.5915                31.5480

                      7                      8                      9
                      A                      A                      A
 Frequencies --    354.9761               415.2881               467.9076
 Red. masses --      1.3896                 3.3303                 3.0675
 Frc consts  --      0.1032                 0.3384                 0.3957
 IR Inten    --     67.1027                 4.1789                 3.9932

                     10                     11                     12
                      A                      A                      A
 Frequencies --    552.0019               601.2914               689.4062
 Red. masses --      3.8471                 3.0830                 3.5471
 Frc consts  --      0.6907                 0.6567                 0.9933
 IR Inten    --      4.8619                14.8807                 6.2252

                     13                     14                     15
                      A                      A                      A
 Frequencies --    720.9252               786.4263               800.2219
 Red. masses --      4.8242                 1.2416                 4.3909
 Frc consts  --      1.4772                 0.4524                 1.6566
 IR Inten    --      4.5891                 3.3255                13.3765

                     16                     17                     18
                      A                      A                      A
 Frequencies --    838.2677               919.3959               929.6394
 Red. masses --      3.2980                 2.2037                 2.2210
 Frc consts  --      1.3654                 1.0975                 1.1309
 IR Inten    --      5.6032                17.8588                12.8599

                     19                     20                     21
                      A                      A                      A
 Frequencies --    959.1971               967.4734               993.6801
 Red. masses --      1.8235                 1.8718                 2.6348
 Frc consts  --      0.9885                 1.0322                 1.5328
 IR Inten    --      0.2056                 6.9189                 1.1587

                     22                     23                     24
                      A                      A                      A
 Frequencies --   1027.2601              1040.9696              1070.5704
 Red. masses --      1.9981                 2.6539                 2.0294
 Frc consts  --      1.2423                 1.6944                 1.3704
 IR Inten    --     13.4389                35.7417                 0.7350

                     25                     26                     27
                      A                      A                      A
 Frequencies --   1097.9621              1134.0915              1145.7820
 Red. masses --      2.1345                 1.5182                 1.8139
 Frc consts  --      1.5161                 1.1505                 1.4030
 IR Inten    --      1.6759                 1.0610                 5.7983

                     28                     29                     30
                      A                      A                      A
 Frequencies --   1189.9163              1222.1813              1232.5023
 Red. masses --      1.7379                 1.8772                 1.7149
 Frc consts  --      1.4498                 1.6521                 1.5348
 IR Inten    --      5.5667                35.9603                 4.8157

                     31                     32                     33
                      A                      A                      A
 Frequencies --   1277.7962              1286.7630              1318.0923
 Red. masses --      1.6186                 1.5834                 1.3148
 Frc consts  --      1.5571                 1.5447                 1.3459
 IR Inten    --    116.4674                51.9957                 1.9259

                     34                     35                     36
                      A                      A                      A
 Frequencies --   1344.1233              1384.5256              1411.5453
 Red. masses --      1.5045                 2.5486                 1.2329
 Frc consts  --      1.6015                 2.8784                 1.4474
 IR Inten    --      3.7508                11.8224                 1.7127

                     37                     38                     39
                      A                      A                      A
 Frequencies --   1476.0823              1483.6006              1497.5160
 Red. masses --      1.3787                 1.0841                 1.0523
 Frc consts  --      1.7699                 1.4058                 1.3904
 IR Inten    --      8.3736                 3.5404                 4.9649

                     40                     41                     42
                      A                      A                      A
 Frequencies --   1503.8153              1507.5799              3006.0628
 Red. masses --      1.8535                 1.2787                 1.0615
 Frc consts  --      2.4696                 1.7123                 5.6514
 IR Inten    --     24.5797                13.1995                35.0350

                     43                     44                     45
                      A                      A                      A
 Frequencies --   3036.3369              3038.7891              3043.5401
 Red. masses --      1.0373                 1.0966                 1.0555
 Frc consts  --      5.6343                 5.9663                 5.7606
 IR Inten    --     21.2665                16.9569                37.5792

                     46                     47                     48
                      A                      A                      A
 Frequencies --   3101.4101              3105.9310              3109.0764
 Red. masses --      1.1084                 1.1020                 1.1021
 Frc consts  --      6.2816                 6.2635                 6.2768
 IR Inten    --     24.0117                32.3563                34.1213

                     49                     50                     51
                      A                      A                      A
 Frequencies --   3146.2641              3211.3781              3778.7222
 Red. masses --      1.0928                 1.0952                 1.0662
 Frc consts  --      6.3733                 6.6549                 8.9696
 IR Inten    --     36.3003                 8.2053                19.2017

 - Thermochemistry -
 -------------------
 Temperature   298.150 Kelvin.  Pressure   1.00000 Atm.
 Atom     1 has atomic number  6 and mass  12.00000

 Molecular mass:   126.06808 amu.
 Principal axes and moments of inertia in atomic units:
                           1         2         3
     Eigenvalues --   703.685791251.664271515.28271
           X            0.99982   0.00231  -0.01894
           Y           -0.00286   0.99958  -0.02883
           Z            0.01887   0.02888   0.99940
 This molecule is an asymmetric top.
 Rotational symmetry number  1.
 Warning -- assumption of classical behavior for rotation
           may cause significant error
 Rotational temperatures (Kelvin)      0.12309     0.06920     0.05716
 Rotational constants (GHZ):           2.56470     1.44187     1.19103
 Zero-point vibrational energy     415327.6 (Joules/Mol)
                                   99.26569 (Kcal/Mol)
 Warning -- explicit consideration of  11 degrees of freedom as
           vibrations may cause significant error
 Vibrational temperatures:    110.54   173.26   283.24   332.42   396.16
          (Kelvin)            446.84   510.73   597.51   673.21   794.21
                              865.12   991.90  1037.25  1131.49  1151.34
                             1206.08  1322.80  1337.54  1380.07  1391.98
                             1429.68  1478.00  1497.72  1540.31  1579.72
                             1631.70  1648.52  1712.02  1758.44  1773.29
                             1838.46  1851.36  1896.44  1933.89  1992.02
                             2030.90  2123.75  2134.57  2154.59  2163.65
                             2169.07  4325.05  4368.61  4372.13  4378.97
                             4462.23  4468.74  4473.26  4526.77  4620.45
                             5436.73

 Zero-point correction=                           0.158190 (Hartree/Particle)
 Thermal correction to Energy=                    0.166647
 Thermal correction to Enthalpy=                  0.167592
 Thermal correction to Gibbs Free Energy=         0.125122
 Sum of electronic and zero-point Energies=           -422.953415
 Sum of electronic and thermal Energies=              -422.944957
 Sum of electronic and thermal Enthalpies=            -422.944013
 Sum of electronic and thermal Free Energies=         -422.986483

                     E (Thermal)             CV                S
                      KCal/Mol        Cal/Mol-Kelvin    Cal/Mol-Kelvin
 Total                  104.573             32.598             89.385
 Electronic               0.000              0.000              0.000
 Translational            0.889              2.981             40.409
 Rotational               0.889              2.981             28.680
 Vibrational            102.795             26.637             20.296
 Vibration     1          0.599              1.965              3.970
 Vibration     2          0.609              1.932              3.094
 Vibration     3          0.636              1.844              2.162
 Vibration     4          0.653              1.794              1.871
 Vibration     5          0.677              1.719              1.562
 Vibration     6          0.699              1.654              1.359
 Vibration     7          0.731              1.565              1.144
 Vibration     8          0.779              1.437              0.908
 Vibration     9          0.825              1.321              0.743
 Vibration    10          0.907              1.135              0.540
 Vibration    11          0.960              1.029              0.447

 Optimization completed.
    -- Stationary point found.
 Normal termination of Gaussian 09 at Tue Jan 28 12:17:56 2020.
