 Gaussian 09, Revision D.01,
 Gaussian 09:  ES64L-G09RevD.01 24-Apr-2013

 -----------------------------
 # b3lyp 6-31G(2df,p) opt Freq
 -----------------------------

 -----
 titel
 -----
 Symbolic Z-matrix:
 Charge =  0 Multiplicity = 1

 SCF Done:  E(RB3LYP) =  -423.167677123     A.U. after   13 cycles
 Optimization completed.
    -- Stationary point found.
 Normal termination of Gaussian 09 at Tue Jan 28 02:20:54 2020.

 ----------------------------------------------------------------------
 #N Geom=AllCheck Guess=TCheck SCRF=Check GenChk RB3LYP/6-31G(2df,p) Fr
 eq
 ----------------------------------------------------------------------

 Structure from the checkpoint file:  "/scratch/puck/g09_eda84ef1-3861-4f22-84a2-52694d05c772/Gau-76227.chk"
 -----
 titel
 -----
 Charge =  0 Multiplicity = 1

                         Standard orientation:
 ---------------------------------------------------------------------
 Center     Atomic      Atomic             Coordinates (Angstroms)
 Number     Number       Type             X           Y           Z
 ---------------------------------------------------------------------
      1          6           0       -3.244039   -0.685400   -0.387158
      2          6           0       -2.068620   -0.126409    0.369639
      3          8           0       -1.679620    1.219851    0.056347
      4          6           0       -0.777862    0.156576   -0.267444
      5          6           0        0.524923    0.150240    0.510520
      6          8           0        1.166748   -1.117335    0.351943
      7          6           0        2.486812   -0.947654   -0.163291
      8          6           0        2.634026    0.531807   -0.381432
      9          6           0        1.528486    1.154990    0.007395
     10          1           0       -3.172809   -0.442336   -1.450739
     11          1           0       -3.285122   -1.774419   -0.278347
     12          1           0       -4.182819   -0.272289   -0.003595
     13          1           0       -2.052763   -0.343295    1.439636
     14          1           0       -0.668449   -0.044129   -1.334682
     15          1           0        0.285190    0.318683    1.573428
     16          1           0        3.223654   -1.339971    0.555752
     17          1           0        2.600453   -1.528331   -1.091522
     18          1           0        3.529373    0.984026   -0.788765
     19          1           0        1.323913    2.217037   -0.016860
 ---------------------------------------------------------------------

 SCF Done:  E(RB3LYP) =  -423.167677123     A.U. after    1 cycles

 The electronic state is 1-A.
 Alpha  occ. eigenvalues --  -19.14606 -19.13814 -10.23706 -10.23510 -10.23332
 Alpha  occ. eigenvalues --  -10.22999 -10.19095 -10.18761 -10.18174  -1.06664
 Alpha  occ. eigenvalues --   -1.03500  -0.79068  -0.75537  -0.74307  -0.65385
 Alpha  occ. eigenvalues --   -0.60233  -0.58194  -0.56353  -0.51448  -0.49158
 Alpha  occ. eigenvalues --   -0.47178  -0.45196  -0.42599  -0.41978  -0.40373
 Alpha  occ. eigenvalues --   -0.39667  -0.37428  -0.36719  -0.35794  -0.32716
 Alpha  occ. eigenvalues --   -0.29420  -0.27606  -0.27048  -0.23555
 Alpha virt. eigenvalues --    0.01220   0.09232   0.11297   0.11608   0.11844
 Alpha virt. eigenvalues --    0.12495   0.14020   0.15300   0.15908   0.16705
 Alpha virt. eigenvalues --    0.16970   0.17444   0.18055   0.18732   0.20722

 Mulliken charges:
               1
     1  C   -0.421525
     2  C    0.085855
     3  O   -0.266031
     4  C    0.043596
     5  C    0.053272
     6  O   -0.277456
     7  C   -0.115120
     8  C   -0.098649
     9  C   -0.093233
    10  H    0.127232
    11  H    0.126242
    12  H    0.128649
    13  H    0.090064
    14  H    0.088376
    15  H    0.085231
    16  H    0.106740
    17  H    0.107805
    18  H    0.108812
    19  H    0.120142
 Sum of Mulliken charges =   0.00000

 Dipole moment (field-independent basis, Debye):
    X=              0.9008    Y=             -0.4584    Z=             -0.4313  Tot=              1.0990
 Quadrupole moment (field-independent basis, Debye-Ang):
   XX=            -46.6830   YY=            -56.1109   ZZ=            -52.0606
   XY=              4.0683   XZ=             -1.8847   YZ=              0.6538

  Exact polarizability: 103.954  -2.742  69.969  -7.456   1.206  61.630
 Approx polarizability: 131.843 -11.056 109.961 -14.940   2.812  94.477

                      1                      2                      3
                      A                      A                      A
 Frequencies --     60.6977                83.8174               125.9862
 Red. masses --      3.6945                 3.2630                 3.3900
 Frc consts  --      0.0080                 0.0135                 0.0317
 IR Inten    --      3.0804                 1.3548                 2.5448

                      4                      5                      6
                      A                      A                      A
 Frequencies --    202.0735               215.9711               307.4975
 Red. masses --      1.1862                 2.3378                 3.4053
 Frc consts  --      0.0285                 0.0642                 0.1897
 IR Inten    --      1.1201                 3.4960                 0.7116

                      7                      8                      9
                      A                      A                      A
 Frequencies --    349.9045               369.2951               488.7541
 Red. masses --      3.0123                 3.7885                 3.8548
 Frc consts  --      0.2173                 0.3044                 0.5425
 IR Inten    --      5.2127                 2.8000                 1.9698

                     10                     11                     12
                      A                      A                      A
 Frequencies --    526.6721               724.0878               768.1319
 Red. masses --      2.7515                 1.3324                 5.8530
 Frc consts  --      0.4497                 0.4116                 2.0347
 IR Inten    --      2.3483                30.1752                10.1550

                     13                     14                     15
                      A                      A                      A
 Frequencies --    795.0526               818.3678               887.4596
 Red. masses --      4.0442                 5.4671                 2.5060
 Frc consts  --      1.5062                 2.1573                 1.1629
 IR Inten    --      9.4254                 4.7636                27.0829

                     16                     17                     18
                      A                      A                      A
 Frequencies --    929.1187               937.8603               963.9206
 Red. masses --      2.1885                 3.0457                 1.2762
 Frc consts  --      1.1131                 1.5784                 0.6986
 IR Inten    --      1.6056                 6.9449                 1.3172

                     19                     20                     21
                      A                      A                      A
 Frequencies --    971.7626               998.0653              1042.4054
 Red. masses --      2.2194                 2.9709                 1.4327
 Frc consts  --      1.2348                 1.7437                 0.9172
 IR Inten    --     21.5192                20.5390                 4.2556

                     22                     23                     24
                      A                      A                      A
 Frequencies --   1047.9013              1091.3133              1108.8232
 Red. masses --      1.6298                 1.7901                 3.7655
 Frc consts  --      1.0545                 1.2561                 2.7277
 IR Inten    --      8.8773                 2.9406               118.6019

                     25                     26                     27
                      A                      A                      A
 Frequencies --   1114.5968              1147.6783              1165.5563
 Red. masses --      1.5927                 2.2643                 1.5429
 Frc consts  --      1.1658                 1.7572                 1.2349
 IR Inten    --     23.3640                 2.8846                 2.5019

                     28                     29                     30
                      A                      A                      A
 Frequencies --   1177.0499              1198.8719              1277.0135
 Red. masses --      1.7406                 1.1227                 1.3779
 Frc consts  --      1.4208                 0.9507                 1.3239
 IR Inten    --      8.6139                 1.0866                 2.1358

                     31                     32                     33
                      A                      A                      A
 Frequencies --   1287.8593              1303.1668              1350.0239
 Red. masses --      1.2624                 1.2228                 1.6473
 Frc consts  --      1.2337                 1.2236                 1.7689
 IR Inten    --     14.7115                 7.8306                 3.1104

                     34                     35                     36
                      A                      A                      A
 Frequencies --   1381.8849              1385.4430              1413.0903
 Red. masses --      1.5333                 1.3125                 1.2923
 Frc consts  --      1.7251                 1.4843                 1.5204
 IR Inten    --      4.0273                 1.9849                 4.7616

                     37                     38                     39
                      A                      A                      A
 Frequencies --   1474.9344              1491.2021              1511.5722
 Red. masses --      1.2566                 1.1129                 1.8806
 Frc consts  --      1.6106                 1.4581                 2.5316
 IR Inten    --      5.8056                 6.9890                 8.8054

                     40                     41                     42
                      A                      A                      A
 Frequencies --   1522.6626              1690.2451              2965.2234
 Red. masses --      1.0865                 6.4989                 1.0810
 Frc consts  --      1.4842                10.9392                 5.6000
 IR Inten    --      1.8504                 0.8896                62.7105

                     43                     44                     45
                      A                      A                      A
 Frequencies --   2976.0279              2996.0068              3036.9027
 Red. masses --      1.0611                 1.1019                 1.0355
 Frc consts  --      5.5370                 5.8272                 5.6269
 IR Inten    --     73.3264                45.5296                20.6085

                     46                     47                     48
                      A                      A                      A
 Frequencies --   3088.2448              3100.0398              3102.1600
 Red. masses --      1.0880                 1.0877                 1.1006
 Frc consts  --      6.1139                 6.1590                 6.2402
 IR Inten    --      9.7935                23.9238                20.6502

                     49                     50                     51
                      A                      A                      A
 Frequencies --   3123.8624              3211.3531              3238.0730
 Red. masses --      1.1008                 1.0864                 1.1058
 Frc consts  --      6.3292                 6.6010                 6.8315
 IR Inten    --     31.6544                 2.9122                 5.9700

 - Thermochemistry -
 -------------------
 Temperature   298.150 Kelvin.  Pressure   1.00000 Atm.
 Atom     1 has atomic number  6 and mass  12.00000

 Molecular mass:   126.06808 amu.
 Principal axes and moments of inertia in atomic units:
                           1         2         3
     Eigenvalues --   414.831041920.975432177.24664
           X            0.99985   0.01725   0.00046
           Y           -0.01726   0.99968   0.01848
           Z           -0.00014  -0.01849   0.99983
 This molecule is an asymmetric top.
 Rotational symmetry number  1.
 Rotational temperatures (Kelvin)      0.20879     0.04509     0.03978
 Rotational constants (GHZ):           4.35055     0.93949     0.82891
 Zero-point vibrational energy     415975.6 (Joules/Mol)
                                   99.42055 (Kcal/Mol)
 Warning -- explicit consideration of  10 degrees of freedom as
           vibrations may cause significant error
 Vibrational temperatures:     87.33   120.59   181.27   290.74   310.73
          (Kelvin)            442.42   503.43   531.33   703.21   757.76
                             1041.80  1105.17  1143.90  1177.45  1276.85
                             1336.79  1349.37  1386.86  1398.15  1435.99
                             1499.79  1507.69  1570.15  1595.35  1603.65
                             1651.25  1676.97  1693.51  1724.91  1837.34
                             1852.94  1874.96  1942.38  1988.22  1993.34
                             2033.12  2122.10  2145.50  2174.81  2190.77
                             2431.88  4266.29  4281.83  4310.58  4369.42
                             4443.29  4460.26  4463.31  4494.54  4620.42
                             4658.86

 Zero-point correction=                           0.158437 (Hartree/Particle)
 Thermal correction to Energy=                    0.167094
 Thermal correction to Enthalpy=                  0.168039
 Thermal correction to Gibbs Free Energy=         0.124345
 Sum of electronic and zero-point Energies=           -423.009240
 Sum of electronic and thermal Energies=              -423.000583
 Sum of electronic and thermal Enthalpies=            -422.999639
 Sum of electronic and thermal Free Energies=         -423.043332

                     E (Thermal)             CV                S
                      KCal/Mol        Cal/Mol-Kelvin    Cal/Mol-Kelvin
 Total                  104.853             31.751             91.961
 Electronic               0.000              0.000              0.000
 Translational            0.889              2.981             40.409
 Rotational               0.889              2.981             28.941
 Vibrational            103.076             25.790             22.611
 Vibration     1          0.597              1.973              4.434
 Vibration     2          0.601              1.960              3.799
 Vibration     3          0.611              1.927              3.006
 Vibration     4          0.639              1.837              2.114
 Vibration     5          0.645              1.817              1.993
 Vibration     6          0.697              1.659              1.376
 Vibration     7          0.727              1.575              1.167
 Vibration     8          0.742              1.535              1.083
 Vibration     9          0.845              1.275              0.687
 Vibration    10          0.882              1.191              0.595

 Normal termination of Gaussian 09 at Tue Jan 28 02:57:56 2020.
