 Gaussian 09, Revision D.01,
 Gaussian 09:  ES64L-G09RevD.01 24-Apr-2013

 -----------------------------
 # b3lyp 6-31G(2df,p) opt Freq
 -----------------------------

 -----
 titel
 -----
 Symbolic Z-matrix:
 Charge =  0 Multiplicity = 1

 SCF Done:  E(RB3LYP) =  -423.227202908     A.U. after   14 cycles
 Optimization completed.
    -- Stationary point found.
 Normal termination of Gaussian 09 at Mon Jan 27 17:58:39 2020.

 ----------------------------------------------------------------------
 #N Geom=AllCheck Guess=TCheck SCRF=Check GenChk RB3LYP/6-31G(2df,p) Fr
 eq
 ----------------------------------------------------------------------

 Structure from the checkpoint file:  "/scratch/puck/g09_b040021c-3208-4830-baf4-d46277e48b3b/Gau-61631.chk"
 -----
 titel
 -----
 Charge =  0 Multiplicity = 1

                         Standard orientation:
 ---------------------------------------------------------------------
 Center     Atomic      Atomic             Coordinates (Angstroms)
 Number     Number       Type             X           Y           Z
 ---------------------------------------------------------------------
      1          6           0       -2.210476   -0.661565   -0.409593
      2          6           0       -0.786185   -0.399988    0.035794
      3          6           0       -0.193607   -1.304375    1.112737
      4          6           0        0.314434   -1.392449   -0.296396
      5          6           0        1.662023   -0.812855   -0.662606
      6          6           0        1.949134    0.449306    0.141610
      7          8           0        0.889883    1.413116    0.080710
      8          6           0       -0.421708    1.055587    0.045599
      9          8           0       -1.248553    1.928262   -0.011525
     10          1           0       -2.384177   -0.277372   -1.419094
     11          1           0       -2.418747   -1.735870   -0.409154
     12          1           0       -2.922014   -0.166747    0.255807
     13          1           0        0.430031   -0.870742    1.885252
     14          1           0       -0.846593   -2.092526    1.470536
     15          1           0        0.003084   -2.257638   -0.874387
     16          1           0        2.469119   -1.532134   -0.478037
     17          1           0        1.678197   -0.575467   -1.733140
     18          1           0        2.149435    0.207621    1.192089
     19          1           0        2.829332    0.967887   -0.246213
 ---------------------------------------------------------------------

 SCF Done:  E(RB3LYP) =  -423.227202908     A.U. after    1 cycles

 The electronic state is 1-A.
 Alpha  occ. eigenvalues --  -19.17410 -19.10923 -10.29818 -10.25028 -10.21396
 Alpha  occ. eigenvalues --  -10.21093 -10.20458 -10.20400 -10.18017  -1.08874
 Alpha  occ. eigenvalues --   -1.00670  -0.88812  -0.78249  -0.71916  -0.68151
 Alpha  occ. eigenvalues --   -0.63314  -0.59774  -0.53052  -0.51666  -0.49770
 Alpha  occ. eigenvalues --   -0.47194  -0.44562  -0.42895  -0.42249  -0.41497
 Alpha  occ. eigenvalues --   -0.40059  -0.39048  -0.37689  -0.36922  -0.32500
 Alpha  occ. eigenvalues --   -0.30878  -0.29096  -0.28160  -0.25577
 Alpha virt. eigenvalues --    0.01568   0.07743   0.08905   0.11052   0.12328
 Alpha virt. eigenvalues --    0.12961   0.13303   0.14879   0.16031   0.16404
 Alpha virt. eigenvalues --    0.17199   0.18437   0.20171   0.20629   0.20801

 Mulliken charges:
               1
     1  C   -0.453608
     2  C    0.161453
     3  C   -0.328089
     4  C   -0.062442
     5  C   -0.247711
     6  C   -0.079177
     7  O   -0.237649
     8  C    0.390527
     9  O   -0.334869
    10  H    0.129878
    11  H    0.105080
    12  H    0.140857
    13  H    0.125935
    14  H    0.122776
    15  H    0.095343
    16  H    0.112164
    17  H    0.118461
    18  H    0.116203
    19  H    0.124868
 Sum of Mulliken charges =   0.00000

 Dipole moment (field-independent basis, Debye):
    X=              2.2156    Y=             -3.9159    Z=              0.0348  Tot=              4.4994
 Quadrupole moment (field-independent basis, Debye-Ang):
   XX=            -50.8592   YY=            -60.0297   ZZ=            -51.2064
   XY=              3.9084   XZ=             -0.1264   YZ=              0.0425

  Exact polarizability:  87.249  -3.074  75.315   0.202  -1.528  63.517
 Approx polarizability: 121.285 -11.854 114.768   0.940  -3.434  98.226

                      1                      2                      3
                      A                      A                      A
 Frequencies --    106.8968               160.7272               205.6938
 Red. masses --      6.1095                 2.3590                 1.1175
 Frc consts  --      0.0411                 0.0359                 0.0279
 IR Inten    --      0.5073                 2.6997                 0.4363

                      4                      5                      6
                      A                      A                      A
 Frequencies --    279.6544               294.0187               323.4553
 Red. masses --      3.1326                 2.2149                 2.4131
 Frc consts  --      0.1443                 0.1128                 0.1487
 IR Inten    --      2.0129                 2.0259                 1.3041

                      7                      8                      9
                      A                      A                      A
 Frequencies --    397.0225               425.0745               504.2042
 Red. masses --      2.7657                 4.6002                 5.5405
 Frc consts  --      0.2569                 0.4897                 0.8299
 IR Inten    --      1.5017                 1.9941                 3.5022

                     10                     11                     12
                      A                      A                      A
 Frequencies --    524.0451               629.0147               669.5567
 Red. masses --      3.3381                 2.7851                 3.5254
 Frc consts  --      0.5401                 0.6493                 0.9312
 IR Inten    --      4.1617                 3.4322                 3.5454

                     13                     14                     15
                      A                      A                      A
 Frequencies --    750.1335               795.5905               845.9721
 Red. masses --      3.6507                 2.9040                 2.5162
 Frc consts  --      1.2103                 1.0830                 1.0610
 IR Inten    --      7.8723                 3.4022                 2.5154

                     16                     17                     18
                      A                      A                      A
 Frequencies --    881.1176               921.5463               949.4458
 Red. masses --      1.9259                 2.1269                 1.6426
 Frc consts  --      0.8809                 1.0642                 0.8724
 IR Inten    --      0.3700                 5.4730                 2.9246

                     19                     20                     21
                      A                      A                      A
 Frequencies --    960.6351               993.6766              1051.6446
 Red. masses --      1.7026                 1.7675                 1.3419
 Frc consts  --      0.9257                 1.0282                 0.8744
 IR Inten    --      6.7698                17.1084                 7.7384

                     22                     23                     24
                      A                      A                      A
 Frequencies --   1071.9956              1098.1024              1121.0672
 Red. masses --      1.7270                 2.0420                 1.9558
 Frc consts  --      1.1693                 1.4507                 1.4483
 IR Inten    --     29.2018                25.9873                39.3495

                     25                     26                     27
                      A                      A                      A
 Frequencies --   1127.9067              1134.3522              1160.6738
 Red. masses --      1.6295                 1.8367                 4.0498
 Frc consts  --      1.2214                 1.3924                 3.2145
 IR Inten    --      6.4563                 4.6748               171.2557

                     28                     29                     30
                      A                      A                      A
 Frequencies --   1248.2291              1262.7711              1290.1164
 Red. masses --      1.1903                 1.9303                 1.3699
 Frc consts  --      1.0927                 1.8135                 1.3433
 IR Inten    --      1.2084                 1.4197                14.5113

                     31                     32                     33
                      A                      A                      A
 Frequencies --   1336.8767              1376.3373              1407.4905
 Red. masses --      2.7163                 1.6421                 1.5748
 Frc consts  --      2.8603                 1.8328                 1.8381
 IR Inten    --     51.0967                 3.1335                17.4977

                     34                     35                     36
                      A                      A                      A
 Frequencies --   1420.6308              1432.8936              1481.0472
 Red. masses --      1.3514                 1.5170                 1.0773
 Frc consts  --      1.6069                 1.8351                 1.3923
 IR Inten    --      0.0604                14.2805                 7.3114

                     37                     38                     39
                      A                      A                      A
 Frequencies --   1484.0090              1493.1483              1500.3369
 Red. masses --      1.0969                 1.2359                 1.1149
 Frc consts  --      1.4233                 1.6235                 1.4786
 IR Inten    --      0.8534                10.9197                 4.9939

                     40                     41                     42
                      A                      A                      A
 Frequencies --   1527.1556              1823.2116              3029.5179
 Red. masses --      1.0937                12.6804                 1.0595
 Frc consts  --      1.5029                24.8347                 5.7290
 IR Inten    --      6.0521               337.4562                29.2245

                     43                     44                     45
                      A                      A                      A
 Frequencies --   3034.9666              3042.0884              3069.3061
 Red. masses --      1.0686                 1.0360                 1.1001
 Frc consts  --      5.7995                 5.6488                 6.1061
 IR Inten    --     26.7842                21.3626                33.0085

                     46                     47                     48
                      A                      A                      A
 Frequencies --   3098.6571              3110.5332              3123.6550
 Red. masses --      1.0996                 1.1017                 1.1008
 Frc consts  --      6.2205                 6.2804                 6.3285
 IR Inten    --     29.4232                18.2591                11.9212

                     49                     50                     51
                      A                      A                      A
 Frequencies --   3143.5291              3150.4754              3226.1297
 Red. masses --      1.0559                 1.0882                 1.1159
 Frc consts  --      6.1474                 6.3636                 6.8430
 IR Inten    --     11.5178                12.6994                 6.2701

 - Thermochemistry -
 -------------------
 Temperature   298.150 Kelvin.  Pressure   1.00000 Atm.
 Atom     1 has atomic number  6 and mass  12.00000

 Molecular mass:   126.06808 amu.
 Principal axes and moments of inertia in atomic units:
                           1         2         3
     Eigenvalues --   782.67303 952.297351469.83547
           X            0.99423   0.10719   0.00500
           Y           -0.10720   0.99424   0.00071
           Z           -0.00489  -0.00125   0.99999
 This molecule is an asymmetric top.
 Rotational symmetry number  1.
 Warning -- assumption of classical behavior for rotation
           may cause significant error
 Rotational temperatures (Kelvin)      0.11066     0.09095     0.05893
 Rotational constants (GHZ):           2.30587     1.89514     1.22785
 Zero-point vibrational energy     421661.7 (Joules/Mol)
                                  100.77957 (Kcal/Mol)
 Warning -- explicit consideration of  10 degrees of freedom as
           vibrations may cause significant error
 Vibrational temperatures:    153.80   231.25   295.95   402.36   423.03
          (Kelvin)            465.38   571.23   611.59   725.44   753.98
                              905.01   963.34  1079.27  1144.68  1217.16
                             1267.73  1325.90  1366.04  1382.14  1429.68
                             1513.08  1542.36  1579.92  1612.96  1622.80
                             1632.08  1669.95  1795.92  1816.84  1856.19
                             1923.46  1980.24  2025.06  2043.97  2061.61
                             2130.89  2135.16  2148.30  2158.65  2197.23
                             2623.19  4358.80  4366.63  4376.88  4416.04
                             4458.27  4475.36  4494.24  4522.83  4532.83
                             4641.68

 Zero-point correction=                           0.160602 (Hartree/Particle)
 Thermal correction to Energy=                    0.168641
 Thermal correction to Enthalpy=                  0.169585
 Thermal correction to Gibbs Free Energy=         0.128310
 Sum of electronic and zero-point Energies=           -423.066600
 Sum of electronic and thermal Energies=              -423.058562
 Sum of electronic and thermal Enthalpies=            -423.057618
 Sum of electronic and thermal Free Energies=         -423.098893

                     E (Thermal)             CV                S
                      KCal/Mol        Cal/Mol-Kelvin    Cal/Mol-Kelvin
 Total                  105.824             31.409             86.871
 Electronic               0.000              0.000              0.000
 Translational            0.889              2.981             40.409
 Rotational               0.889              2.981             28.484
 Vibrational            104.046             25.447             17.979
 Vibration     1          0.606              1.944              3.325
 Vibration     2          0.622              1.891              2.541
 Vibration     3          0.640              1.832              2.082
 Vibration     4          0.680              1.711              1.536
 Vibration     5          0.689              1.685              1.451
 Vibration     6          0.708              1.629              1.293
 Vibration     7          0.764              1.477              0.974
 Vibration     8          0.787              1.416              0.875
 Vibration     9          0.859              1.241              0.648
 Vibration    10          0.879              1.197              0.601

 Normal termination of Gaussian 09 at Mon Jan 27 18:43:34 2020.
