 Gaussian 09, Revision D.01,
 Gaussian 09:  ES64L-G09RevD.01 24-Apr-2013

 -----------------------------
 # b3lyp 6-31G(2df,p) opt Freq
 -----------------------------

 -----
 titel
 -----
 Symbolic Z-matrix:
 Charge =  0 Multiplicity = 1

 SCF Done:  E(RB3LYP) =  -423.196687748     A.U. after   14 cycles
 Optimization completed.
    -- Stationary point found.
 Normal termination of Gaussian 09 at Mon Jan 27 12:46:22 2020.

 ----------------------------------------------------------------------
 #N Geom=AllCheck Guess=TCheck SCRF=Check GenChk RB3LYP/6-31G(2df,p) Fr
 eq
 ----------------------------------------------------------------------

 Structure from the checkpoint file:  "/scratch/puck/g09_bd456d50-a4ed-46de-973a-afcabe3f3baa/Gau-73872.chk"
 -----
 titel
 -----
 Charge =  0 Multiplicity = 1

                         Standard orientation:
 ---------------------------------------------------------------------
 Center     Atomic      Atomic             Coordinates (Angstroms)
 Number     Number       Type             X           Y           Z
 ---------------------------------------------------------------------
      1          6           0        2.445150    0.075030   -0.204597
      2          8           0        1.669339   -1.086012    0.097290
      3          6           0        0.358193   -0.696671    0.490772
      4          6           0       -0.750454   -1.434824   -0.267119
      5          6           0       -2.077876   -0.707984   -0.005745
      6          8           0       -2.035520    0.649661   -0.421058
      7          6           0       -1.072150    1.420060    0.292803
      8          6           0        0.275408    0.778440    0.194417
      9          6           0        1.461801    1.216512   -0.208234
     10          1           0        3.242675    0.210592    0.545265
     11          1           0        2.937778   -0.063589   -1.177869
     12          1           0        0.225167   -0.884175    1.572733
     13          1           0       -0.524615   -1.409016   -1.338185
     14          1           0       -0.820214   -2.482537    0.044314
     15          1           0       -2.892905   -1.168152   -0.570522
     16          1           0       -2.337244   -0.768019    1.066146
     17          1           0       -1.084732    2.420743   -0.146206
     18          1           0       -1.377622    1.507642    1.351075
     19          1           0        1.720737    2.223947   -0.510394
 ---------------------------------------------------------------------

 SCF Done:  E(RB3LYP) =  -423.196687748     A.U. after    1 cycles

 The electronic state is 1-A.
 Alpha  occ. eigenvalues --  -19.14166 -19.13351 -10.23709 -10.23208 -10.23084
 Alpha  occ. eigenvalues --  -10.23044 -10.18787 -10.18661 -10.18061  -1.03703
 Alpha  occ. eigenvalues --   -1.02921  -0.80381  -0.78259  -0.73634  -0.65938
 Alpha  occ. eigenvalues --   -0.62307  -0.58732  -0.54794  -0.49930  -0.48201
 Alpha  occ. eigenvalues --   -0.47589  -0.46031  -0.44460  -0.42777  -0.41239
 Alpha  occ. eigenvalues --   -0.39827  -0.38183  -0.35645  -0.34110  -0.32314
 Alpha  occ. eigenvalues --   -0.30602  -0.27198  -0.25824  -0.23128
 Alpha virt. eigenvalues --    0.01248   0.09347   0.11288   0.12291   0.12539
 Alpha virt. eigenvalues --    0.13250   0.13710   0.15965   0.16325   0.16830
 Alpha virt. eigenvalues --    0.17461   0.17649   0.18218   0.21461   0.23804

 Mulliken charges:
               1
     1  C   -0.113741
     2  O   -0.284023
     3  C    0.053471
     4  C   -0.225939
     5  C   -0.079834
     6  O   -0.242624
     7  C   -0.199268
     8  C    0.334155
     9  C   -0.258032
    10  H    0.102065
    11  H    0.110451
    12  H    0.073676
    13  H    0.111924
    14  H    0.100290
    15  H    0.113545
    16  H    0.086646
    17  H    0.117755
    18  H    0.095904
    19  H    0.103578
 Sum of Mulliken charges =   0.00000

 Dipole moment (field-independent basis, Debye):
    X=              0.1231    Y=              0.8147    Z=              0.6522  Tot=              1.0508
 Quadrupole moment (field-independent basis, Debye-Ang):
   XX=            -54.1490   YY=            -52.0100   ZZ=            -53.0696
   XY=              5.8234   XZ=             -2.6101   YZ=              0.3553

  Exact polarizability:  96.300   7.761  76.531  -6.289  -1.639  61.089
 Approx polarizability: 133.944  11.181 109.307 -10.858  -5.080  97.119

                      1                      2                      3
                      A                      A                      A
 Frequencies --    105.0284               165.1274               248.4054
 Red. masses --      3.0329                 3.6904                 2.0705
 Frc consts  --      0.0197                 0.0593                 0.0753
 IR Inten    --      3.4992                 3.4371                 1.2594

                      4                      5                      6
                      A                      A                      A
 Frequencies --    321.8568               348.6070               368.2154
 Red. masses --      2.6135                 2.2040                 3.4247
 Frc consts  --      0.1595                 0.1578                 0.2736
 IR Inten    --      0.9570                 3.1144                 1.5093

                      7                      8                      9
                      A                      A                      A
 Frequencies --    435.3344               509.0916               601.0625
 Red. masses --      3.9148                 3.3524                 3.2923
 Frc consts  --      0.4371                 0.5119                 0.7008
 IR Inten    --      0.2433                 3.7542                 1.7675

                     10                     11                     12
                      A                      A                      A
 Frequencies --    690.3972               772.7927               805.6952
 Red. masses --      2.8568                 4.7384                 2.7089
 Frc consts  --      0.8023                 1.6673                 1.0361
 IR Inten    --     24.4231                 7.5666                 0.5306

                     13                     14                     15
                      A                      A                      A
 Frequencies --    829.2984               875.0392               911.2404
 Red. masses --      1.4108                 2.5717                 2.0142
 Frc consts  --      0.5717                 1.1602                 0.9854
 IR Inten    --     21.9035                 8.9769                10.8186

                     16                     17                     18
                      A                      A                      A
 Frequencies --    938.6534               961.4832               995.6847
 Red. masses --      2.2419                 3.0516                 2.6246
 Frc consts  --      1.1638                 1.6621                 1.5331
 IR Inten    --      2.7645                12.7824                 8.9556

                     19                     20                     21
                      A                      A                      A
 Frequencies --   1029.0615              1041.6173              1054.7366
 Red. masses --      1.8673                 1.8063                 2.3431
 Frc consts  --      1.1651                 1.1547                 1.5358
 IR Inten    --      9.8582                14.3142                 7.9047

                     22                     23                     24
                      A                      A                      A
 Frequencies --   1101.3128              1119.6152              1140.3162
 Red. masses --      5.7311                 3.4918                 2.8060
 Frc consts  --      4.0955                 2.5789                 2.1498
 IR Inten    --     33.9649                81.0478                53.3394

                     25                     26                     27
                      A                      A                      A
 Frequencies --   1194.1361              1199.8303              1203.1544
 Red. masses --      1.1891                 1.2271                 2.2037
 Frc consts  --      0.9990                 1.0408                 1.8795
 IR Inten    --      5.1146                12.9107                 9.0305

                     28                     29                     30
                      A                      A                      A
 Frequencies --   1237.2519              1282.3004              1308.4045
 Red. masses --      1.2648                 1.3605                 1.3505
 Frc consts  --      1.1407                 1.3180                 1.3622
 IR Inten    --     23.6128                 4.9044                 3.9843

                     31                     32                     33
                      A                      A                      A
 Frequencies --   1335.5443              1355.1171              1364.8888
 Red. masses --      1.2528                 1.6074                 1.5432
 Frc consts  --      1.3166                 1.7391                 1.6938
 IR Inten    --      2.4486                 6.1029                 0.4710

                     34                     35                     36
                      A                      A                      A
 Frequencies --   1383.8028              1389.2434              1410.8938
 Red. masses --      1.3473                 1.4334                 1.3207
 Frc consts  --      1.5200                 1.6300                 1.5489
 IR Inten    --     28.7461                11.1490                10.3054

                     37                     38                     39
                      A                      A                      A
 Frequencies --   1480.9216              1487.0722              1497.9783
 Red. masses --      1.0998                 1.0885                 1.0963
 Frc consts  --      1.4211                 1.4182                 1.4494
 IR Inten    --      3.1030                 1.6751                 3.0210

                     40                     41                     42
                      A                      A                      A
 Frequencies --   1522.2559              1743.1190              2920.4754
 Red. masses --      1.0867                 8.1650                 1.0803
 Frc consts  --      1.4837                14.6172                 5.4286
 IR Inten    --      1.3425                 0.1316                39.2536

                     43                     44                     45
                      A                      A                      A
 Frequencies --   2943.0895              2953.9533              2961.9331
 Red. masses --      1.0715                 1.0715                 1.0704
 Frc consts  --      5.4684                 5.5089                 5.5327
 IR Inten    --     43.5992               103.9989                88.2711

                     46                     47                     48
                      A                      A                      A
 Frequencies --   3007.3862              3045.3494              3091.4490
 Red. masses --      1.0907                 1.0589                 1.0913
 Frc consts  --      5.8121                 5.7859                 6.1447
 IR Inten    --     49.1243                19.8056                44.4522

                     49                     50                     51
                      A                      A                      A
 Frequencies --   3096.6999              3098.0470              3209.8615
 Red. masses --      1.0925                 1.1029                 1.0956
 Frc consts  --      6.1728                 6.2370                 6.6509
 IR Inten    --     10.1364                34.7506                 7.0331

 - Thermochemistry -
 -------------------
 Temperature   298.150 Kelvin.  Pressure   1.00000 Atm.
 Atom     1 has atomic number  6 and mass  12.00000

 Molecular mass:   126.06808 amu.
 Principal axes and moments of inertia in atomic units:
                           1         2         3
     Eigenvalues --   550.459621222.982161639.39893
           X            0.99915   0.03895  -0.01316
           Y           -0.03886   0.99922   0.00737
           Z            0.01344  -0.00686   0.99989
 This molecule is an asymmetric top.
 Rotational symmetry number  1.
 Warning -- assumption of classical behavior for rotation
           may cause significant error
 Rotational temperatures (Kelvin)      0.15735     0.07082     0.05283
 Rotational constants (GHZ):           3.27861     1.47569     1.10086
 Zero-point vibrational energy     425235.5 (Joules/Mol)
                                  101.63373 (Kcal/Mol)
 Warning -- explicit consideration of   9 degrees of freedom as
           vibrations may cause significant error
 Vibrational temperatures:    151.11   237.58   357.40   463.08   501.57
          (Kelvin)            529.78   626.35   732.47   864.79   993.33
                             1111.87  1159.21  1193.17  1258.98  1311.07
                             1350.51  1383.36  1432.57  1480.59  1498.65
                             1517.53  1584.54  1610.87  1640.66  1718.09
                             1726.29  1731.07  1780.13  1844.94  1882.50
                             1921.55  1949.71  1963.77  1990.98  1998.81
                             2029.96  2130.71  2139.56  2155.25  2190.18
                             2507.96  4201.91  4234.44  4250.07  4261.56
                             4326.95  4381.57  4447.90  4455.45  4457.39
                             4618.27

 Zero-point correction=                           0.161964 (Hartree/Particle)
 Thermal correction to Energy=                    0.169290
 Thermal correction to Enthalpy=                  0.170234
 Thermal correction to Gibbs Free Energy=         0.130169
 Sum of electronic and zero-point Energies=           -423.034724
 Sum of electronic and thermal Energies=              -423.027398
 Sum of electronic and thermal Enthalpies=            -423.026454
 Sum of electronic and thermal Free Energies=         -423.066518

                     E (Thermal)             CV                S
                      KCal/Mol        Cal/Mol-Kelvin    Cal/Mol-Kelvin
 Total                  106.231             28.944             84.323
 Electronic               0.000              0.000              0.000
 Translational            0.889              2.981             40.409
 Rotational               0.889              2.981             28.492
 Vibrational            104.453             22.982             15.422
 Vibration     1          0.605              1.945              3.359
 Vibration     2          0.624              1.885              2.490
 Vibration     3          0.662              1.765              1.742
 Vibration     4          0.707              1.632              1.301
 Vibration     5          0.726              1.578              1.172
 Vibration     6          0.741              1.538              1.087
 Vibration     7          0.796              1.393              0.841
 Vibration     8          0.864              1.230              0.636
 Vibration     9          0.959              1.030              0.448

 Optimization completed.
    -- Stationary point found.
 Normal termination of Gaussian 09 at Mon Jan 27 13:27:27 2020.
