 Gaussian 09, Revision D.01,
 Gaussian 09:  ES64L-G09RevD.01 24-Apr-2013

 -----------------------------
 # b3lyp 6-31G(2df,p) opt Freq
 -----------------------------

 -----
 titel
 -----
 Symbolic Z-matrix:
 Charge =  0 Multiplicity = 1

 SCF Done:  E(RB3LYP) =  -423.176063951     A.U. after   14 cycles
 SCF Done:  E(RB3LYP) =  -423.176064055     A.U. after    7 cycles
 SCF Done:  E(RB3LYP) =  -423.176064015     A.U. after    6 cycles
 Optimization completed.
    -- Stationary point found.
 Normal termination of Gaussian 09 at Mon Jan 27 18:43:42 2020.

 ----------------------------------------------------------------------
 #N Geom=AllCheck Guess=TCheck SCRF=Check GenChk RB3LYP/6-31G(2df,p) Fr
 eq
 ----------------------------------------------------------------------

 Structure from the checkpoint file:  "/scratch/puck/g09_7add7018-c950-478e-8e46-2d6744877f8e/Gau-81923.chk"
 -----
 titel
 -----
 Charge =  0 Multiplicity = 1

                         Standard orientation:
 ---------------------------------------------------------------------
 Center     Atomic      Atomic             Coordinates (Angstroms)
 Number     Number       Type             X           Y           Z
 ---------------------------------------------------------------------
      1          6           0       -0.002116    1.920737   -0.798536
      2          6           0       -0.530669    0.745238   -0.032001
      3          6           0       -1.995727    0.542684    0.394821
      4          6           0       -1.839655   -0.999401    0.173786
      5          6           0       -0.386443   -0.745961   -0.193795
      6          8           0        0.289996   -1.524542   -1.083907
      7          6           0        0.318455   -0.046033    1.007501
      8          6           0        1.774659   -0.006009    0.900058
      9          8           0        2.400627   -0.071554   -0.149247
     10          1           0        1.031526    1.758944   -1.112813
     11          1           0       -0.607196    2.088741   -1.696426
     12          1           0       -0.038747    2.836081   -0.196230
     13          1           0       -2.252373    0.872183    1.406402
     14          1           0       -2.695160    0.995015   -0.312132
     15          1           0       -2.023366   -1.661141    1.024643
     16          1           0       -2.414677   -1.352362   -0.684988
     17          1           0        1.188960   -1.153624   -1.156430
     18          1           0       -0.068087   -0.144058    2.020411
     19          1           0        2.323106    0.061455    1.861781
 ---------------------------------------------------------------------

 SCF Done:  E(RB3LYP) =  -423.176064015     A.U. after    1 cycles

 The electronic state is 1-A.
 Alpha  occ. eigenvalues --  -19.14476 -19.14303 -10.27534 -10.25630 -10.21214
 Alpha  occ. eigenvalues --  -10.20086 -10.19637 -10.19304 -10.18348  -1.05433
 Alpha  occ. eigenvalues --   -1.03154  -0.90001  -0.75633  -0.73132  -0.65576
 Alpha  occ. eigenvalues --   -0.64633  -0.56874  -0.53423  -0.51250  -0.48453
 Alpha  occ. eigenvalues --   -0.47007  -0.44477  -0.43718  -0.41630  -0.41188
 Alpha  occ. eigenvalues --   -0.38676  -0.38442  -0.37405  -0.35448  -0.34658
 Alpha  occ. eigenvalues --   -0.33347  -0.27687  -0.26265  -0.23423
 Alpha virt. eigenvalues --   -0.03379   0.08988   0.09975   0.11620   0.12302
 Alpha virt. eigenvalues --    0.12444   0.13482   0.15382   0.15917   0.17055
 Alpha virt. eigenvalues --    0.17881   0.18641   0.19941   0.21885   0.22861

 Mulliken charges:
               1
     1  C   -0.511438
     2  C    0.245949
     3  C   -0.281872
     4  C   -0.289341
     5  C    0.411165
     6  O   -0.457208
     7  C   -0.250077
     8  C    0.131951
     9  O   -0.318673
    10  H    0.149122
    11  H    0.123467
    12  H    0.121304
    13  H    0.100783
    14  H    0.112426
    15  H    0.105236
    16  H    0.121899
    17  H    0.305378
    18  H    0.084502
    19  H    0.095428
 Sum of Mulliken charges =   0.00000

 Dipole moment (field-independent basis, Debye):
    X=             -1.6779    Y=              1.2960    Z=              1.7070  Tot=              2.7219
 Quadrupole moment (field-independent basis, Debye-Ang):
   XX=            -55.5070   YY=            -55.1300   ZZ=            -51.4731
   XY=             -0.1051   XZ=              2.2781   YZ=             -1.9429

  Exact polarizability:  90.298   0.905  71.205   2.699  -0.475  72.744
 Approx polarizability: 130.178  -0.146 105.038  -0.090   4.101 116.583

                      1                      2                      3
                      A                      A                      A
 Frequencies --    158.7378               174.1563               211.3577
 Red. masses --      5.6272                 3.7238                 1.1792
 Frc consts  --      0.0835                 0.0665                 0.0310
 IR Inten    --      1.4934                 6.6466                 0.6678

                      4                      5                      6
                      A                      A                      A
 Frequencies --    227.5750               236.8342               254.2409
 Red. masses --      1.7188                 2.5761                 3.2499
 Frc consts  --      0.0524                 0.0851                 0.1238
 IR Inten    --      5.2741                 0.0209                 8.9620

                      7                      8                      9
                      A                      A                      A
 Frequencies --    322.4516               366.4611               414.0086
 Red. masses --      2.7372                 3.4559                 4.0276
 Frc consts  --      0.1677                 0.2734                 0.4067
 IR Inten    --      1.6586                 5.2247                13.4837

                     10                     11                     12
                      A                      A                      A
 Frequencies --    504.7128               608.4277               620.3488
 Red. masses --      2.6846                 3.2249                 1.2486
 Frc consts  --      0.4029                 0.7034                 0.2831
 IR Inten    --      8.9897                 8.5241                84.4551

                     13                     14                     15
                      A                      A                      A
 Frequencies --    650.2031               698.9900               719.5291
 Red. masses --      3.5495                 4.3262                 4.4076
 Frc consts  --      0.8841                 1.2454                 1.3445
 IR Inten    --      6.1332                 3.0374                19.9690

                     16                     17                     18
                      A                      A                      A
 Frequencies --    800.2556               866.2825               926.6255
 Red. masses --      1.2827                 3.6465                 2.3366
 Frc consts  --      0.4840                 1.6123                 1.1821
 IR Inten    --      0.7375                45.6724                 4.7211

                     19                     20                     21
                      A                      A                      A
 Frequencies --    944.7026               970.9516              1020.9312
 Red. masses --      2.5573                 1.3373                 1.4732
 Frc consts  --      1.3447                 0.7428                 0.9047
 IR Inten    --      5.9666                 5.5497                 4.2525

                     22                     23                     24
                      A                      A                      A
 Frequencies --   1051.3552              1055.5259              1092.1314
 Red. masses --      1.6196                 2.4703                 1.9312
 Frc consts  --      1.0548                 1.6216                 1.3571
 IR Inten    --     19.2175                67.4026                 9.7073

                     25                     26                     27
                      A                      A                      A
 Frequencies --   1104.0413              1133.0083              1190.6708
 Red. masses --      1.8330                 1.3714                 2.0836
 Frc consts  --      1.3164                 1.0372                 1.7404
 IR Inten    --     20.4668                 6.2056                39.4913

                     28                     29                     30
                      A                      A                      A
 Frequencies --   1206.6651              1233.0540              1235.1176
 Red. masses --      1.2810                 1.5141                 1.6475
 Frc consts  --      1.0990                 1.3563                 1.4808
 IR Inten    --      2.4063                14.7725                18.2250

                     31                     32                     33
                      A                      A                      A
 Frequencies --   1311.2770              1347.5133              1407.8297
 Red. masses --      2.2872                 1.5880                 1.8165
 Frc consts  --      2.3170                 1.6989                 2.1213
 IR Inten    --    107.7041                74.2353                27.1970

                     34                     35                     36
                      A                      A                      A
 Frequencies --   1414.5516              1432.4393              1456.9202
 Red. masses --      1.4200                 1.6032                 1.9408
 Frc consts  --      1.6741                 1.9382                 2.4271
 IR Inten    --      2.8199                 9.0533                98.8720

                     37                     38                     39
                      A                      A                      A
 Frequencies --   1478.6610              1494.4106              1498.1542
 Red. masses --      1.0840                 1.0783                 1.0484
 Frc consts  --      1.3964                 1.4188                 1.3864
 IR Inten    --      0.2141                 9.6629                 3.6866

                     40                     41                     42
                      A                      A                      A
 Frequencies --   1508.9552              1741.7332              2921.4855
 Red. masses --      1.2880                 7.9465                 1.0842
 Frc consts  --      1.7279                14.2033                 5.4520
 IR Inten    --     16.3630               166.0445               118.9255

                     43                     44                     45
                      A                      A                      A
 Frequencies --   3027.8635              3050.2143              3062.7796
 Red. masses --      1.0381                 1.0590                 1.0607
 Frc consts  --      5.6074                 5.8052                 5.8625
 IR Inten    --     30.5056                44.7274                43.2568

                     46                     47                     48
                      A                      A                      A
 Frequencies --   3084.6394              3102.7926              3118.9553
 Red. masses --      1.1004                 1.1068                 1.0900
 Frc consts  --      6.1690                 6.2781                 6.2476
 IR Inten    --     17.6913                 3.7289                12.4432

                     49                     50                     51
                      A                      A                      A
 Frequencies --   3123.1774              3125.5602              3602.3276
 Red. masses --      1.1052                 1.0979                 1.0648
 Frc consts  --      6.3514                 6.3196                 8.1415
 IR Inten    --     35.2112                 5.5235                95.7493

 - Thermochemistry -
 -------------------
 Temperature   298.150 Kelvin.  Pressure   1.00000 Atm.
 Atom     1 has atomic number  6 and mass  12.00000

 Molecular mass:   126.06808 amu.
 Principal axes and moments of inertia in atomic units:
                           1         2         3
     Eigenvalues --   720.614421158.635191394.86796
           X            0.99997   0.00807  -0.00088
           Y           -0.00811   0.99745  -0.07086
           Z            0.00031   0.07086   0.99749
 This molecule is an asymmetric top.
 Rotational symmetry number  1.
 Warning -- assumption of classical behavior for rotation
           may cause significant error
 Rotational temperatures (Kelvin)      0.12019     0.07476     0.06209
 Rotational constants (GHZ):           2.50445     1.55764     1.29384
 Zero-point vibrational energy     414575.4 (Joules/Mol)
                                   99.08590 (Kcal/Mol)
 Warning -- explicit consideration of  12 degrees of freedom as
           vibrations may cause significant error
 Vibrational temperatures:    228.39   250.57   304.10   327.43   340.75
          (Kelvin)            365.80   463.94   527.26   595.67   726.17
                              875.39   892.54   935.50  1005.69  1035.24
                             1151.39  1246.39  1333.21  1359.21  1396.98
                             1468.89  1512.66  1518.66  1571.33  1588.47
                             1630.14  1713.11  1736.12  1774.09  1777.06
                             1886.63  1938.77  2025.55  2035.22  2060.96
                             2096.18  2127.46  2150.12  2155.51  2171.05
                             2505.96  4203.36  4356.41  4388.57  4406.65
                             4438.10  4464.22  4487.48  4493.55  4496.98
                             5182.94

 Zero-point correction=                           0.157903 (Hartree/Particle)
 Thermal correction to Energy=                    0.166497
 Thermal correction to Enthalpy=                  0.167441
 Thermal correction to Gibbs Free Energy=         0.125353
 Sum of electronic and zero-point Energies=           -423.018161
 Sum of electronic and thermal Energies=              -423.009567
 Sum of electronic and thermal Enthalpies=            -423.008623
 Sum of electronic and thermal Free Energies=         -423.050711

                     E (Thermal)             CV                S
                      KCal/Mol        Cal/Mol-Kelvin    Cal/Mol-Kelvin
 Total                  104.478             33.398             88.582
 Electronic               0.000              0.000              0.000
 Translational            0.889              2.981             40.409
 Rotational               0.889              2.981             28.545
 Vibrational            102.701             27.436             19.628
 Vibration     1          0.621              1.893              2.565
 Vibration     2          0.627              1.874              2.390
 Vibration     3          0.643              1.824              2.032
 Vibration     4          0.651              1.799              1.898
 Vibration     5          0.656              1.784              1.827
 Vibration     6          0.665              1.756              1.701
 Vibration     7          0.707              1.630              1.298
 Vibration     8          0.739              1.541              1.095
 Vibration     9          0.778              1.440              0.913
 Vibration    10          0.860              1.240              0.646
 Vibration    11          0.967              1.014              0.435
 Vibration    12          0.980              0.989              0.416

 Normal termination of Gaussian 09 at Mon Jan 27 19:33:46 2020.
