 Gaussian 09, Revision D.01,
 Gaussian 09:  ES64L-G09RevD.01 24-Apr-2013

 -----------------------------
 # b3lyp 6-31G(2df,p) opt Freq
 -----------------------------

 -----
 titel
 -----
 Symbolic Z-matrix:
 Charge =  0 Multiplicity = 1

 SCF Done:  E(RB3LYP) =  -423.187219789     A.U. after   14 cycles
 Optimization completed.
    -- Stationary point found.
 Normal termination of Gaussian 09 at Tue Jan 28 00:04:02 2020.

 ----------------------------------------------------------------------
 #N Geom=AllCheck Guess=TCheck SCRF=Check GenChk RB3LYP/6-31G(2df,p) Fr
 eq
 ----------------------------------------------------------------------

 Structure from the checkpoint file:  "/scratch/puck/g09_226fa1f6-ad50-4c2e-abaa-547693b9d8cf/Gau-56588.chk"
 -----
 titel
 -----
 Charge =  0 Multiplicity = 1

                         Standard orientation:
 ---------------------------------------------------------------------
 Center     Atomic      Atomic             Coordinates (Angstroms)
 Number     Number       Type             X           Y           Z
 ---------------------------------------------------------------------
      1          8           0       -2.803437   -1.090557    0.028236
      2          6           0       -1.701472   -0.306576    0.379544
      3          6           0       -1.133945    0.513766   -0.737275
      4          6           0       -0.372609    1.778410   -0.376445
      5          6           0        0.624340    1.350210    0.728920
      6          6           0        0.895581   -0.171170    0.516277
      7          6           0        2.110011   -0.384647   -0.363251
      8          8           0        3.056935   -1.071116   -0.077129
      9          6           0       -0.354335   -0.679057   -0.202703
     10          1           0       -2.762445   -1.908478    0.535307
     11          1           0       -1.742830    0.118443    1.383671
     12          1           0       -1.650152    0.449956   -1.688104
     13          1           0        0.163450    2.138801   -1.261723
     14          1           0       -1.021952    2.594262   -0.041287
     15          1           0        1.545166    1.940915    0.710972
     16          1           0        0.184968    1.493802    1.719678
     17          1           0        1.087213   -0.688143    1.461935
     18          1           0        2.069940    0.156342   -1.338862
     19          1           0       -0.306766   -1.608126   -0.760843
 ---------------------------------------------------------------------

 SCF Done:  E(RB3LYP) =  -423.187219789     A.U. after    1 cycles

 The electronic state is 1-A.
 Alpha  occ. eigenvalues --  -19.14921 -19.13728 -10.26743 -10.24125 -10.20071
 Alpha  occ. eigenvalues --  -10.19791 -10.19781 -10.19478 -10.19387  -1.04421
 Alpha  occ. eigenvalues --   -1.03477  -0.88587  -0.77685  -0.73429  -0.63869
 Alpha  occ. eigenvalues --   -0.60111  -0.56885  -0.55789  -0.53498  -0.48685
 Alpha  occ. eigenvalues --   -0.46742  -0.46120  -0.43827  -0.42929  -0.40116
 Alpha  occ. eigenvalues --   -0.38961  -0.36472  -0.35902  -0.35202  -0.34406
 Alpha  occ. eigenvalues --   -0.32435  -0.28035  -0.26570  -0.24200
 Alpha virt. eigenvalues --   -0.02009   0.07116   0.08810   0.09552   0.11357
 Alpha virt. eigenvalues --    0.12451   0.12747   0.15214   0.16199   0.16618
 Alpha virt. eigenvalues --    0.17543   0.18853   0.19647   0.21268   0.22087

 Mulliken charges:
               1
     1  O   -0.430730
     2  C    0.078714
     3  C   -0.043495
     4  C   -0.227639
     5  C   -0.262051
     6  C   -0.091510
     7  C    0.162034
     8  O   -0.253665
     9  C   -0.103281
    10  H    0.287664
    11  H    0.083637
    12  H    0.099011
    13  H    0.108116
    14  H    0.106587
    15  H    0.112300
    16  H    0.117761
    17  H    0.088632
    18  H    0.071630
    19  H    0.096283
 Sum of Mulliken charges =   0.00000

 Dipole moment (field-independent basis, Debye):
    X=             -1.6202    Y=              0.9681    Z=              0.6610  Tot=              1.9997
 Quadrupole moment (field-independent basis, Debye-Ang):
   XX=            -67.4100   YY=            -50.2839   ZZ=            -50.7980
   XY=              6.7098   XZ=             -2.7832   YZ=             -1.3290

  Exact polarizability:  86.379  -1.643  75.114  -0.151  -2.748  66.206
 Approx polarizability: 120.954  -7.769 110.494   1.150  -6.002 102.241

                      1                      2                      3
                      A                      A                      A
 Frequencies --     56.8086               109.4174               185.8929
 Red. masses --      5.3033                 3.4479                 2.8108
 Frc consts  --      0.0101                 0.0243                 0.0572
 IR Inten    --      6.2823                 4.7419                 0.5367

                      4                      5                      6
                      A                      A                      A
 Frequencies --    250.1507               275.7678               320.5029
 Red. masses --      1.9509                 2.3339                 1.7950
 Frc consts  --      0.0719                 0.1046                 0.1086
 IR Inten    --     18.4352                 1.9656                22.6224

                      7                      8                      9
                      A                      A                      A
 Frequencies --    338.2387               357.4801               431.4892
 Red. masses --      1.7836                 2.6831                 4.8045
 Frc consts  --      0.1202                 0.2020                 0.5270
 IR Inten    --     57.5690                13.5847                 0.4363

                     10                     11                     12
                      A                      A                      A
 Frequencies --    451.3275               648.4783               735.2557
 Red. masses --      4.8618                 2.5500                 3.4161
 Frc consts  --      0.5835                 0.6318                 1.0881
 IR Inten    --     27.9649                 1.0738                 0.5424

                     13                     14                     15
                      A                      A                      A
 Frequencies --    809.7363               842.7937               868.7242
 Red. masses --      1.7547                 2.7798                 2.9541
 Frc consts  --      0.6778                 1.1633                 1.3135
 IR Inten    --     11.5941                 0.4650                 9.8962

                     16                     17                     18
                      A                      A                      A
 Frequencies --    904.4902               922.0787               953.9552
 Red. masses --      2.8958                 2.0833                 1.8131
 Frc consts  --      1.3958                 1.0436                 0.9721
 IR Inten    --      5.8621                11.4122                12.3378

                     19                     20                     21
                      A                      A                      A
 Frequencies --    976.5969               998.7117              1036.8528
 Red. masses --      2.1812                 1.9178                 1.5059
 Frc consts  --      1.2257                 1.1270                 0.9538
 IR Inten    --      0.2994                10.9706                 3.7694

                     22                     23                     24
                      A                      A                      A
 Frequencies --   1045.5745              1086.6699              1105.6684
 Red. masses --      1.4080                 1.2646                 2.3894
 Frc consts  --      0.9069                 0.8798                 1.7210
 IR Inten    --      3.0940                 0.9817                 4.1962

                     25                     26                     27
                      A                      A                      A
 Frequencies --   1121.7325              1153.7274              1190.0623
 Red. masses --      2.0831                 2.0788                 2.1890
 Frc consts  --      1.5443                 1.6303                 1.8265
 IR Inten    --      2.9424                94.7218                 6.1566

                     28                     29                     30
                      A                      A                      A
 Frequencies --   1196.8820              1205.6494              1259.2590
 Red. masses --      1.3863                 1.4704                 1.3142
 Frc consts  --      1.1700                 1.2593                 1.2278
 IR Inten    --      2.4159                 4.3941                 2.3833

                     31                     32                     33
                      A                      A                      A
 Frequencies --   1278.2249              1299.6083              1310.6565
 Red. masses --      1.3519                 1.2551                 1.5927
 Frc consts  --      1.3014                 1.2489                 1.6120
 IR Inten    --     13.1960                30.4648                31.6151

                     34                     35                     36
                      A                      A                      A
 Frequencies --   1320.1807              1347.3610              1356.0795
 Red. masses --      1.3777                 1.6236                 1.3519
 Frc consts  --      1.4147                 1.7366                 1.4648
 IR Inten    --      2.0752                 8.6140                 1.8775

                     37                     38                     39
                      A                      A                      A
 Frequencies --   1430.8529              1466.3142              1490.9747
 Red. masses --      1.2083                 2.1614                 1.0835
 Frc consts  --      1.4575                 2.7380                 1.4192
 IR Inten    --      3.3541                 9.4908                 3.4466

                     40                     41                     42
                      A                      A                      A
 Frequencies --   1504.9805              1832.0829              2848.5315
 Red. masses --      1.1020                10.2280                 1.0811
 Frc consts  --      1.4706                20.2270                 5.1686
 IR Inten    --      3.8722               206.6519                91.3167

                     43                     44                     45
                      A                      A                      A
 Frequencies --   3037.2378              3055.0878              3065.5877
 Red. masses --      1.0602                 1.0693                 1.0803
 Frc consts  --      5.7622                 5.8804                 5.9817
 IR Inten    --     34.7558                10.7069                22.8899

                     46                     47                     48
                      A                      A                      A
 Frequencies --   3072.7039              3082.9994              3100.8857
 Red. masses --      1.1001                 1.0887                 1.1032
 Frc consts  --      6.1196                 6.0970                 6.2498
 IR Inten    --     23.8448                25.9920                35.7965

                     49                     50                     51
                      A                      A                      A
 Frequencies --   3168.7169              3185.6971              3801.6280
 Red. masses --      1.0888                 1.0913                 1.0662
 Frc consts  --      6.4412                 6.5252                 9.0788
 IR Inten    --      7.3585                 8.5646                22.8008

 - Thermochemistry -
 -------------------
 Temperature   298.150 Kelvin.  Pressure   1.00000 Atm.
 Atom     1 has atomic number  8 and mass  15.99491

 Molecular mass:   126.06808 amu.
 Principal axes and moments of inertia in atomic units:
                           1         2         3
     Eigenvalues --   606.237311626.101451972.12748
           X            0.99983   0.01832  -0.00218
           Y           -0.01833   0.99982  -0.00461
           Z            0.00210   0.00465   0.99999
 This molecule is an asymmetric top.
 Rotational symmetry number  1.
 Warning -- assumption of classical behavior for rotation
           may cause significant error
 Rotational temperatures (Kelvin)      0.14287     0.05326     0.04392
 Rotational constants (GHZ):           2.97696     1.10986     0.91512
 Zero-point vibrational energy     418073.1 (Joules/Mol)
                                   99.92187 (Kcal/Mol)
 Warning -- explicit consideration of  10 degrees of freedom as
           vibrations may cause significant error
 Vibrational temperatures:     81.73   157.43   267.46   359.91   396.77
          (Kelvin)            461.13   486.65   514.33   620.82   649.36
                              933.01  1057.87  1165.03  1212.59  1249.90
                             1301.36  1326.66  1372.53  1405.10  1436.92
                             1491.80  1504.35  1563.47  1590.81  1613.92
                             1659.95  1712.23  1722.04  1734.66  1811.79
                             1839.08  1869.84  1885.74  1899.44  1938.55
                             1951.09  2058.68  2109.70  2145.18  2165.33
                             2635.96  4098.40  4369.90  4395.58  4410.69
                             4420.93  4435.74  4461.48  4559.07  4583.50
                             5469.69

 Zero-point correction=                           0.159236 (Hartree/Particle)
 Thermal correction to Energy=                    0.167760
 Thermal correction to Enthalpy=                  0.168704
 Thermal correction to Gibbs Free Energy=         0.125620
 Sum of electronic and zero-point Energies=           -423.027984
 Sum of electronic and thermal Energies=              -423.019460
 Sum of electronic and thermal Enthalpies=            -423.018516
 Sum of electronic and thermal Free Energies=         -423.061599

                     E (Thermal)             CV                S
                      KCal/Mol        Cal/Mol-Kelvin    Cal/Mol-Kelvin
 Total                  105.271             32.119             90.677
 Electronic               0.000              0.000              0.000
 Translational            0.889              2.981             40.409
 Rotational               0.889              2.981             29.054
 Vibrational            103.494             26.158             21.215
 Vibration     1          0.596              1.975              4.565
 Vibration     2          0.606              1.942              3.279
 Vibration     3          0.632              1.859              2.268
 Vibration     4          0.663              1.763              1.730
 Vibration     5          0.677              1.718              1.560
 Vibration     6          0.706              1.634              1.308
 Vibration     7          0.719              1.599              1.220
 Vibration     8          0.733              1.560              1.133
 Vibration     9          0.793              1.402              0.854
 Vibration    10          0.810              1.358              0.792

 Optimization completed.
    -- Stationary point found.
 Normal termination of Gaussian 09 at Tue Jan 28 01:22:43 2020.
