 Gaussian 09, Revision D.01,
 Gaussian 09:  ES64L-G09RevD.01 24-Apr-2013

 -----------------------------
 # b3lyp 6-31G(2df,p) opt Freq
 -----------------------------

 -----
 titel
 -----
 Symbolic Z-matrix:
 Charge =  0 Multiplicity = 1

 SCF Done:  E(RB3LYP) =  -423.229865399     A.U. after   14 cycles
 Optimization completed.
    -- Stationary point found.
 Normal termination of Gaussian 09 at Tue Jan 28 13:23:53 2020.

 ----------------------------------------------------------------------
 #N Geom=AllCheck Guess=TCheck SCRF=Check GenChk RB3LYP/6-31G(2df,p) Fr
 eq
 ----------------------------------------------------------------------

 Structure from the checkpoint file:  "/scratch/puck/g09_f1383840-090d-4ea2-a897-7b8bfe4e338a/Gau-7962.chk"
 -----
 titel
 -----
 Charge =  0 Multiplicity = 1

                         Standard orientation:
 ---------------------------------------------------------------------
 Center     Atomic      Atomic             Coordinates (Angstroms)
 Number     Number       Type             X           Y           Z
 ---------------------------------------------------------------------
      1          6           0       -2.966367   -0.659663    0.148481
      2          6           0       -1.955232    0.488502    0.209566
      3          6           0       -0.677749    0.204445   -0.571690
      4          8           0       -0.024465   -0.968634   -0.032349
      5          6           0        1.338186   -0.831026   -0.009420
      6          8           0        2.069675   -1.758144    0.183025
      7          6           0        1.684903    0.605135   -0.245528
      8          6           0        1.058586    1.559832    0.757005
      9          6           0        0.381817    1.299961   -0.553069
     10          1           0       -3.868190   -0.416420    0.717526
     11          1           0       -3.268303   -0.866328   -0.884243
     12          1           0       -2.536939   -1.576078    0.561083
     13          1           0       -2.396173    1.404710   -0.203488
     14          1           0       -1.693699    0.708321    1.250547
     15          1           0       -0.936486   -0.027957   -1.614423
     16          1           0        2.638552    0.833164   -0.700488
     17          1           0        0.641918    1.148780    1.670196
     18          1           0        1.557510    2.514332    0.877961
     19          1           0        0.315272    2.088590   -1.292142
 ---------------------------------------------------------------------

 SCF Done:  E(RB3LYP) =  -423.229865399     A.U. after    1 cycles

 The electronic state is 1-A.
 Alpha  occ. eigenvalues --  -19.17426 -19.11790 -10.30075 -10.25408 -10.21550
 Alpha  occ. eigenvalues --  -10.21274 -10.21134 -10.19403 -10.17901  -1.09359
 Alpha  occ. eigenvalues --   -1.01642  -0.88540  -0.79662  -0.70931  -0.65707
 Alpha  occ. eigenvalues --   -0.62171  -0.60283  -0.55976  -0.53228  -0.48570
 Alpha  occ. eigenvalues --   -0.46460  -0.44346  -0.43550  -0.42063  -0.41577
 Alpha  occ. eigenvalues --   -0.41018  -0.37705  -0.36063  -0.35103  -0.33857
 Alpha  occ. eigenvalues --   -0.32086  -0.30812  -0.28944  -0.26042
 Alpha virt. eigenvalues --    0.01182   0.07596   0.09533   0.11259   0.12062
 Alpha virt. eigenvalues --    0.12256   0.13556   0.14357   0.16260   0.16671
 Alpha virt. eigenvalues --    0.16787   0.18512   0.19356   0.20999   0.21837

 Mulliken charges:
               1
     1  C   -0.386059
     2  C   -0.186220
     3  C    0.111844
     4  O   -0.245452
     5  C    0.440477
     6  O   -0.345483
     7  C   -0.187777
     8  C   -0.291322
     9  C   -0.069809
    10  H    0.114978
    11  H    0.115381
    12  H    0.143316
    13  H    0.101879
    14  H    0.106019
    15  H    0.091030
    16  H    0.119597
    17  H    0.135390
    18  H    0.127834
    19  H    0.104375
 Sum of Mulliken charges =   0.00000

 Dipole moment (field-independent basis, Debye):
    X=             -1.7930    Y=              4.0048    Z=             -0.8637  Tot=              4.4720
 Quadrupole moment (field-independent basis, Debye-Ang):
   XX=            -55.1310   YY=            -57.3167   ZZ=            -50.9442
   XY=              6.4687   XZ=             -0.9940   YZ=              0.2701

  Exact polarizability:  88.267  -2.027  75.889   1.803   0.333  62.412
 Approx polarizability: 118.481 -11.175 113.734   4.424  -0.931  97.358

                      1                      2                      3
                      A                      A                      A
 Frequencies --     95.4861               120.6971               153.4186
 Red. masses --      2.3633                 3.5200                 3.3498
 Frc consts  --      0.0127                 0.0302                 0.0465
 IR Inten    --      0.6847                 0.0920                 1.3904

                      4                      5                      6
                      A                      A                      A
 Frequencies --    206.3439               237.5899               320.3948
 Red. masses --      1.9495                 1.5795                 2.9216
 Frc consts  --      0.0489                 0.0525                 0.1767
 IR Inten    --      0.8095                 0.9913                 0.6432

                      7                      8                      9
                      A                      A                      A
 Frequencies --    399.5565               474.1116               499.7547
 Red. masses --      3.3823                 3.1774                 4.2622
 Frc consts  --      0.3181                 0.4208                 0.6272
 IR Inten    --      1.0115                 2.3059                 4.2224

                     10                     11                     12
                      A                      A                      A
 Frequencies --    618.3897               682.1115               767.5188
 Red. masses --      4.5945                 2.5885                 3.8444
 Frc consts  --      1.0352                 0.7096                 1.3343
 IR Inten    --      3.6040                 0.0821                 3.6563

                     13                     14                     15
                      A                      A                      A
 Frequencies --    781.2455               814.3948               834.8803
 Red. masses --      1.9492                 2.0158                 1.9802
 Frc consts  --      0.7009                 0.7877                 0.8132
 IR Inten    --      2.4218                 3.0529                11.9113

                     16                     17                     18
                      A                      A                      A
 Frequencies --    847.7011               921.8995               968.4482
 Red. masses --      1.7458                 2.5732                 2.1510
 Frc consts  --      0.7391                 1.2885                 1.1886
 IR Inten    --      3.6657                 6.8501                 4.8199

                     19                     20                     21
                      A                      A                      A
 Frequencies --    980.5354               989.9632              1007.3631
 Red. masses --      2.9866                 2.2982                 1.9983
 Frc consts  --      1.6918                 1.3270                 1.1948
 IR Inten    --    101.8943                22.2929                29.2995

                     22                     23                     24
                      A                      A                      A
 Frequencies --   1059.8147              1072.9350              1088.8715
 Red. masses --      1.5220                 1.4956                 1.6385
 Frc consts  --      1.0072                 1.0144                 1.1446
 IR Inten    --     15.2440                 6.9311                22.5753

                     25                     26                     27
                      A                      A                      A
 Frequencies --   1100.9218              1128.6624              1164.7987
 Red. masses --      1.2155                 2.3837                 2.1428
 Frc consts  --      0.8680                 1.7891                 1.7129
 IR Inten    --      0.4068                35.3682                 4.1841

                     28                     29                     30
                      A                      A                      A
 Frequencies --   1194.6687              1198.5940              1290.9762
 Red. masses --      1.8124                 2.0535                 1.2149
 Frc consts  --      1.5240                 1.7381                 1.1929
 IR Inten    --     79.3551                35.6492                 0.1098

                     31                     32                     33
                      A                      A                      A
 Frequencies --   1317.9066              1331.1242              1363.3976
 Red. masses --      1.5526                 1.6837                 1.8317
 Frc consts  --      1.5889                 1.7578                 2.0060
 IR Inten    --     39.5356                 1.9291                10.6809

                     34                     35                     36
                      A                      A                      A
 Frequencies --   1389.5793              1406.6136              1413.2612
 Red. masses --      1.5361                 1.5586                 1.2312
 Frc consts  --      1.7476                 1.8169                 1.4489
 IR Inten    --      3.1421                 7.7504                 1.9272

                     37                     38                     39
                      A                      A                      A
 Frequencies --   1475.3623              1489.3790              1497.5483
 Red. masses --      1.0830                 1.2257                 1.0431
 Frc consts  --      1.3889                 1.6020                 1.3783
 IR Inten    --      0.4419                 3.3067                 5.6332

                     40                     41                     42
                      A                      A                      A
 Frequencies --   1508.4543              1880.8831              3006.0351
 Red. masses --      1.0615                12.6206                 1.0840
 Frc consts  --      1.4231                26.3059                 5.7712
 IR Inten    --      5.6915               425.0521                31.0276

                     43                     44                     45
                      A                      A                      A
 Frequencies --   3031.1187              3039.3477              3072.8256
 Red. masses --      1.0618                 1.0378                 1.0988
 Frc consts  --      5.7477                 5.6486                 6.1126
 IR Inten    --     20.9857                24.7450                17.9540

                     46                     47                     48
                      A                      A                      A
 Frequencies --   3106.1937              3126.6891              3138.1390
 Red. masses --      1.1003                 1.1016                 1.0541
 Frc consts  --      6.2549                 6.3449                 6.1161
 IR Inten    --     34.9609                20.3482                 9.1112

                     49                     50                     51
                      A                      A                      A
 Frequencies --   3190.9576              3217.3091              3228.1956
 Red. masses --      1.0917                 1.0981                 1.1118
 Frc consts  --      6.5493                 6.6967                 6.8266
 IR Inten    --      7.0408                 1.2264                 5.8631

 - Thermochemistry -
 -------------------
 Temperature   298.150 Kelvin.  Pressure   1.00000 Atm.
 Atom     1 has atomic number  6 and mass  12.00000

 Molecular mass:   126.06808 amu.
 Principal axes and moments of inertia in atomic units:
                           1         2         3
     Eigenvalues --   647.129771343.388961789.41539
           X            0.99843   0.05590  -0.00367
           Y           -0.05587   0.99840   0.00828
           Z            0.00412  -0.00806   0.99996
 This molecule is an asymmetric top.
 Rotational symmetry number  1.
 Warning -- assumption of classical behavior for rotation
           may cause significant error
 Rotational temperatures (Kelvin)      0.13384     0.06447     0.04840
 Rotational constants (GHZ):           2.78884     1.34342     1.00856
 Zero-point vibrational energy     420202.5 (Joules/Mol)
                                  100.43080 (Kcal/Mol)
 Warning -- explicit consideration of  10 degrees of freedom as
           vibrations may cause significant error
 Vibrational temperatures:    137.38   173.66   220.73   296.88   341.84
          (Kelvin)            460.98   574.87   682.14   719.03   889.72
                              981.41  1104.29  1124.04  1171.73  1201.21
                             1219.65  1326.41  1393.38  1410.77  1424.33
                             1449.37  1524.84  1543.71  1566.64  1583.98
                             1623.89  1675.88  1718.86  1724.51  1857.42
                             1896.17  1915.19  1961.62  1999.29  2023.80
                             2033.37  2122.71  2142.88  2154.64  2170.33
                             2706.17  4325.01  4361.10  4372.94  4421.11
                             4469.11  4498.60  4515.08  4591.07  4628.98
                             4644.65

 Zero-point correction=                           0.160047 (Hartree/Particle)
 Thermal correction to Energy=                    0.168308
 Thermal correction to Enthalpy=                  0.169252
 Thermal correction to Gibbs Free Energy=         0.126967
 Sum of electronic and zero-point Energies=           -423.069819
 Sum of electronic and thermal Energies=              -423.061558
 Sum of electronic and thermal Enthalpies=            -423.060613
 Sum of electronic and thermal Free Energies=         -423.102898

                     E (Thermal)             CV                S
                      KCal/Mol        Cal/Mol-Kelvin    Cal/Mol-Kelvin
 Total                  105.615             31.381             88.996
 Electronic               0.000              0.000              0.000
 Translational            0.889              2.981             40.409
 Rotational               0.889              2.981             28.833
 Vibrational            103.837             25.420             19.755
 Vibration     1          0.603              1.952              3.544
 Vibration     2          0.609              1.932              3.089
 Vibration     3          0.619              1.899              2.629
 Vibration     4          0.641              1.831              2.076
 Vibration     5          0.656              1.783              1.821
 Vibration     6          0.706              1.635              1.308
 Vibration     7          0.766              1.471              0.964
 Vibration     8          0.831              1.307              0.726
 Vibration     9          0.855              1.251              0.659
 Vibration    10          0.978              0.993              0.419

 Optimization completed.
    -- Stationary point found.
 Normal termination of Gaussian 09 at Tue Jan 28 14:11:48 2020.
