 Gaussian 09, Revision D.01,
 Gaussian 09:  ES64L-G09RevD.01 24-Apr-2013

 -----------------------------
 # b3lyp 6-31G(2df,p) opt Freq
 -----------------------------

 -----
 titel
 -----
 Symbolic Z-matrix:
 Charge =  0 Multiplicity = 1

 SCF Done:  E(RB3LYP) =  -423.179020953     A.U. after   13 cycles
 Optimization completed.
    -- Stationary point found.
 Normal termination of Gaussian 09 at Mon Jan 27 22:55:20 2020.

 ----------------------------------------------------------------------
 #N Geom=AllCheck Guess=TCheck SCRF=Check GenChk RB3LYP/6-31G(2df,p) Fr
 eq
 ----------------------------------------------------------------------

 Structure from the checkpoint file:  "/scratch/puck/g09_9c7e16bb-6e7e-4275-962b-5350ead92671/Gau-183372.chk"
 -----
 titel
 -----
 Charge =  0 Multiplicity = 1

                         Standard orientation:
 ---------------------------------------------------------------------
 Center     Atomic      Atomic             Coordinates (Angstroms)
 Number     Number       Type             X           Y           Z
 ---------------------------------------------------------------------
      1          6           0       -3.116877    0.100703   -0.365500
      2          6           0       -1.657528    0.071562   -0.040063
      3          6           0       -0.748944    1.021282   -0.290458
      4          6           0        0.623963    0.609651    0.101833
      5          8           0        1.492760    1.575556    0.582764
      6          6           0        1.189014   -0.582464   -0.631606
      7          8           0        2.591926   -0.622199   -0.606993
      8          6           0        0.463210   -0.801470    0.683169
      9          6           0       -1.021169   -1.137805    0.634225
     10          1           0       -3.386465   -0.695121   -1.071716
     11          1           0       -3.725094   -0.064424    0.533464
     12          1           0       -3.412412    1.056327   -0.806563
     13          1           0       -0.944938    1.979578   -0.757690
     14          1           0        2.381705    1.267790    0.356662
     15          1           0        0.735591   -0.911476   -1.567317
     16          1           0        2.874885   -1.481627   -0.277354
     17          1           0        1.072519   -1.112331    1.525170
     18          1           0       -1.223743   -2.059891    0.071436
     19          1           0       -1.439557   -1.294437    1.638144
 ---------------------------------------------------------------------

 SCF Done:  E(RB3LYP) =  -423.179020953     A.U. after    1 cycles

 The electronic state is 1-A.
 Alpha  occ. eigenvalues --  -19.15769 -19.13214 -10.23286 -10.23218 -10.18803
 Alpha  occ. eigenvalues --  -10.18609 -10.18293 -10.18165 -10.17105  -1.04705
 Alpha  occ. eigenvalues --   -1.01324  -0.86989  -0.77883  -0.70287  -0.69384
 Alpha  occ. eigenvalues --   -0.60339  -0.56993  -0.52958  -0.52174  -0.49283
 Alpha  occ. eigenvalues --   -0.47353  -0.43165  -0.42262  -0.41371  -0.39640
 Alpha  occ. eigenvalues --   -0.38063  -0.37151  -0.36388  -0.34715  -0.33478
 Alpha  occ. eigenvalues --   -0.30778  -0.28310  -0.24638  -0.20935
 Alpha virt. eigenvalues --    0.02049   0.07023   0.09670   0.11523   0.12823
 Alpha virt. eigenvalues --    0.13604   0.14758   0.14977   0.17312   0.17547
 Alpha virt. eigenvalues --    0.18318   0.19515   0.19858   0.22922   0.23242

 Mulliken charges:
               1
     1  C   -0.486651
     2  C    0.318725
     3  C   -0.252964
     4  C    0.419890
     5  O   -0.484676
     6  C    0.014237
     7  O   -0.440689
     8  C   -0.196779
     9  C   -0.327737
    10  H    0.124575
    11  H    0.124151
    12  H    0.126142
    13  H    0.094324
    14  H    0.290224
    15  H    0.087474
    16  H    0.292546
    17  H    0.085187
    18  H    0.104044
    19  H    0.107978
 Sum of Mulliken charges =   0.00000

 Dipole moment (field-independent basis, Debye):
    X=             -0.3944    Y=             -2.4811    Z=             -0.1483  Tot=              2.5167
 Quadrupole moment (field-independent basis, Debye-Ang):
   XX=            -48.5687   YY=            -52.5993   ZZ=            -54.2047
   XY=             -4.0695   XZ=              1.6596   YZ=             -2.2425

  Exact polarizability:  98.656   3.109  74.961  -0.076  -4.544  60.671
 Approx polarizability: 131.821  12.275 120.323  -3.833  -7.328  94.230

                      1                      2                      3
                      A                      A                      A
 Frequencies --    125.7592               173.9940               235.1528
 Red. masses --      3.4079                 1.0825                 2.4492
 Frc consts  --      0.0318                 0.0193                 0.0798
 IR Inten    --      0.4922                 0.2192                 2.9298

                      4                      5                      6
                      A                      A                      A
 Frequencies --    247.6233               271.6328               286.2846
 Red. masses --      2.7434                 2.5267                 2.3791
 Frc consts  --      0.0991                 0.1098                 0.1149
 IR Inten    --     16.8049                 4.5584                24.9291

                      7                      8                      9
                      A                      A                      A
 Frequencies --    298.3283               389.1752               427.7740
 Red. masses --      1.8880                 3.0080                 2.6756
 Frc consts  --      0.0990                 0.2684                 0.2885
 IR Inten    --     23.2669                 1.9223                 8.5347

                     10                     11                     12
                      A                      A                      A
 Frequencies --    438.3098               468.4856               501.0725
 Red. masses --      1.1729                 2.8074                 3.1092
 Frc consts  --      0.1328                 0.3630                 0.4599
 IR Inten    --     92.5990                13.3732                10.7850

                     13                     14                     15
                      A                      A                      A
 Frequencies --    635.4136               689.2922               761.2059
 Red. masses --      3.8198                 4.9498                 3.7467
 Frc consts  --      0.9087                 1.3856                 1.2791
 IR Inten    --      3.8857                13.7179                 1.4818

                     16                     17                     18
                      A                      A                      A
 Frequencies --    814.4587               855.1826               892.1410
 Red. masses --      2.3499                 2.1224                 2.9869
 Frc consts  --      0.9184                 0.9145                 1.4007
 IR Inten    --     18.8186                 7.2396                 7.1094

                     19                     20                     21
                      A                      A                      A
 Frequencies --    910.7455               966.2994               988.4152
 Red. masses --      1.6341                 1.7598                 1.7631
 Frc consts  --      0.7986                 0.9681                 1.0148
 IR Inten    --      2.9428                 6.4986                16.1800

                     22                     23                     24
                      A                      A                      A
 Frequencies --   1017.0789              1050.3429              1071.2924
 Red. masses --      1.5725                 1.2962                 1.9503
 Frc consts  --      0.9584                 0.8425                 1.3188
 IR Inten    --      2.0802                 5.1960                 7.0604

                     25                     26                     27
                      A                      A                      A
 Frequencies --   1084.3878              1124.5590              1158.4954
 Red. masses --      1.7769                 4.0372                 1.8852
 Frc consts  --      1.2311                 3.0082                 1.4907
 IR Inten    --     15.1878                66.9877                16.7763

                     28                     29                     30
                      A                      A                      A
 Frequencies --   1187.8303              1196.3714              1246.3049
 Red. masses --      1.4859                 1.4613                 1.9592
 Frc consts  --      1.2352                 1.2323                 1.7930
 IR Inten    --     20.9620                13.4394                 8.5915

                     31                     32                     33
                      A                      A                      A
 Frequencies --   1281.6614              1288.3108              1320.8359
 Red. masses --      1.3088                 1.5461                 1.9071
 Frc consts  --      1.2667                 1.5119                 1.9603
 IR Inten    --     21.9086                45.1537                98.7520

                     34                     35                     36
                      A                      A                      A
 Frequencies --   1338.3152              1413.8242              1422.8895
 Red. masses --      1.8106                 1.2871                 2.8536
 Frc consts  --      1.9107                 1.5158                 3.4040
 IR Inten    --     26.2467                 0.3267                40.9614

                     37                     38                     39
                      A                      A                      A
 Frequencies --   1439.1746              1473.7837              1478.7103
 Red. masses --      1.8904                 1.0937                 1.0465
 Frc consts  --      2.3069                 1.3996                 1.3483
 IR Inten    --     26.2571                 2.3432                 8.1507

                     40                     41                     42
                      A                      A                      A
 Frequencies --   1489.6061              1709.2863              3004.1490
 Red. masses --      1.0774                 7.0235                 1.0577
 Frc consts  --      1.4086                12.0902                 5.6240
 IR Inten    --      9.0866                11.6749                32.9924

                     43                     44                     45
                      A                      A                      A
 Frequencies --   3015.5089              3030.8676              3058.9396
 Red. masses --      1.0397                 1.1022                 1.0983
 Frc consts  --      5.5702                 5.9654                 6.0552
 IR Inten    --     51.2450                21.2677                21.8146

                     46                     47                     48
                      A                      A                      A
 Frequencies --   3091.5279              3111.8244              3169.6929
 Red. masses --      1.0887                 1.0985                 1.0901
 Frc consts  --      6.1306                 6.2671                 6.4530
 IR Inten    --     27.9425                18.0676                11.9087

                     49                     50                     51
                      A                      A                      A
 Frequencies --   3199.8513              3745.3739              3802.6557
 Red. masses --      1.0942                 1.0648                 1.0666
 Frc consts  --      6.6011                 8.8004                 9.0868
 IR Inten    --     10.6770                59.0741                22.9801

 - Thermochemistry -
 -------------------
 Temperature   298.150 Kelvin.  Pressure   1.00000 Atm.
 Atom     1 has atomic number  6 and mass  12.00000

 Molecular mass:   126.06808 amu.
 Principal axes and moments of inertia in atomic units:
                           1         2         3
     Eigenvalues --   526.408741545.561731789.67657
           X            0.99995  -0.00437   0.00920
           Y            0.00481   0.99883  -0.04810
           Z           -0.00898   0.04814   0.99880
 This molecule is an asymmetric top.
 Rotational symmetry number  1.
 Warning -- assumption of classical behavior for rotation
           may cause significant error
 Rotational temperatures (Kelvin)      0.16454     0.05604     0.04840
 Rotational constants (GHZ):           3.42840     1.16769     1.00842
 Zero-point vibrational energy     415105.4 (Joules/Mol)
                                   99.21256 (Kcal/Mol)
 Warning -- explicit consideration of  12 degrees of freedom as
           vibrations may cause significant error
 Vibrational temperatures:    180.94   250.34   338.33   356.27   390.82
          (Kelvin)            411.90   429.23   559.94   615.47   630.63
                              674.05   720.93   914.22   991.74  1095.20
                             1171.82  1230.42  1283.59  1310.36  1390.29
                             1422.11  1463.35  1511.21  1541.35  1560.19
                             1617.99  1666.81  1709.02  1721.31  1793.15
                             1844.02  1853.59  1900.39  1925.53  2034.18
                             2047.22  2070.65  2120.44  2127.53  2143.21
                             2459.28  4322.29  4338.64  4360.74  4401.13
                             4448.01  4477.22  4560.48  4603.87  5388.75
                             5471.17

 Zero-point correction=                           0.158105 (Hartree/Particle)
 Thermal correction to Energy=                    0.166857
 Thermal correction to Enthalpy=                  0.167801
 Thermal correction to Gibbs Free Energy=         0.125376
 Sum of electronic and zero-point Energies=           -423.020916
 Sum of electronic and thermal Energies=              -423.012164
 Sum of electronic and thermal Enthalpies=            -423.011220
 Sum of electronic and thermal Free Energies=         -423.053645

                     E (Thermal)             CV                S
                      KCal/Mol        Cal/Mol-Kelvin    Cal/Mol-Kelvin
 Total                  104.704             34.315             89.292
 Electronic               0.000              0.000              0.000
 Translational            0.889              2.981             40.409
 Rotational               0.889              2.981             28.767
 Vibrational            102.927             28.353             20.117
 Vibration     1          0.611              1.927              3.010
 Vibration     2          0.627              1.874              2.392
 Vibration     3          0.655              1.787              1.839
 Vibration     4          0.661              1.767              1.747
 Vibration     5          0.675              1.726              1.586
 Vibration     6          0.684              1.699              1.496
 Vibration     7          0.691              1.677              1.426
 Vibration     8          0.757              1.493              1.003
 Vibration     9          0.789              1.410              0.866
 Vibration    10          0.798              1.387              0.832
 Vibration    11          0.826              1.320              0.742
 Vibration    12          0.856              1.248              0.655

 Optimization completed.
    -- Stationary point found.
 Normal termination of Gaussian 09 at Mon Jan 27 23:39:07 2020.
