 Gaussian 09, Revision D.01,
 Gaussian 09:  ES64L-G09RevD.01 24-Apr-2013

 -----------------------------
 # b3lyp 6-31G(2df,p) opt Freq
 -----------------------------

 -----
 titel
 -----
 Symbolic Z-matrix:
 Charge =  0 Multiplicity = 1

 SCF Done:  E(RB3LYP) =  -423.220037960     A.U. after   14 cycles
 Optimization completed.
    -- Stationary point found.
 Normal termination of Gaussian 09 at Tue Jan 28 12:37:58 2020.

 ----------------------------------------------------------------------
 #N Geom=AllCheck Guess=TCheck SCRF=Check GenChk RB3LYP/6-31G(2df,p) Fr
 eq
 ----------------------------------------------------------------------

 Structure from the checkpoint file:  "/scratch/puck/g09_bcba183f-2c35-423b-897c-6f3277fc660a/Gau-20630.chk"
 -----
 titel
 -----
 Charge =  0 Multiplicity = 1

                         Standard orientation:
 ---------------------------------------------------------------------
 Center     Atomic      Atomic             Coordinates (Angstroms)
 Number     Number       Type             X           Y           Z
 ---------------------------------------------------------------------
      1          6           0        2.780070   -0.450399    0.070685
      2          6           0        1.397894   -1.051082    0.343360
      3          6           0        0.246578   -0.257904   -0.278149
      4          6           0       -0.028648    1.155798    0.287256
      5          8           0        0.445728    2.233975   -0.505538
      6          6           0       -1.534953    1.232777    0.359874
      7          6           0       -2.129326    0.056309    0.141468
      8          6           0       -1.110415   -0.979301   -0.156990
      9          8           0       -1.287767   -2.169485   -0.274587
     10          1           0        3.571655   -1.069253    0.503888
     11          1           0        2.972341   -0.368710   -1.004970
     12          1           0        2.883986    0.551255    0.506377
     13          1           0        1.346559   -2.073288   -0.045609
     14          1           0        1.236735   -1.131907    1.426362
     15          1           0        0.427940   -0.127841   -1.354378
     16          1           0        0.378401    1.233467    1.310481
     17          1           0        1.407477    2.223892   -0.475845
     18          1           0       -2.027094    2.171600    0.588560
     19          1           0       -3.188886   -0.162336    0.181108
 ---------------------------------------------------------------------

 SCF Done:  E(RB3LYP) =  -423.220037960     A.U. after    1 cycles

 The electronic state is 1-A.
 Alpha  occ. eigenvalues --  -19.14758 -19.12453 -10.26322 -10.24930 -10.21300
 Alpha  occ. eigenvalues --  -10.19734 -10.19231 -10.18900 -10.18619  -1.03503
 Alpha  occ. eigenvalues --   -1.02989  -0.85118  -0.78645  -0.71073  -0.68107
 Alpha  occ. eigenvalues --   -0.61888  -0.56666  -0.53555  -0.52950  -0.48710
 Alpha  occ. eigenvalues --   -0.45103  -0.44383  -0.42889  -0.41790  -0.40737
 Alpha  occ. eigenvalues --   -0.39562  -0.37593  -0.36780  -0.35883  -0.33706
 Alpha  occ. eigenvalues --   -0.32635  -0.29360  -0.27460  -0.23878
 Alpha virt. eigenvalues --   -0.04966   0.04676   0.06391   0.10643   0.11586
 Alpha virt. eigenvalues --    0.12689   0.13675   0.15224   0.15938   0.16125
 Alpha virt. eigenvalues --    0.17796   0.18761   0.19938   0.21786   0.22773

 Mulliken charges:
               1
     1  C   -0.398428
     2  C   -0.187222
     3  C   -0.131811
     4  C    0.057297
     5  O   -0.436539
     6  C   -0.054947
     7  C   -0.185317
     8  C    0.371091
     9  O   -0.337835
    10  H    0.122467
    11  H    0.120289
    12  H    0.103144
    13  H    0.125254
    14  H    0.099641
    15  H    0.111728
    16  H    0.085188
    17  H    0.289045
    18  H    0.124949
    19  H    0.122006
 Sum of Mulliken charges =   0.00000

 Dipole moment (field-independent basis, Debye):
    X=              1.4941    Y=              2.1224    Z=              1.0190  Tot=              2.7884
 Quadrupole moment (field-independent basis, Debye-Ang):
   XX=            -48.1598   YY=            -61.9500   ZZ=            -53.0902
   XY=             -3.1119   XZ=             -1.2808   YZ=              1.1767

  Exact polarizability:  88.778   1.936  88.232  -1.020   3.785  55.803
 Approx polarizability: 114.405  10.651 150.572   0.108   9.003  89.616

                      1                      2                      3
                      A                      A                      A
 Frequencies --     62.6541                85.9017               164.1384
 Red. masses --      4.5461                 2.2965                 3.2836
 Frc consts  --      0.0105                 0.0100                 0.0521
 IR Inten    --      1.8280                 0.7661                 2.0424

                      4                      5                      6
                      A                      A                      A
 Frequencies --    226.5556               244.1932               276.4292
 Red. masses --      1.3511                 3.3372                 1.1317
 Frc consts  --      0.0409                 0.1172                 0.0509
 IR Inten    --      1.5735                 8.2403                85.4656

                      7                      8                      9
                      A                      A                      A
 Frequencies --    303.6727               320.2349               364.5516
 Red. masses --      2.7886                 2.7614                 3.4570
 Frc consts  --      0.1515                 0.1668                 0.2707
 IR Inten    --      1.6886                 9.2296                 4.7440

                     10                     11                     12
                      A                      A                      A
 Frequencies --    508.7961               541.9797               575.8421
 Red. masses --      3.4232                 4.0832                 4.0352
 Frc consts  --      0.5221                 0.7067                 0.7883
 IR Inten    --      5.9805                 2.8165                 7.1361

                     13                     14                     15
                      A                      A                      A
 Frequencies --    686.5957               736.4214               767.6792
 Red. masses --      4.1105                 3.7338                 1.5137
 Frc consts  --      1.1417                 1.1931                 0.5256
 IR Inten    --      3.1259                 2.3999                 4.0920

                     16                     17                     18
                      A                      A                      A
 Frequencies --    809.2023               888.5137               923.2271
 Red. masses --      1.3965                 2.9697                 1.8484
 Frc consts  --      0.5388                 1.3813                 0.9282
 IR Inten    --     16.7039                 7.2842                 6.8428

                     19                     20                     21
                      A                      A                      A
 Frequencies --    942.9421              1001.1568              1004.8792
 Red. masses --      2.3851                 1.4198                 1.7402
 Frc consts  --      1.2495                 0.8384                 1.0353
 IR Inten    --      4.9153                 3.3300                 9.6261

                     22                     23                     24
                      A                      A                      A
 Frequencies --   1050.9465              1066.7895              1120.9311
 Red. masses --      1.8242                 2.2990                 2.3628
 Frc consts  --      1.1871                 1.5415                 1.7492
 IR Inten    --     28.0615                 6.5845                64.8433

                     25                     26                     27
                      A                      A                      A
 Frequencies --   1133.1370              1148.8125              1174.4581
 Red. masses --      1.8578                 1.6992                 2.5411
 Frc consts  --      1.4055                 1.3212                 2.0652
 IR Inten    --      3.8643                 0.7755                47.6944

                     28                     29                     30
                      A                      A                      A
 Frequencies --   1223.0303              1236.6606              1263.8735
 Red. masses --      1.1129                 1.5804                 1.3555
 Frc consts  --      0.9808                 1.4240                 1.2757
 IR Inten    --     58.6732                34.9450                10.6619

                     31                     32                     33
                      A                      A                      A
 Frequencies --   1319.4421              1336.6496              1356.9167
 Red. masses --      1.2002                 1.5180                 1.6707
 Frc consts  --      1.2310                 1.5979                 1.8124
 IR Inten    --      2.2793                 7.6835                30.3529

                     34                     35                     36
                      A                      A                      A
 Frequencies --   1376.6363              1409.7994              1421.2555
 Red. masses --      1.5459                 1.2642                 1.5473
 Frc consts  --      1.7262                 1.4804                 1.8415
 IR Inten    --      7.3804                 5.5154                13.6640

                     37                     38                     39
                      A                      A                      A
 Frequencies --   1487.9356              1500.5833              1508.1473
 Red. masses --      1.0585                 1.0510                 1.0626
 Frc consts  --      1.3807                 1.3944                 1.4240
 IR Inten    --      2.1350                 5.5278                 3.1514

                     40                     41                     42
                      A                      A                      A
 Frequencies --   1655.3975              1813.5653              2946.9077
 Red. masses --      6.7578                12.4889                 1.0810
 Frc consts  --     10.9109                24.2014                 5.5309
 IR Inten    --      8.1600               239.8851                34.1293

                     43                     44                     45
                      A                      A                      A
 Frequencies --   3016.4308              3021.1165              3029.5971
 Red. masses --      1.0770                 1.0398                 1.0698
 Frc consts  --      5.7737                 5.5915                 5.7851
 IR Inten    --      2.9773                20.3012                29.9041

                     46                     47                     48
                      A                      A                      A
 Frequencies --   3069.5853              3092.0815              3104.0722
 Red. masses --      1.0938                 1.0992                 1.1006
 Frc consts  --      6.0724                 6.1922                 6.2482
 IR Inten    --      2.7690                46.8478                31.0147

                     49                     50                     51
                      A                      A                      A
 Frequencies --   3198.5803              3227.7328              3824.9599
 Red. masses --      1.0877                 1.1041                 1.0662
 Frc consts  --      6.5567                 6.7771                 9.1905
 IR Inten    --      3.6913                 6.6256                21.9702

 - Thermochemistry -
 -------------------
 Temperature   298.150 Kelvin.  Pressure   1.00000 Atm.
 Atom     1 has atomic number  6 and mass  12.00000

 Molecular mass:   126.06808 amu.
 Principal axes and moments of inertia in atomic units:
                           1         2         3
     Eigenvalues --   905.106491118.613381891.38626
           X            0.99155  -0.12971  -0.00163
           Y            0.12971   0.99155   0.00272
           Z            0.00127  -0.00291   0.99999
 This molecule is an asymmetric top.
 Rotational symmetry number  1.
 Warning -- assumption of classical behavior for rotation
           may cause significant error
 Rotational temperatures (Kelvin)      0.09569     0.07743     0.04579
 Rotational constants (GHZ):           1.99395     1.61337     0.95419
 Zero-point vibrational energy     416130.6 (Joules/Mol)
                                   99.45759 (Kcal/Mol)
 Warning -- explicit consideration of  12 degrees of freedom as
           vibrations may cause significant error
 Vibrational temperatures:     90.15   123.59   236.16   325.96   351.34
          (Kelvin)            397.72   436.92   460.75   524.51   732.04
                              779.79   828.51   987.86  1059.54  1104.52
                             1164.26  1278.37  1328.32  1356.68  1440.44
                             1445.80  1512.08  1534.87  1612.77  1630.33
                             1652.88  1689.78  1759.67  1779.28  1818.43
                             1898.38  1923.14  1952.30  1980.67  2028.38
                             2044.87  2140.80  2159.00  2169.88  2381.74
                             2609.31  4239.94  4339.97  4346.71  4358.91
                             4416.44  4448.81  4466.06  4602.04  4643.98
                             5503.26

 Zero-point correction=                           0.158496 (Hartree/Particle)
 Thermal correction to Energy=                    0.167587
 Thermal correction to Enthalpy=                  0.168531
 Thermal correction to Gibbs Free Energy=         0.124328
 Sum of electronic and zero-point Energies=           -423.061542
 Sum of electronic and thermal Energies=              -423.052451
 Sum of electronic and thermal Enthalpies=            -423.051507
 Sum of electronic and thermal Free Energies=         -423.095710

                     E (Thermal)             CV                S
                      KCal/Mol        Cal/Mol-Kelvin    Cal/Mol-Kelvin
 Total                  105.162             33.675             93.034
 Electronic               0.000              0.000              0.000
 Translational            0.889              2.981             40.409
 Rotational               0.889              2.981             29.039
 Vibrational            103.385             27.714             23.586
 Vibration     1          0.597              1.972              4.372
 Vibration     2          0.601              1.959              3.751
 Vibration     3          0.623              1.886              2.502
 Vibration     4          0.650              1.801              1.906
 Vibration     5          0.660              1.772              1.772
 Vibration     6          0.678              1.717              1.556
 Vibration     7          0.695              1.667              1.397
 Vibration     8          0.706              1.635              1.309
 Vibration     9          0.738              1.545              1.103
 Vibration    10          0.864              1.231              0.636
 Vibration    11          0.897              1.157              0.561
 Vibration    12          0.932              1.084              0.493

 Optimization completed.
    -- Stationary point found.
 Normal termination of Gaussian 09 at Tue Jan 28 13:25:20 2020.
