 Gaussian 09, Revision D.01,
 Gaussian 09:  ES64L-G09RevD.01 24-Apr-2013

 -----------------------------
 # b3lyp 6-31G(2df,p) opt Freq
 -----------------------------

 -----
 titel
 -----
 Symbolic Z-matrix:
 Charge =  0 Multiplicity = 1

 SCF Done:  E(RB3LYP) =  -423.153121798     A.U. after   12 cycles
 Optimization completed.
    -- Stationary point found.
 Normal termination of Gaussian 09 at Mon Jan 27 22:49:53 2020.

 ----------------------------------------------------------------------
 #N Geom=AllCheck Guess=TCheck SCRF=Check GenChk RB3LYP/6-31G(2df,p) Fr
 eq
 ----------------------------------------------------------------------

 Structure from the checkpoint file:  "/scratch/puck/g09_a1b28a30-8c3e-4403-94f3-2a988cd385b8/Gau-191382.chk"
 -----
 titel
 -----
 Charge =  0 Multiplicity = 1

                         Standard orientation:
 ---------------------------------------------------------------------
 Center     Atomic      Atomic             Coordinates (Angstroms)
 Number     Number       Type             X           Y           Z
 ---------------------------------------------------------------------
      1          6           0        2.321485   -0.626834   -0.426010
      2          6           0        0.820506   -0.491219   -0.656163
      3          6           0       -0.017325   -1.459381    0.189039
      4          6           0       -1.430791   -0.932879    0.310505
      5          8           0       -1.910052   -0.026590   -0.663640
      6          6           0       -1.110309    1.152613   -0.564187
      7          6           0        0.161976    0.691970    0.147688
      8          8           0        0.934897    1.783627    0.534792
      9          6           0       -0.379271   -0.350688    1.185784
     10          1           0        2.867749    0.211023   -0.871566
     11          1           0        2.565013   -0.670670    0.643531
     12          1           0        2.701625   -1.549032   -0.876774
     13          1           0        0.605802   -0.487751   -1.732084
     14          1           0        0.229847   -2.497490    0.386370
     15          1           0       -2.200121   -1.591625    0.695243
     16          1           0       -0.916588    1.532584   -1.572074
     17          1           0       -1.620408    1.930008    0.023628
     18          1           0        1.741516    1.459431    0.947887
     19          1           0       -0.370826   -0.294259    2.266686
 ---------------------------------------------------------------------

 SCF Done:  E(RB3LYP) =  -423.153121798     A.U. after    1 cycles

 The electronic state is 1-A.
 Alpha  occ. eigenvalues --  -19.15017 -19.13663 -10.24281 -10.23376 -10.22079
 Alpha  occ. eigenvalues --  -10.19176 -10.19128 -10.18708 -10.18448  -1.04772
 Alpha  occ. eigenvalues --   -1.02856  -0.88186  -0.76388  -0.73085  -0.63654
 Alpha  occ. eigenvalues --   -0.61662  -0.59023  -0.54229  -0.52267  -0.48062
 Alpha  occ. eigenvalues --   -0.47875  -0.44873  -0.43499  -0.41325  -0.40715
 Alpha  occ. eigenvalues --   -0.38120  -0.37591  -0.36372  -0.34191  -0.33100
 Alpha  occ. eigenvalues --   -0.29377  -0.28089  -0.25682  -0.22895
 Alpha virt. eigenvalues --    0.06195   0.09983   0.10391   0.12647   0.12813
 Alpha virt. eigenvalues --    0.13235   0.14979   0.15620   0.16088   0.16880
 Alpha virt. eigenvalues --    0.17817   0.18264   0.19266   0.21028   0.23556

 Mulliken charges:
               1
     1  C   -0.435473
     2  C   -0.036975
     3  C   -0.102328
     4  C    0.105621
     5  O   -0.271259
     6  C   -0.106017
     7  C    0.353110
     8  O   -0.486451
     9  C   -0.215660
    10  H    0.124024
    11  H    0.107936
    12  H    0.123275
    13  H    0.073122
    14  H    0.081245
    15  H    0.104080
    16  H    0.109733
    17  H    0.097840
    18  H    0.285019
    19  H    0.089158
 Sum of Mulliken charges =   0.00000

 Dipole moment (field-independent basis, Debye):
    X=              1.7880    Y=             -1.0271    Z=              1.1143  Tot=              2.3438
 Quadrupole moment (field-independent basis, Debye-Ang):
   XX=            -53.3041   YY=            -54.2207   ZZ=            -51.9050
   XY=             -0.0391   XZ=             -1.2598   YZ=             -1.3843

  Exact polarizability:  78.557  -1.387  75.334  -1.953  -1.756  66.685
 Approx polarizability: 108.330   0.017 112.054   0.859   0.460 104.332

                      1                      2                      3
                      A                      A                      A
 Frequencies --    161.5837               236.1995               246.7849
 Red. masses --      3.3634                 1.2662                 2.6838
 Frc consts  --      0.0517                 0.0416                 0.0963
 IR Inten    --      3.4069                 3.4254                 0.9153

                      4                      5                      6
                      A                      A                      A
 Frequencies --    257.1639               300.7544               358.7615
 Red. masses --      1.9352                 1.1088                 3.6040
 Frc consts  --      0.0754                 0.0591                 0.2733
 IR Inten    --      1.8190                90.0586                 7.5383

                      7                      8                      9
                      A                      A                      A
 Frequencies --    396.1520               428.0268               539.6392
 Red. masses --      3.2055                 3.3921                 3.9626
 Frc consts  --      0.2964                 0.3662                 0.6799
 IR Inten    --      2.1067                 4.5013                 2.0087

                     10                     11                     12
                      A                      A                      A
 Frequencies --    629.9312               666.8248               736.8737
 Red. masses --      5.4986                 3.5492                 7.3713
 Frc consts  --      1.2856                 0.9298                 2.3582
 IR Inten    --      2.6839                 3.1529                 7.0405

                     13                     14                     15
                      A                      A                      A
 Frequencies --    744.7636               778.1173               819.2090
 Red. masses --      2.0733                 2.1456                 1.5696
 Frc consts  --      0.6776                 0.7654                 0.6206
 IR Inten    --      1.7976                 6.6671                10.9854

                     16                     17                     18
                      A                      A                      A
 Frequencies --    876.5518               934.0285               944.1126
 Red. masses --      2.3337                 1.4842                 2.5483
 Frc consts  --      1.0565                 0.7629                 1.3383
 IR Inten    --      3.7708                14.2257                13.4813

                     19                     20                     21
                      A                      A                      A
 Frequencies --    989.2957              1012.2571              1021.3488
 Red. masses --      2.2095                 2.3324                 1.5742
 Frc consts  --      1.2741                 1.4081                 0.9675
 IR Inten    --     18.7461                10.2283                 2.0589

                     22                     23                     24
                      A                      A                      A
 Frequencies --   1050.5698              1057.8889              1079.1063
 Red. masses --      1.4144                 2.9906                 2.0557
 Frc consts  --      0.9197                 1.9719                 1.4104
 IR Inten    --      2.1346                77.5898                 9.3589

                     25                     26                     27
                      A                      A                      A
 Frequencies --   1090.8989              1118.9059              1137.0177
 Red. masses --      1.6138                 2.2358                 2.4794
 Frc consts  --      1.1316                 1.6492                 1.8885
 IR Inten    --     10.8019                22.4934                 1.1909

                     28                     29                     30
                      A                      A                      A
 Frequencies --   1153.7464              1190.3984              1223.4114
 Red. masses --      2.3866                 1.5531                 1.4228
 Frc consts  --      1.8718                 1.2967                 1.2547
 IR Inten    --     20.7382                13.7402                 4.1636

                     31                     32                     33
                      A                      A                      A
 Frequencies --   1252.8288              1282.5957              1294.0657
 Red. masses --      2.0498                 1.8988                 1.4359
 Frc consts  --      1.8956                 1.8404                 1.4167
 IR Inten    --     71.8467                30.2590                 3.2482

                     34                     35                     36
                      A                      A                      A
 Frequencies --   1334.9592              1369.0538              1395.4009
 Red. masses --      1.4536                 1.9925                 1.5166
 Frc consts  --      1.5263                 2.2003                 1.7399
 IR Inten    --     46.2373                20.0927                12.0430

                     37                     38                     39
                      A                      A                      A
 Frequencies --   1404.7481              1412.9259              1498.7471
 Red. masses --      1.9120                 1.5720                 1.0491
 Frc consts  --      2.2229                 1.8490                 1.3884
 IR Inten    --     22.6541                 2.1043                 4.7389

                     40                     41                     42
                      A                      A                      A
 Frequencies --   1504.0324              1514.4340              2997.4173
 Red. masses --      1.0495                 1.1015                 1.0664
 Frc consts  --      1.3988                 1.4885                 5.6451
 IR Inten    --      2.7121                 0.9526                68.4290

                     43                     44                     45
                      A                      A                      A
 Frequencies --   3017.5974              3026.0631              3081.6593
 Red. masses --      1.0435                 1.0791                 1.0975
 Frc consts  --      5.5985                 5.8221                 6.1410
 IR Inten    --     17.7456                33.0275                17.0818

                     46                     47                     48
                      A                      A                      A
 Frequencies --   3085.1351              3102.5597              3160.1494
 Red. masses --      1.0960                 1.1015                 1.0908
 Frc consts  --      6.1460                 6.2471                 6.4180
 IR Inten    --     49.9961                17.5191                19.8015

                     49                     50                     51
                      A                      A                      A
 Frequencies --   3186.6640              3198.8017              3819.7826
 Red. masses --      1.0899                 1.0986                 1.0657
 Frc consts  --      6.5210                 6.6231                 9.1616
 IR Inten    --     12.7611                16.2761                20.7758

 - Thermochemistry -
 -------------------
 Temperature   298.150 Kelvin.  Pressure   1.00000 Atm.
 Atom     1 has atomic number  6 and mass  12.00000

 Molecular mass:   126.06808 amu.
 Principal axes and moments of inertia in atomic units:
                           1         2         3
     Eigenvalues --   690.49428 987.099211280.66599
           X            0.99820  -0.05636  -0.02030
           Y            0.05585   0.99814  -0.02444
           Z            0.02164   0.02326   0.99950
 This molecule is an asymmetric top.
 Rotational symmetry number  1.
 Warning -- assumption of classical behavior for rotation
           may cause significant error
 Rotational temperatures (Kelvin)      0.12544     0.08775     0.06763
 Rotational constants (GHZ):           2.61369     1.82833     1.40922
 Zero-point vibrational energy     419410.4 (Joules/Mol)
                                  100.24149 (Kcal/Mol)
 Warning -- explicit consideration of   9 degrees of freedom as
           vibrations may cause significant error
 Vibrational temperatures:    232.48   339.84   355.07   370.00   432.72
          (Kelvin)            516.18   569.97   615.83   776.42   906.33
                              959.41  1060.20  1071.55  1119.54  1178.66
                             1261.16  1343.86  1358.37  1423.37  1456.41
                             1469.49  1511.53  1522.06  1552.59  1569.56
                             1609.85  1635.91  1659.98  1712.72  1760.21
                             1802.54  1845.37  1861.87  1920.71  1969.76
                             2007.67  2021.12  2032.88  2156.36  2163.96
                             2178.93  4312.61  4341.64  4353.82  4433.81
                             4438.82  4463.89  4546.74  4584.89  4602.36
                             5495.81

 Zero-point correction=                           0.159745 (Hartree/Particle)
 Thermal correction to Energy=                    0.167423
 Thermal correction to Enthalpy=                  0.168367
 Thermal correction to Gibbs Free Energy=         0.128212
 Sum of electronic and zero-point Energies=           -422.993377
 Sum of electronic and thermal Energies=              -422.985699
 Sum of electronic and thermal Enthalpies=            -422.984755
 Sum of electronic and thermal Free Energies=         -423.024910

                     E (Thermal)             CV                S
                      KCal/Mol        Cal/Mol-Kelvin    Cal/Mol-Kelvin
 Total                  105.059             31.295             84.513
 Electronic               0.000              0.000              0.000
 Translational            0.889              2.981             40.409
 Rotational               0.889              2.981             28.259
 Vibrational            103.282             25.334             15.846
 Vibration     1          0.622              1.890              2.531
 Vibration     2          0.655              1.785              1.831
 Vibration     3          0.661              1.768              1.753
 Vibration     4          0.667              1.751              1.681
 Vibration     5          0.693              1.672              1.413
 Vibration     6          0.734              1.557              1.127
 Vibration     7          0.763              1.478              0.977
 Vibration     8          0.790              1.409              0.865
 Vibration     9          0.895              1.162              0.566

 Optimization completed.
    -- Stationary point found.
 Normal termination of Gaussian 09 at Mon Jan 27 23:36:39 2020.
