 Gaussian 09, Revision D.01,
 Gaussian 09:  ES64L-G09RevD.01 24-Apr-2013

 -----------------------------
 # b3lyp 6-31G(2df,p) opt Freq
 -----------------------------

 -----
 titel
 -----
 Symbolic Z-matrix:
 Charge =  0 Multiplicity = 1

 SCF Done:  E(RB3LYP) =  -423.189872855     A.U. after   13 cycles
 SCF Done:  E(RB3LYP) =  -423.189875153     A.U. after    7 cycles
 SCF Done:  E(RB3LYP) =  -423.189876806     A.U. after    7 cycles
 SCF Done:  E(RB3LYP) =  -423.189878535     A.U. after    7 cycles
 SCF Done:  E(RB3LYP) =  -423.189879696     A.U. after    7 cycles
 SCF Done:  E(RB3LYP) =  -423.189880132     A.U. after    7 cycles
 SCF Done:  E(RB3LYP) =  -423.189880214     A.U. after    7 cycles
 SCF Done:  E(RB3LYP) =  -423.189879647     A.U. after    7 cycles
 SCF Done:  E(RB3LYP) =  -423.189879215     A.U. after    6 cycles
 Optimization completed.
    -- Stationary point found.
 Normal termination of Gaussian 09 at Mon Jan 27 13:10:21 2020.

 ----------------------------------------------------------------------
 #N Geom=AllCheck Guess=TCheck SCRF=Check GenChk RB3LYP/6-31G(2df,p) Fr
 eq
 ----------------------------------------------------------------------

 Structure from the checkpoint file:  "/scratch/puck/g09_aa416378-d6f6-444f-9dec-598480588592/Gau-73059.chk"
 -----
 titel
 -----
 Charge =  0 Multiplicity = 1

                         Standard orientation:
 ---------------------------------------------------------------------
 Center     Atomic      Atomic             Coordinates (Angstroms)
 Number     Number       Type             X           Y           Z
 ---------------------------------------------------------------------
      1          6           0        1.341250   -0.854356   -0.789339
      2          8           0        0.098088   -1.523795   -0.578453
      3          6           0       -0.815726   -0.990761    0.354249
      4          6           0       -0.130645   -0.342456    1.560370
      5          6           0        0.695119    0.826639    1.063311
      6          6           0        1.425602    0.549400   -0.224981
      7          6           0        0.227054    1.470719   -0.225245
      8          6           0       -1.097378    1.055671   -0.847109
      9          8           0       -1.711410   -0.073665   -0.236700
     10          1           0        2.145489   -1.463304   -0.348477
     11          1           0        1.507139   -0.840069   -1.874385
     12          1           0       -1.446541   -1.831680    0.653539
     13          1           0       -0.907083   -0.021126    2.261571
     14          1           0        0.500161   -1.080243    2.070751
     15          1           0        1.166978    1.452626    1.813985
     16          1           0        2.397406    1.011515   -0.374988
     17          1           0        0.452324    2.525044   -0.354055
     18          1           0       -1.818730    1.874624   -0.751869
     19          1           0       -0.962230    0.863152   -1.922382
 ---------------------------------------------------------------------

 SCF Done:  E(RB3LYP) =  -423.189879215     A.U. after    1 cycles

 The electronic state is 1-A.
 Alpha  occ. eigenvalues --  -19.13725 -19.13151 -10.27186 -10.23183 -10.22735
 Alpha  occ. eigenvalues --  -10.19574 -10.19419 -10.19354 -10.18423  -1.06019
 Alpha  occ. eigenvalues --   -0.99794  -0.87253  -0.77013  -0.71143  -0.68297
 Alpha  occ. eigenvalues --   -0.62590  -0.57412  -0.53546  -0.51388  -0.48644
 Alpha  occ. eigenvalues --   -0.46823  -0.45182  -0.44446  -0.42432  -0.41830
 Alpha  occ. eigenvalues --   -0.39478  -0.39283  -0.36877  -0.32512  -0.30966
 Alpha  occ. eigenvalues --   -0.28578  -0.27645  -0.25288  -0.24603
 Alpha virt. eigenvalues --    0.07320   0.11478   0.11970   0.12771   0.13212
 Alpha virt. eigenvalues --    0.14056   0.14805   0.15409   0.16193   0.16689
 Alpha virt. eigenvalues --    0.18083   0.18736   0.19300   0.21724   0.22654

 Mulliken charges:
               1
     1  C   -0.089202
     2  O   -0.274822
     3  C    0.190839
     4  C   -0.251398
     5  C   -0.067937
     6  C   -0.062506
     7  C   -0.074848
     8  C   -0.089889
     9  O   -0.259068
    10  H    0.099516
    11  H    0.108520
    12  H    0.091885
    13  H    0.110145
    14  H    0.103242
    15  H    0.082588
    16  H    0.085930
    17  H    0.088232
    18  H    0.108455
    19  H    0.100317
 Sum of Mulliken charges =   0.00000

 Dipole moment (field-independent basis, Debye):
    X=              1.7384    Y=              1.4825    Z=              0.7612  Tot=              2.4082
 Quadrupole moment (field-independent basis, Debye-Ang):
   XX=            -53.9092   YY=            -52.6601   ZZ=            -51.7018
   XY=             -0.1466   XZ=             -1.2176   YZ=             -2.3398

  Exact polarizability:  74.409  -1.805  73.124  -1.893  -3.029  71.835
 Approx polarizability: 108.433  -3.084 105.519  -2.934  -3.435 105.140

                      1                      2                      3
                      A                      A                      A
 Frequencies --     79.8117               162.8605               334.4654
 Red. masses --      3.0900                 2.1285                 2.6859
 Frc consts  --      0.0116                 0.0333                 0.1770
 IR Inten    --      3.5032                 2.5070                 0.2454

                      4                      5                      6
                      A                      A                      A
 Frequencies --    405.2453               435.3740               448.5467
 Red. masses --      3.6956                 4.6445                 3.0318
 Frc consts  --      0.3576                 0.5187                 0.3594
 IR Inten    --      2.3678                 2.9217                 0.2298

                      7                      8                      9
                      A                      A                      A
 Frequencies --    562.8232               579.8083               710.0979
 Red. masses --      6.4493                 5.2605                 2.9153
 Frc consts  --      1.2037                 1.0420                 0.8661
 IR Inten    --      2.7595                 0.9829                 0.3386

                     10                     11                     12
                      A                      A                      A
 Frequencies --    760.9674               768.2529               786.5088
 Red. masses --      2.4313                 2.3012                 5.2473
 Frc consts  --      0.8295                 0.8002                 1.9125
 IR Inten    --      5.2254                 5.0928                 5.6164

                     13                     14                     15
                      A                      A                      A
 Frequencies --    868.1874               878.1208               909.1952
 Red. masses --      2.5006                 2.9275                 2.3194
 Frc consts  --      1.1105                 1.3300                 1.1297
 IR Inten    --     24.9461                16.0787                 2.3864

                     16                     17                     18
                      A                      A                      A
 Frequencies --    956.7988               969.4471              1015.4558
 Red. masses --      2.2187                 1.6522                 2.2953
 Frc consts  --      1.1967                 0.9149                 1.3945
 IR Inten    --     27.4867                69.4397                 4.6339

                     19                     20                     21
                      A                      A                      A
 Frequencies --   1035.2341              1059.9095              1090.8351
 Red. masses --      2.1457                 1.6261                 1.7953
 Frc consts  --      1.3549                 1.0763                 1.2587
 IR Inten    --      2.4341                17.8327                 2.9451

                     22                     23                     24
                      A                      A                      A
 Frequencies --   1099.9268              1112.5148              1124.5566
 Red. masses --      1.9426                 2.1242                 1.6282
 Frc consts  --      1.3847                 1.5491                 1.2131
 IR Inten    --      1.3671                15.2739                23.1546

                     25                     26                     27
                      A                      A                      A
 Frequencies --   1130.5000              1144.9047              1218.1669
 Red. masses --      2.8074                 2.1880                 1.7296
 Frc consts  --      2.1139                 1.6898                 1.5122
 IR Inten    --     91.2478                54.3796                44.0647

                     28                     29                     30
                      A                      A                      A
 Frequencies --   1235.5781              1268.6413              1275.5843
 Red. masses --      1.2184                 1.0963                 1.1258
 Frc consts  --      1.0959                 1.0396                 1.0793
 IR Inten    --     19.0969                 0.4985                 3.6798

                     31                     32                     33
                      A                      A                      A
 Frequencies --   1318.3186              1357.6737              1366.8869
 Red. masses --      1.8114                 1.5403                 1.6019
 Frc consts  --      1.8548                 1.6728                 1.7634
 IR Inten    --     11.6724                 2.3947                 0.6244

                     34                     35                     36
                      A                      A                      A
 Frequencies --   1381.7585              1391.9258              1413.7793
 Red. masses --      1.5422                 1.1896                 1.6433
 Frc consts  --      1.7348                 1.3580                 1.9352
 IR Inten    --      3.0893                 1.8391                18.0981

                     37                     38                     39
                      A                      A                      A
 Frequencies --   1423.2394              1465.5177              1492.6893
 Red. masses --      1.3210                 2.0171                 1.1683
 Frc consts  --      1.5766                 2.5524                 1.5338
 IR Inten    --     15.6851                 3.0673                 0.8319

                     40                     41                     42
                      A                      A                      A
 Frequencies --   1514.2483              1522.7640              2983.3212
 Red. masses --      1.0881                 1.0838                 1.0670
 Frc consts  --      1.4699                 1.4807                 5.5950
 IR Inten    --      0.5156                 0.3885                78.2432

                     43                     44                     45
                      A                      A                      A
 Frequencies --   2984.9488              3028.8139              3033.4543
 Red. masses --      1.0703                 1.0956                 1.0619
 Frc consts  --      5.6186                 5.9217                 5.7570
 IR Inten    --     64.0435                38.9868                35.8338

                     46                     47                     48
                      A                      A                      A
 Frequencies --   3057.0162              3080.3399              3084.3437
 Red. masses --      1.0927                 1.0993                 1.0912
 Frc consts  --      6.0168                 6.1458                 6.1160
 IR Inten    --     35.5690                22.7466                47.5096

                     49                     50                     51
                      A                      A                      A
 Frequencies --   3141.4967              3147.2794              3160.5880
 Red. masses --      1.0876                 1.0882                 1.0918
 Frc consts  --      6.3241                 6.3505                 6.4259
 IR Inten    --     14.0638                14.0444                30.3751

 - Thermochemistry -
 -------------------
 Temperature   298.150 Kelvin.  Pressure   1.00000 Atm.
 Atom     1 has atomic number  6 and mass  12.00000

 Molecular mass:   126.06808 amu.
 Principal axes and moments of inertia in atomic units:
                           1         2         3
     Eigenvalues --   788.14122 831.75403 983.97497
           X            0.99430  -0.10456  -0.02070
           Y            0.10286   0.99216  -0.07099
           Z            0.02796   0.06845   0.99726
 This molecule is an asymmetric top.
 Rotational symmetry number  1.
 Warning -- assumption of classical behavior for rotation
           may cause significant error
 Rotational temperatures (Kelvin)      0.10990     0.10413     0.08802
 Rotational constants (GHZ):           2.28987     2.16980     1.83413
 Zero-point vibrational energy     429332.1 (Joules/Mol)
                                  102.61283 (Kcal/Mol)
 Warning -- explicit consideration of   8 degrees of freedom as
           vibrations may cause significant error
 Vibrational temperatures:    114.83   234.32   481.22   583.06   626.41
          (Kelvin)            645.36   809.78   834.21  1021.67  1094.86
                             1105.34  1131.61  1249.13  1263.42  1308.13
                             1376.62  1394.82  1461.01  1489.47  1524.97
                             1569.47  1582.55  1600.66  1617.98  1626.54
                             1647.26  1752.67  1777.72  1825.29  1835.28
                             1896.76  1953.39  1966.64  1988.04  2002.67
                             2034.11  2047.72  2108.55  2147.64  2178.66
                             2190.91  4292.33  4294.67  4357.78  4364.46
                             4398.36  4431.92  4437.68  4519.91  4528.23
                             4547.38

 Zero-point correction=                           0.163524 (Hartree/Particle)
 Thermal correction to Energy=                    0.170324
 Thermal correction to Enthalpy=                  0.171268
 Thermal correction to Gibbs Free Energy=         0.132226
 Sum of electronic and zero-point Energies=           -423.026355
 Sum of electronic and thermal Energies=              -423.019555
 Sum of electronic and thermal Enthalpies=            -423.018611
 Sum of electronic and thermal Free Energies=         -423.057653

                     E (Thermal)             CV                S
                      KCal/Mol        Cal/Mol-Kelvin    Cal/Mol-Kelvin
 Total                  106.880             27.545             82.171
 Electronic               0.000              0.000              0.000
 Translational            0.889              2.981             40.409
 Rotational               0.889              2.981             27.958
 Vibrational            105.103             21.584             13.805
 Vibration     1          0.600              1.963              3.896
 Vibration     2          0.623              1.888              2.516
 Vibration     3          0.716              1.607              1.238
 Vibration     4          0.770              1.459              0.944
 Vibration     5          0.796              1.393              0.841
 Vibration     6          0.808              1.364              0.800
 Vibration     7          0.919              1.112              0.518
 Vibration     8          0.936              1.075              0.486

 Optimization completed.
    -- Stationary point found.
 Normal termination of Gaussian 09 at Mon Jan 27 14:02:13 2020.
