 Gaussian 09, Revision D.01,
 Gaussian 09:  ES64L-G09RevD.01 24-Apr-2013

 -----------------------------
 # b3lyp 6-31G(2df,p) opt Freq
 -----------------------------

 -----
 titel
 -----
 Symbolic Z-matrix:
 Charge =  0 Multiplicity = 1

 SCF Done:  E(RB3LYP) =  -423.169348301     A.U. after   14 cycles
 Optimization completed.
    -- Stationary point found.
 Normal termination of Gaussian 09 at Tue Jan 28 13:44:28 2020.

 ----------------------------------------------------------------------
 #N Geom=AllCheck Guess=TCheck SCRF=Check GenChk RB3LYP/6-31G(2df,p) Fr
 eq
 ----------------------------------------------------------------------

 Structure from the checkpoint file:  "/scratch/puck/g09_69b38f41-d2db-43ce-a584-272fd66c998b/Gau-145950.chk"
 -----
 titel
 -----
 Charge =  0 Multiplicity = 1

                         Standard orientation:
 ---------------------------------------------------------------------
 Center     Atomic      Atomic             Coordinates (Angstroms)
 Number     Number       Type             X           Y           Z
 ---------------------------------------------------------------------
      1          8           0        2.985758    0.404662   -0.334378
      2          6           0        1.653861    0.794230   -0.032493
      3          6           0        0.864300   -0.337218    0.611817
      4          6           0        0.420927   -1.541680   -0.279113
      5          6           0       -1.051646   -1.357633    0.178503
      6          6           0       -1.916505   -0.477622   -0.763224
      7          6           0       -1.425435    0.764483    0.009096
      8          8           0       -1.623570    1.939828   -0.103801
      9          6           0       -0.627711   -0.084910    1.010844
     10          1           0        2.946279   -0.277797   -1.012060
     11          1           0        1.735242    1.638282    0.660639
     12          1           0        1.133668    1.165996   -0.928967
     13          1           0        1.424578   -0.689173    1.482294
     14          1           0        0.571022   -1.403252   -1.356273
     15          1           0        0.869375   -2.496026    0.003965
     16          1           0       -1.543803   -2.215025    0.634027
     17          1           0       -1.705555   -0.508185   -1.836418
     18          1           0       -2.994413   -0.616072   -0.621315
     19          1           0       -0.840641    0.087426    2.066959
 ---------------------------------------------------------------------

 SCF Done:  E(RB3LYP) =  -423.169348301     A.U. after    1 cycles

 The electronic state is 1-A.
 Alpha  occ. eigenvalues --  -19.13800 -19.13673 -10.27065 -10.22755 -10.20369
 Alpha  occ. eigenvalues --  -10.20043 -10.19677 -10.19534 -10.19470  -1.04646
 Alpha  occ. eigenvalues --   -1.01729  -0.88270  -0.76719  -0.70300  -0.67465
 Alpha  occ. eigenvalues --   -0.60601  -0.57634  -0.52361  -0.50565  -0.49680
 Alpha  occ. eigenvalues --   -0.46308  -0.45542  -0.43778  -0.42100  -0.41251
 Alpha  occ. eigenvalues --   -0.38560  -0.37784  -0.35142  -0.34435  -0.32987
 Alpha  occ. eigenvalues --   -0.31590  -0.29548  -0.26569  -0.24173
 Alpha virt. eigenvalues --   -0.02528   0.06664   0.08165   0.09261   0.09954
 Alpha virt. eigenvalues --    0.12514   0.14012   0.15248   0.15390   0.16344
 Alpha virt. eigenvalues --    0.16797   0.18069   0.19668   0.21061   0.22249

 Mulliken charges:
               1
     1  O   -0.418949
     2  C   -0.090672
     3  C    0.013104
     4  C   -0.268707
     5  C   -0.021427
     6  C   -0.358016
     7  C    0.416639
     8  O   -0.304171
     9  C   -0.190701
    10  H    0.284057
    11  H    0.122066
    12  H    0.092969
    13  H    0.092512
    14  H    0.091610
    15  H    0.111424
    16  H    0.078705
    17  H    0.123897
    18  H    0.134411
    19  H    0.091249
 Sum of Mulliken charges =   0.00000

 Dipole moment (field-independent basis, Debye):
    X=             -0.5613    Y=             -3.3817    Z=             -0.2261  Tot=              3.4354
 Quadrupole moment (field-independent basis, Debye-Ang):
   XX=            -58.7754   YY=            -58.0771   ZZ=            -49.7645
   XY=              1.8078   XZ=             -2.1009   YZ=              1.2247

  Exact polarizability:  81.165  -1.515  77.190   2.676   1.903  66.938
 Approx polarizability: 108.917  -4.567 119.606   3.790   2.409 103.063

                      1                      2                      3
                      A                      A                      A
 Frequencies --     53.9455               100.7385               103.5340
 Red. masses --      2.8590                 6.3965                 3.0007
 Frc consts  --      0.0049                 0.0382                 0.0190
 IR Inten    --      1.8837                 1.5573                 4.8299

                      4                      5                      6
                      A                      A                      A
 Frequencies --    218.9987               297.2246               343.1752
 Red. masses --      2.3667                 1.3535                 2.2181
 Frc consts  --      0.0669                 0.0705                 0.1539
 IR Inten    --      8.0535                88.5835                 0.5950

                      7                      8                      9
                      A                      A                      A
 Frequencies --    376.3458               410.3314               436.0384
 Red. masses --      2.4368                 3.1244                 3.4937
 Frc consts  --      0.2034                 0.3099                 0.3914
 IR Inten    --      8.9950                 1.7328                 3.4816

                     10                     11                     12
                      A                      A                      A
 Frequencies --    538.9797               598.7333               712.7962
 Red. masses --      2.6915                 3.3269                 3.2066
 Frc consts  --      0.4607                 0.7027                 0.9599
 IR Inten    --      1.0353                 6.3214                 4.1979

                     13                     14                     15
                      A                      A                      A
 Frequencies --    765.2088               815.7555               851.1250
 Red. masses --      2.2264                 2.0919                 1.9612
 Frc consts  --      0.7681                 0.8202                 0.8371
 IR Inten    --      0.3306                 1.1182                 1.3812

                     16                     17                     18
                      A                      A                      A
 Frequencies --    859.7104               909.9062               936.5787
 Red. masses --      1.7359                 3.6537                 1.5679
 Frc consts  --      0.7559                 1.7823                 0.8103
 IR Inten    --      2.3411                 2.7476                 3.2641

                     19                     20                     21
                      A                      A                      A
 Frequencies --    967.4427              1028.5039              1041.4363
 Red. masses --      2.1895                 2.5859                 1.5104
 Frc consts  --      1.2074                 1.6116                 0.9652
 IR Inten    --     13.4687                 3.9521                28.1026

                     22                     23                     24
                      A                      A                      A
 Frequencies --   1054.7736              1061.4350              1087.3350
 Red. masses --      2.4393                 3.2578                 2.3605
 Frc consts  --      1.5990                 2.1626                 1.6443
 IR Inten    --     40.2863                94.1765                 8.3060

                     25                     26                     27
                      A                      A                      A
 Frequencies --   1122.3381              1131.5271              1170.1935
 Red. masses --      1.9072                 1.9777                 1.2827
 Frc consts  --      1.4154                 1.4919                 1.0349
 IR Inten    --     11.6584                10.0924                 4.2708

                     28                     29                     30
                      A                      A                      A
 Frequencies --   1184.2727              1210.7837              1231.9337
 Red. masses --      1.5694                 1.4817                 1.6638
 Frc consts  --      1.2968                 1.2798                 1.4878
 IR Inten    --      7.1006                 2.2186                 5.2396

                     31                     32                     33
                      A                      A                      A
 Frequencies --   1247.1465              1276.5008              1293.5823
 Red. masses --      1.3677                 1.5045                 1.5316
 Frc consts  --      1.2533                 1.4444                 1.5100
 IR Inten    --      6.1803                 2.6693                 2.3152

                     34                     35                     36
                      A                      A                      A
 Frequencies --   1300.5644              1345.7716              1392.7316
 Red. masses --      1.4078                 1.4459                 1.1890
 Frc consts  --      1.4030                 1.5429                 1.3588
 IR Inten    --      3.5570                 2.9658                15.4789

                     37                     38                     39
                      A                      A                      A
 Frequencies --   1418.5792              1432.5022              1482.6928
 Red. masses --      1.3136                 1.1033                 1.0949
 Frc consts  --      1.5575                 1.3339                 1.4181
 IR Inten    --     42.7288                 7.1948                 1.2865

                     40                     41                     42
                      A                      A                      A
 Frequencies --   1500.5944              1881.2248              2985.6417
 Red. masses --      1.0909                12.6940                 1.0695
 Frc consts  --      1.4473                26.4686                 5.6169
 IR Inten    --      2.1228               251.4726                37.7548

                     43                     44                     45
                      A                      A                      A
 Frequencies --   3035.6852              3045.2574              3064.8002
 Red. masses --      1.0656                 1.0595                 1.0850
 Frc consts  --      5.7856                 5.7890                 6.0047
 IR Inten    --     31.7856                11.5457                 8.8612

                     46                     47                     48
                      A                      A                      A
 Frequencies --   3077.9946              3098.0714              3104.1319
 Red. masses --      1.0940                 1.1032                 1.0895
 Frc consts  --      6.1068                 6.2386                 6.1855
 IR Inten    --     26.7142                15.1634                12.2651

                     49                     50                     51
                      A                      A                      A
 Frequencies --   3105.5417              3128.9523              3816.5975
 Red. masses --      1.0983                 1.0914                 1.0661
 Frc consts  --      6.2409                 6.2958                 9.1492
 IR Inten    --     19.1599                38.7699                13.7444

 - Thermochemistry -
 -------------------
 Temperature   298.150 Kelvin.  Pressure   1.00000 Atm.
 Atom     1 has atomic number  8 and mass  15.99491

 Molecular mass:   126.06808 amu.
 Principal axes and moments of inertia in atomic units:
                           1         2         3
     Eigenvalues --   686.643181387.245331774.48426
           X            0.99963   0.02714   0.00253
           Y           -0.02717   0.99956   0.01183
           Z           -0.00221  -0.01189   0.99993
 This molecule is an asymmetric top.
 Rotational symmetry number  1.
 Warning -- assumption of classical behavior for rotation
           may cause significant error
 Rotational temperatures (Kelvin)      0.12614     0.06244     0.04881
 Rotational constants (GHZ):           2.62835     1.30095     1.01705
 Zero-point vibrational energy     416633.4 (Joules/Mol)
                                   99.57777 (Kcal/Mol)
 Warning -- explicit consideration of  11 degrees of freedom as
           vibrations may cause significant error
 Vibrational temperatures:     77.62   144.94   148.96   315.09   427.64
          (Kelvin)            493.75   541.48   590.37   627.36   775.47
                              861.44  1025.55  1100.96  1173.69  1224.58
                             1236.93  1309.15  1347.53  1391.93  1479.79
                             1498.39  1517.58  1527.17  1564.43  1614.79
                             1628.01  1683.65  1703.90  1742.05  1772.48
                             1794.36  1836.60  1861.17  1871.22  1936.26
                             2003.83  2041.02  2061.05  2133.26  2159.02
                             2706.66  4295.67  4367.67  4381.44  4409.56
                             4428.54  4457.43  4466.15  4468.18  4501.86
                             5491.23

 Zero-point correction=                           0.158687 (Hartree/Particle)
 Thermal correction to Energy=                    0.167289
 Thermal correction to Enthalpy=                  0.168233
 Thermal correction to Gibbs Free Energy=         0.124737
 Sum of electronic and zero-point Energies=           -423.010661
 Sum of electronic and thermal Energies=              -423.002060
 Sum of electronic and thermal Enthalpies=            -423.001115
 Sum of electronic and thermal Free Energies=         -423.044611

                     E (Thermal)             CV                S
                      KCal/Mol        Cal/Mol-Kelvin    Cal/Mol-Kelvin
 Total                  104.975             32.277             91.545
 Electronic               0.000              0.000              0.000
 Translational            0.889              2.981             40.409
 Rotational               0.889              2.981             28.915
 Vibrational            103.198             26.315             22.221
 Vibration     1          0.596              1.976              4.667
 Vibration     2          0.604              1.949              3.440
 Vibration     3          0.605              1.946              3.387
 Vibration     4          0.647              1.812              1.967
 Vibration     5          0.691              1.679              1.432
 Vibration     6          0.722              1.589              1.197
 Vibration     7          0.747              1.521              1.054
 Vibration     8          0.775              1.448              0.925
 Vibration     9          0.796              1.392              0.839
 Vibration    10          0.894              1.164              0.567
 Vibration    11          0.957              1.034              0.452

 Normal termination of Gaussian 09 at Tue Jan 28 14:27:20 2020.
