 Gaussian 09, Revision D.01,
 Gaussian 09:  ES64L-G09RevD.01 24-Apr-2013

 -----------------------------
 # b3lyp 6-31G(2df,p) opt Freq
 -----------------------------

 -----
 titel
 -----
 Symbolic Z-matrix:
 Charge =  0 Multiplicity = 1

 SCF Done:  E(RB3LYP) =  -423.123807918     A.U. after   14 cycles
 Optimization completed.
    -- Stationary point found.
 Normal termination of Gaussian 09 at Tue Jan 28 08:46:16 2020.

 ----------------------------------------------------------------------
 #N Geom=AllCheck Guess=TCheck SCRF=Check GenChk RB3LYP/6-31G(2df,p) Fr
 eq
 ----------------------------------------------------------------------

 Structure from the checkpoint file:  "/scratch/puck/g09_e7458a5b-b33d-43c0-ada0-34881463be74/Gau-187593.chk"
 -----
 titel
 -----
 Charge =  0 Multiplicity = 1

                         Standard orientation:
 ---------------------------------------------------------------------
 Center     Atomic      Atomic             Coordinates (Angstroms)
 Number     Number       Type             X           Y           Z
 ---------------------------------------------------------------------
      1          6           0       -1.056866    1.736813    0.026693
      2          6           0       -0.371680    0.378129    0.168828
      3          6           0       -1.383966   -0.670941    0.631974
      4          8           0       -2.428529   -0.860872   -0.318792
      5          6           0        1.063715    0.449820    0.832588
      6          8           0        1.547364    1.032255   -0.420815
      7          6           0        0.634414    0.057152   -1.018514
      8          6           0        1.281105   -1.263135   -0.573768
      9          6           0        1.574783   -0.994525    0.701372
     10          1           0       -0.380047    2.482926   -0.389295
     11          1           0       -1.936027    1.639465   -0.616042
     12          1           0       -1.406096    2.090170    1.004232
     13          1           0       -0.895179   -1.620563    0.873215
     14          1           0       -1.878189   -0.312594    1.542371
     15          1           0       -2.053916   -1.326965   -1.072925
     16          1           0        1.284642    1.037401    1.723504
     17          1           0        0.404301    0.237601   -2.068697
     18          1           0        1.427926   -2.156708   -1.162532
     19          1           0        2.032871   -1.601686    1.467979
 ---------------------------------------------------------------------

 SCF Done:  E(RB3LYP) =  -423.123807918     A.U. after    1 cycles

 The electronic state is 1-A.
 Alpha  occ. eigenvalues --  -19.13844 -19.13118 -10.24356 -10.24339 -10.22398
 Alpha  occ. eigenvalues --  -10.20426 -10.19123 -10.19027 -10.16714  -1.04971
 Alpha  occ. eigenvalues --   -1.01717  -0.81158  -0.76698  -0.69558  -0.67362
 Alpha  occ. eigenvalues --   -0.64107  -0.54733  -0.53908  -0.52339  -0.49948
 Alpha  occ. eigenvalues --   -0.47724  -0.44998  -0.41033  -0.40629  -0.39204
 Alpha  occ. eigenvalues --   -0.38157  -0.37211  -0.35848  -0.35046  -0.32258
 Alpha  occ. eigenvalues --   -0.30586  -0.27868  -0.24902  -0.23839
 Alpha virt. eigenvalues --   -0.00898   0.06714   0.09616   0.11175   0.12052
 Alpha virt. eigenvalues --    0.13820   0.14253   0.15201   0.16467   0.16887
 Alpha virt. eigenvalues --    0.17557   0.18269   0.19263   0.20321   0.21137

 Mulliken charges:
               1
     1  C   -0.456127
     2  C    0.309491
     3  C   -0.147745
     4  O   -0.417105
     5  C   -0.034419
     6  O   -0.283601
     7  C   -0.031507
     8  C   -0.093954
     9  C   -0.083323
    10  H    0.133357
    11  H    0.130167
    12  H    0.110029
    13  H    0.091837
    14  H    0.107296
    15  H    0.283292
    16  H    0.078738
    17  H    0.079448
    18  H    0.110765
    19  H    0.113364
 Sum of Mulliken charges =   0.00000

 Dipole moment (field-independent basis, Debye):
    X=              0.2210    Y=             -1.5988    Z=              0.2641  Tot=              1.6355
 Quadrupole moment (field-independent basis, Debye-Ang):
   XX=            -62.3641   YY=            -52.4440   ZZ=            -47.6344
   XY=             -3.4467   XZ=              2.6025   YZ=              2.8875

  Exact polarizability:  73.216  -6.331  74.428   3.091   3.163  75.038
 Approx polarizability: 104.243  -3.768 107.385   6.934   7.043 127.865

                      1                      2                      3
                      A                      A                      A
 Frequencies --     76.8704               163.1770               224.0450
 Red. masses --      3.4046                 3.5568                 1.0459
 Frc consts  --      0.0119                 0.0558                 0.0309
 IR Inten    --      3.9790                 0.9973                 0.4924

                      4                      5                      6
                      A                      A                      A
 Frequencies --    273.3141               282.0444               300.3595
 Red. masses --      1.3302                 3.0422                 2.1092
 Frc consts  --      0.0585                 0.1426                 0.1121
 IR Inten    --     58.4924                 2.7754                40.9955

                      7                      8                      9
                      A                      A                      A
 Frequencies --    378.7043               411.8286               504.6343
 Red. masses --      2.1447                 4.4519                 2.9844
 Frc consts  --      0.1812                 0.4449                 0.4478
 IR Inten    --      3.6887                 3.7934                 3.2625

                     10                     11                     12
                      A                      A                      A
 Frequencies --    556.6591               623.6762               659.5327
 Red. masses --      3.1018                 3.1530                 2.8646
 Frc consts  --      0.5663                 0.7226                 0.7341
 IR Inten    --      1.8091                 1.2005                 8.0377

                     13                     14                     15
                      A                      A                      A
 Frequencies --    730.1080               788.4778               827.9203
 Red. masses --      2.2139                 4.3886                 3.2383
 Frc consts  --      0.6953                 1.6075                 1.3078
 IR Inten    --     31.2339                 0.3590                 4.2690

                     16                     17                     18
                      A                      A                      A
 Frequencies --    855.5656               875.4843               907.7574
 Red. masses --      2.9179                 2.1024                 2.8064
 Frc consts  --      1.2584                 0.9495                 1.3625
 IR Inten    --     49.4840                 0.4100                11.1256

                     19                     20                     21
                      A                      A                      A
 Frequencies --    908.7222               934.0595               944.5657
 Red. masses --      1.5244                 2.3528                 2.4827
 Frc consts  --      0.7417                 1.2095                 1.3051
 IR Inten    --      1.4487                 1.1345                22.4625

                     22                     23                     24
                      A                      A                      A
 Frequencies --    959.8847               999.9082              1052.4798
 Red. masses --      1.8237                 1.5689                 5.0769
 Frc consts  --      0.9900                 0.9242                 3.3134
 IR Inten    --      4.4607                 1.3616               105.8358

                     25                     26                     27
                      A                      A                      A
 Frequencies --   1105.2456              1129.3258              1136.4488
 Red. masses --      1.6988                 2.1700                 1.8286
 Frc consts  --      1.2227                 1.6306                 1.3914
 IR Inten    --      8.5224                 6.7904                 4.9349

                     28                     29                     30
                      A                      A                      A
 Frequencies --   1166.4249              1205.4842              1231.2580
 Red. masses --      1.3355                 1.3823                 1.2194
 Frc consts  --      1.0706                 1.1835                 1.0892
 IR Inten    --      0.2820                 5.5983                 0.5140

                     31                     32                     33
                      A                      A                      A
 Frequencies --   1252.9578              1294.5167              1300.8269
 Red. masses --      2.5425                 1.9898                 1.5326
 Frc consts  --      2.3517                 1.9646                 1.5279
 IR Inten    --      5.0110                 4.2939                 7.7723

                     34                     35                     36
                      A                      A                      A
 Frequencies --   1305.5449              1385.2506              1400.8413
 Red. masses --      1.6950                 1.2695                 1.2396
 Frc consts  --      1.7021                 1.4353                 1.4332
 IR Inten    --      5.4288                 2.4808                23.2712

                     37                     38                     39
                      A                      A                      A
 Frequencies --   1412.7898              1494.6445              1498.2608
 Red. masses --      1.2471                 1.0605                 1.0578
 Frc consts  --      1.4666                 1.3959                 1.3991
 IR Inten    --     28.5080                 6.2612                 2.0115

                     40                     41                     42
                      A                      A                      A
 Frequencies --   1509.5324              1610.0131              3033.2519
 Red. masses --      1.0670                 5.7471                 1.0526
 Frc consts  --      1.4326                 8.7773                 5.7057
 IR Inten    --      4.9317                 0.2374                27.5491

                     43                     44                     45
                      A                      A                      A
 Frequencies --   3038.4843              3076.7822              3103.7424
 Red. masses --      1.0470                 1.1065                 1.0934
 Frc consts  --      5.6952                 6.1716                 6.2059
 IR Inten    --     27.4549                30.7762                12.5568

                     46                     47                     48
                      A                      A                      A
 Frequencies --   3122.2873              3127.2142              3151.9597
 Red. masses --      1.0894                 1.0926                 1.1004
 Frc consts  --      6.2570                 6.2953                 6.4411
 IR Inten    --     54.8213                14.6586                 8.3895

                     49                     50                     51
                      A                      A                      A
 Frequencies --   3230.1070              3257.3697              3816.9252
 Red. masses --      1.0866                 1.1113                 1.0663
 Frc consts  --      6.6797                 6.9473                 9.1529
 IR Inten    --      2.6139                 5.6063                12.8462

 - Thermochemistry -
 -------------------
 Temperature   298.150 Kelvin.  Pressure   1.00000 Atm.
 Atom     1 has atomic number  6 and mass  12.00000

 Molecular mass:   126.06808 amu.
 Principal axes and moments of inertia in atomic units:
                           1         2         3
     Eigenvalues --   673.074981136.784651403.43010
           X            0.99846  -0.05517   0.00496
           Y            0.05509   0.99838   0.01414
           Z           -0.00573  -0.01385   0.99989
 This molecule is an asymmetric top.
 Rotational symmetry number  1.
 Warning -- assumption of classical behavior for rotation
           may cause significant error
 Rotational temperatures (Kelvin)      0.12868     0.07619     0.06172
 Rotational constants (GHZ):           2.68134     1.58758     1.28595
 Zero-point vibrational energy     416523.4 (Joules/Mol)
                                   99.55147 (Kcal/Mol)
 Warning -- explicit consideration of  10 degrees of freedom as
           vibrations may cause significant error
 Vibrational temperatures:    110.60   234.78   322.35   393.24   405.80
          (Kelvin)            432.15   544.87   592.53   726.06   800.91
                              897.33   948.92  1050.46  1134.44  1191.19
                             1230.97  1259.63  1306.06  1307.45  1343.90
                             1359.02  1381.06  1438.64  1514.28  1590.20
                             1624.85  1635.09  1678.22  1734.42  1771.50
                             1802.72  1862.52  1871.60  1878.39  1993.06
                             2015.50  2032.69  2150.46  2155.66  2171.88
                             2316.45  4364.17  4371.70  4426.80  4465.59
                             4492.27  4499.36  4534.96  4647.40  4686.62
                             5491.70

 Zero-point correction=                           0.158645 (Hartree/Particle)
 Thermal correction to Energy=                    0.166922
 Thermal correction to Enthalpy=                  0.167866
 Thermal correction to Gibbs Free Energy=         0.126059
 Sum of electronic and zero-point Energies=           -422.965163
 Sum of electronic and thermal Energies=              -422.956886
 Sum of electronic and thermal Enthalpies=            -422.955941
 Sum of electronic and thermal Free Energies=         -422.997749

                     E (Thermal)             CV                S
                      KCal/Mol        Cal/Mol-Kelvin    Cal/Mol-Kelvin
 Total                  104.745             32.688             87.992
 Electronic               0.000              0.000              0.000
 Translational            0.889              2.981             40.409
 Rotational               0.889              2.981             28.464
 Vibrational            102.968             26.726             19.119
 Vibration     1          0.599              1.965              3.969
 Vibration     2          0.623              1.888              2.513
 Vibration     3          0.649              1.804              1.926
 Vibration     4          0.676              1.723              1.575
 Vibration     5          0.681              1.707              1.521
 Vibration     6          0.693              1.673              1.415
 Vibration     7          0.749              1.516              1.044
 Vibration     8          0.776              1.445              0.920
 Vibration     9          0.860              1.240              0.647
 Vibration    10          0.912              1.125              0.531

 Optimization completed.
    -- Stationary point found.
 Normal termination of Gaussian 09 at Tue Jan 28 09:22:45 2020.
