 Gaussian 09, Revision D.01,
 Gaussian 09:  ES64L-G09RevD.01 24-Apr-2013

 -----------------------------
 # b3lyp 6-31G(2df,p) opt Freq
 -----------------------------

 -----
 titel
 -----
 Symbolic Z-matrix:
 Charge =  0 Multiplicity = 1

 SCF Done:  E(RB3LYP) =  -423.197692608     A.U. after   13 cycles
 Optimization completed.
    -- Stationary point found.
 Normal termination of Gaussian 09 at Mon Jan 27 11:19:37 2020.

 ----------------------------------------------------------------------
 #N Geom=AllCheck Guess=TCheck SCRF=Check GenChk RB3LYP/6-31G(2df,p) Fr
 eq
 ----------------------------------------------------------------------

 Structure from the checkpoint file:  "/scratch/puck/g09_8e35a999-315a-4304-9c21-739b224887fc/Gau-164779.chk"
 -----
 titel
 -----
 Charge =  0 Multiplicity = 1

                         Standard orientation:
 ---------------------------------------------------------------------
 Center     Atomic      Atomic             Coordinates (Angstroms)
 Number     Number       Type             X           Y           Z
 ---------------------------------------------------------------------
      1          6           0        1.689576    0.030888   -0.681254
      2          6           0        0.920020   -1.182027   -0.088372
      3          6           0       -0.442231   -1.469210   -0.742392
      4          6           0       -1.345377   -0.393686   -0.111937
      5          8           0       -0.918380   -0.323577    1.231253
      6          6           0        0.502159   -0.294947    1.131274
      7          6           0        1.003576    0.965384    0.355422
      8          6           0       -0.220973    1.719312   -0.162043
      9          8           0       -1.171097    0.852631   -0.780671
     10          1           0        2.768127   -0.042058   -0.521638
     11          1           0        1.505964    0.254223   -1.735971
     12          1           0        1.500466   -2.085242    0.101087
     13          1           0       -0.433489   -1.399689   -1.832167
     14          1           0       -0.806699   -2.459677   -0.453331
     15          1           0       -2.413369   -0.624791   -0.124739
     16          1           0        0.928697   -0.491022    2.114403
     17          1           0        1.660658    1.651921    0.896181
     18          1           0       -0.690927    2.256876    0.673395
     19          1           0        0.055894    2.452744   -0.926063
 ---------------------------------------------------------------------

 SCF Done:  E(RB3LYP) =  -423.197692608     A.U. after    1 cycles

 The electronic state is 1-A.
 Alpha  occ. eigenvalues --  -19.14575 -19.13282 -10.27149 -10.23029 -10.22579
 Alpha  occ. eigenvalues --  -10.18848 -10.18667 -10.18190 -10.17977  -1.07456
 Alpha  occ. eigenvalues --   -0.99713  -0.84234  -0.77372  -0.68091  -0.67230
 Alpha  occ. eigenvalues --   -0.63657  -0.57066  -0.53749  -0.51147  -0.49571
 Alpha  occ. eigenvalues --   -0.47079  -0.45202  -0.42888  -0.41740  -0.40506
 Alpha  occ. eigenvalues --   -0.38678  -0.36903  -0.34532  -0.34002  -0.32344
 Alpha  occ. eigenvalues --   -0.30931  -0.29078  -0.25617  -0.24504
 Alpha virt. eigenvalues --    0.07570   0.11118   0.11504   0.12201   0.12937
 Alpha virt. eigenvalues --    0.14547   0.14917   0.15710   0.16607   0.16718
 Alpha virt. eigenvalues --    0.18249   0.18579   0.20193   0.21548   0.22715

 Mulliken charges:
               1
     1  C   -0.243904
     2  C   -0.056786
     3  C   -0.240555
     4  C    0.188712
     5  O   -0.249532
     6  C    0.102597
     7  C   -0.067560
     8  C   -0.076545
     9  O   -0.285499
    10  H    0.100043
    11  H    0.103365
    12  H    0.070946
    13  H    0.109660
    14  H    0.103462
    15  H    0.086835
    16  H    0.077481
    17  H    0.070423
    18  H    0.101552
    19  H    0.105307
 Sum of Mulliken charges =   0.00000

 Dipole moment (field-independent basis, Debye):
    X=              1.6510    Y=             -0.4273    Z=             -0.0179  Tot=              1.7055
 Quadrupole moment (field-independent basis, Debye-Ang):
   XX=            -52.8908   YY=            -50.9077   ZZ=            -54.9304
   XY=              1.7831   XZ=              1.3565   YZ=              1.2819

  Exact polarizability:  74.497   2.457  76.376   1.162   1.378  66.389
 Approx polarizability: 106.624   3.096 106.151   1.523   0.099 103.991

                      1                      2                      3
                      A                      A                      A
 Frequencies --    178.3545               313.3085               340.1179
 Red. masses --      3.1372                 3.0279                 1.9598
 Frc consts  --      0.0588                 0.1751                 0.1336
 IR Inten    --      2.9590                 1.2918                 2.0220

                      4                      5                      6
                      A                      A                      A
 Frequencies --    414.7092               480.3623               517.3103
 Red. masses --      1.8411                 5.2134                 5.4784
 Frc consts  --      0.1866                 0.7088                 0.8638
 IR Inten    --      0.8873                 7.5508                 2.0867

                      7                      8                      9
                      A                      A                      A
 Frequencies --    603.9003               658.1152               766.0487
 Red. masses --      4.7314                 5.2880                 2.2275
 Frc consts  --      1.0166                 1.3494                 0.7702
 IR Inten    --      0.8301                 1.4888                 4.0395

                     10                     11                     12
                      A                      A                      A
 Frequencies --    795.5956               811.4489               850.5767
 Red. masses --      4.5524                 2.5704                 2.4138
 Frc consts  --      1.6978                 0.9972                 1.0289
 IR Inten    --      6.7032                 0.5922                 2.1939

                     13                     14                     15
                      A                      A                      A
 Frequencies --    859.0755               895.5904               901.7485
 Red. masses --      2.2930                 2.1987                 3.0662
 Frc consts  --      0.9971                 1.0390                 1.4690
 IR Inten    --     17.9895                 4.9080                 5.2507

                     16                     17                     18
                      A                      A                      A
 Frequencies --    942.4694               960.3446               973.2157
 Red. masses --      2.0129                 3.4242                 2.0625
 Frc consts  --      1.0534                 1.8606                 1.1510
 IR Inten    --     10.4772                14.2226                 7.5905

                     19                     20                     21
                      A                      A                      A
 Frequencies --    991.7140              1038.9447              1047.9768
 Red. masses --      2.1802                 1.8965                 2.4172
 Frc consts  --      1.2633                 1.2061                 1.5641
 IR Inten    --     51.7829                19.9201                17.0675

                     22                     23                     24
                      A                      A                      A
 Frequencies --   1076.5174              1095.0073              1143.6970
 Red. masses --      2.3720                 2.0884                 1.3115
 Frc consts  --      1.6196                 1.4753                 1.0107
 IR Inten    --      9.9384                17.8940                 1.6545

                     25                     26                     27
                      A                      A                      A
 Frequencies --   1154.1714              1160.9240              1199.8557
 Red. masses --      3.8798                 1.9992                 1.3157
 Frc consts  --      3.0451                 1.5875                 1.1160
 IR Inten    --    122.3510                38.5701                 5.5369

                     28                     29                     30
                      A                      A                      A
 Frequencies --   1238.5630              1247.7810              1263.5826
 Red. masses --      1.3132                 1.5156                 1.5886
 Frc consts  --      1.1869                 1.3903                 1.4945
 IR Inten    --      4.0736                 6.2102                 6.4895

                     31                     32                     33
                      A                      A                      A
 Frequencies --   1285.8465              1304.8553              1308.8552
 Red. masses --      1.3429                 1.4384                 1.5050
 Frc consts  --      1.3082                 1.4429                 1.5190
 IR Inten    --      4.4647                 5.1514                 6.4851

                     34                     35                     36
                      A                      A                      A
 Frequencies --   1330.5941              1339.7404              1364.1670
 Red. masses --      1.4481                 1.5589                 1.3142
 Frc consts  --      1.5106                 1.6486                 1.4410
 IR Inten    --      4.2234                 3.6901                 5.4361

                     37                     38                     39
                      A                      A                      A
 Frequencies --   1384.2208              1413.3594              1471.7151
 Red. masses --      1.3778                 1.3026                 1.1012
 Frc consts  --      1.5554                 1.5331                 1.4053
 IR Inten    --     10.1296                 7.4733                 2.2615

                     40                     41                     42
                      A                      A                      A
 Frequencies --   1487.2849              1504.4924              3005.3584
 Red. masses --      1.1087                 1.0881                 1.0664
 Frc consts  --      1.4450                 1.4510                 5.6752
 IR Inten    --      4.5284                 1.0897                57.0001

                     43                     44                     45
                      A                      A                      A
 Frequencies --   3055.6107              3057.8217              3070.1594
 Red. masses --      1.0595                 1.0630                 1.0894
 Frc consts  --      5.8286                 5.8560                 6.0502
 IR Inten    --     30.6754                13.4584                25.7293

                     46                     47                     48
                      A                      A                      A
 Frequencies --   3075.5998              3087.7514              3099.5491
 Red. masses --      1.0948                 1.0890                 1.0915
 Frc consts  --      6.1015                 6.1171                 6.1783
 IR Inten    --     50.1265                57.2369                29.6111

                     49                     50                     51
                      A                      A                      A
 Frequencies --   3110.0320              3119.2699              3122.9603
 Red. masses --      1.1031                 1.1034                 1.0919
 Frc consts  --      6.2866                 6.3256                 6.2743
 IR Inten    --     14.7383                13.4662                49.6546

 - Thermochemistry -
 -------------------
 Temperature   298.150 Kelvin.  Pressure   1.00000 Atm.
 Atom     1 has atomic number  6 and mass  12.00000

 Molecular mass:   126.06808 amu.
 Principal axes and moments of inertia in atomic units:
                           1         2         3
     Eigenvalues --   747.72160 785.70121 983.44195
           X            0.98062   0.19578   0.00809
           Y           -0.19593   0.97932   0.05051
           Z            0.00196  -0.05111   0.99869
 This molecule is an asymmetric top.
 Rotational symmetry number  1.
 Warning -- assumption of classical behavior for rotation
           may cause significant error
 Rotational temperatures (Kelvin)      0.11584     0.11024     0.08807
 Rotational constants (GHZ):           2.41365     2.29698     1.83513
 Zero-point vibrational energy     430178.7 (Joules/Mol)
                                  102.81519 (Kcal/Mol)
 Warning -- explicit consideration of   7 degrees of freedom as
           vibrations may cause significant error
 Vibrational temperatures:    256.61   450.78   489.35   596.67   691.13
          (Kelvin)            744.29   868.88   946.88  1102.17  1144.68
                             1167.49  1223.79  1236.02  1288.55  1297.41
                             1356.00  1381.72  1400.24  1426.85  1494.81
                             1507.80  1548.87  1575.47  1645.52  1660.59
                             1670.31  1726.32  1782.01  1795.28  1818.01
                             1850.04  1877.39  1883.15  1914.43  1927.59
                             1962.73  1991.58  2033.51  2117.47  2139.87
                             2164.63  4324.03  4396.34  4399.52  4417.27
                             4425.10  4442.58  4459.55  4474.64  4487.93
                             4493.24

 Zero-point correction=                           0.163846 (Hartree/Particle)
 Thermal correction to Energy=                    0.170059
 Thermal correction to Enthalpy=                  0.171003
 Thermal correction to Gibbs Free Energy=         0.133614
 Sum of electronic and zero-point Energies=           -423.033846
 Sum of electronic and thermal Energies=              -423.027634
 Sum of electronic and thermal Enthalpies=            -423.026690
 Sum of electronic and thermal Free Energies=         -423.064079

                     E (Thermal)             CV                S
                      KCal/Mol        Cal/Mol-Kelvin    Cal/Mol-Kelvin
 Total                  106.713             26.713             78.692
 Electronic               0.000              0.000              0.000
 Translational            0.889              2.981             40.409
 Rotational               0.889              2.981             27.849
 Vibrational            104.936             20.751             10.435
 Vibration     1          0.629              1.869              2.346
 Vibration     2          0.701              1.648              1.345
 Vibration     3          0.720              1.595              1.212
 Vibration     4          0.778              1.438              0.910
 Vibration     5          0.837              1.294              0.709
 Vibration     6          0.872              1.212              0.616
 Vibration     7          0.962              1.024              0.443

 Optimization completed.
    -- Stationary point found.
 Normal termination of Gaussian 09 at Mon Jan 27 12:11:34 2020.
