 Gaussian 09, Revision D.01,
 Gaussian 09:  ES64L-G09RevD.01 24-Apr-2013

 -----------------------------
 # b3lyp 6-31G(2df,p) opt Freq
 -----------------------------

 -----
 titel
 -----
 Symbolic Z-matrix:
 Charge =  0 Multiplicity = 1

 SCF Done:  E(RB3LYP) =  -423.201365014     A.U. after   13 cycles
 Optimization completed.
    -- Stationary point found.
 Normal termination of Gaussian 09 at Mon Jan 27 12:23:08 2020.

 ----------------------------------------------------------------------
 #N Geom=AllCheck Guess=TCheck SCRF=Check GenChk RB3LYP/6-31G(2df,p) Fr
 eq
 ----------------------------------------------------------------------

 Structure from the checkpoint file:  "/scratch/puck/g09_c5049710-f3fb-4d4e-a3b5-0e284840378a/Gau-52504.chk"
 -----
 titel
 -----
 Charge =  0 Multiplicity = 1

                         Standard orientation:
 ---------------------------------------------------------------------
 Center     Atomic      Atomic             Coordinates (Angstroms)
 Number     Number       Type             X           Y           Z
 ---------------------------------------------------------------------
      1          6           0       -1.850944   -0.561585   -0.438601
      2          6           0       -1.456184    0.917039   -0.675441
      3          6           0       -0.392406    1.197228    0.435985
      4          8           0       -0.376244    0.013587    1.254003
      5          6           0       -0.683681   -1.060358    0.410568
      6          8           0        0.380778   -1.369401   -0.479275
      7          6           0        1.678893   -0.950262   -0.073470
      8          6           0        1.915790    0.531715   -0.276380
      9          6           0        0.996363    1.476407   -0.085500
     10          1           0       -2.777519   -0.637977    0.137174
     11          1           0       -1.959659   -1.134132   -1.360648
     12          1           0       -1.019246    1.056845   -1.665355
     13          1           0       -2.313837    1.586993   -0.586785
     14          1           0       -0.705670    2.016961    1.090173
     15          1           0       -0.896785   -1.920409    1.057364
     16          1           0        1.878887   -1.234815    0.969887
     17          1           0        2.370718   -1.518006   -0.703744
     18          1           0        2.907354    0.813024   -0.623035
     19          1           0        1.232498    2.516931   -0.295825
 ---------------------------------------------------------------------

 SCF Done:  E(RB3LYP) =  -423.201365014     A.U. after    1 cycles

 The electronic state is 1-A.
 Alpha  occ. eigenvalues --  -19.14272 -19.13275 -10.26972 -10.23554 -10.22820
 Alpha  occ. eigenvalues --  -10.18562 -10.18144 -10.18105 -10.18007  -1.07053
 Alpha  occ. eigenvalues --   -0.99856  -0.79967  -0.78150  -0.71172  -0.69023
 Alpha  occ. eigenvalues --   -0.59701  -0.57305  -0.54706  -0.51651  -0.49950
 Alpha  occ. eigenvalues --   -0.46940  -0.45454  -0.43745  -0.40543  -0.39923
 Alpha  occ. eigenvalues --   -0.37445  -0.36209  -0.35706  -0.34934  -0.33259
 Alpha  occ. eigenvalues --   -0.31144  -0.27471  -0.25400  -0.24050
 Alpha virt. eigenvalues --    0.01420   0.08615   0.11139   0.11754   0.13597
 Alpha virt. eigenvalues --    0.13922   0.14987   0.15771   0.17162   0.17421
 Alpha virt. eigenvalues --    0.18152   0.19204   0.19664   0.21048   0.23334

 Mulliken charges:
               1
     1  C   -0.224001
     2  C   -0.251976
     3  C    0.054367
     4  O   -0.245248
     5  C    0.189996
     6  O   -0.280193
     7  C   -0.128591
     8  C   -0.059832
     9  C   -0.059217
    10  H    0.103759
    11  H    0.115345
    12  H    0.117917
    13  H    0.105122
    14  H    0.085309
    15  H    0.074640
    16  H    0.113319
    17  H    0.108356
    18  H    0.091147
    19  H    0.089781
 Sum of Mulliken charges =   0.00000

 Dipole moment (field-independent basis, Debye):
    X=             -0.2195    Y=              0.8192    Z=             -0.3903  Tot=              0.9336
 Quadrupole moment (field-independent basis, Debye-Ang):
   XX=            -48.5648   YY=            -51.1442   ZZ=            -56.1249
   XY=             -0.4259   XZ=             -0.2976   YZ=             -1.4918

  Exact polarizability:  87.635  -3.832  79.891  -2.899  -1.209  58.849
 Approx polarizability: 119.884 -11.536 118.580  -5.941   1.338  94.074

                      1                      2                      3
                      A                      A                      A
 Frequencies --    120.8496               207.5534               263.4311
 Red. masses --      2.2681                 3.7226                 1.9733
 Frc consts  --      0.0195                 0.0945                 0.0807
 IR Inten    --      1.5431                 3.8296                 2.5812

                      4                      5                      6
                      A                      A                      A
 Frequencies --    314.6218               398.8076               444.2164
 Red. masses --      5.6206                 2.9545                 3.6452
 Frc consts  --      0.3278                 0.2769                 0.4238
 IR Inten    --      6.8475                 1.3902                 1.5403

                      7                      8                      9
                      A                      A                      A
 Frequencies --    473.1250               619.7054               674.6072
 Red. masses --      2.8808                 6.3323                 1.9715
 Frc consts  --      0.3799                 1.4328                 0.5286
 IR Inten    --      1.9909                 5.5901                 8.3586

                     10                     11                     12
                      A                      A                      A
 Frequencies --    713.9705               755.3748               811.9648
 Red. masses --      1.6812                 2.9710                 3.8789
 Frc consts  --      0.5049                 0.9988                 1.5067
 IR Inten    --      7.8495                14.1999                 4.7917

                     13                     14                     15
                      A                      A                      A
 Frequencies --    832.7716               851.4008               885.3108
 Red. masses --      3.4115                 2.8322                 2.5341
 Frc consts  --      1.3940                 1.2096                 1.1702
 IR Inten    --      0.4451                 2.7508                10.6006

                     16                     17                     18
                      A                      A                      A
 Frequencies --    920.6233               951.1977               960.6997
 Red. masses --      2.7490                 2.8934                 2.4705
 Frc consts  --      1.3728                 1.5424                 1.3434
 IR Inten    --      4.2246                12.7586                29.2802

                     19                     20                     21
                      A                      A                      A
 Frequencies --    984.9550              1011.8924              1029.1108
 Red. masses --      1.2490                 2.6769                 2.7100
 Frc consts  --      0.7139                 1.6149                 1.6910
 IR Inten    --      2.2771                19.6300                18.4259

                     22                     23                     24
                      A                      A                      A
 Frequencies --   1041.9912              1072.8870              1093.7158
 Red. masses --      2.1700                 2.1351                 3.0059
 Frc consts  --      1.3882                 1.4480                 2.1185
 IR Inten    --     13.3163                 1.4751                56.5223

                     25                     26                     27
                      A                      A                      A
 Frequencies --   1134.5555              1184.4628              1214.1608
 Red. masses --      3.8012                 1.3921                 1.2367
 Frc consts  --      2.8828                 1.1507                 1.0742
 IR Inten    --    142.7339                41.6496                 3.7047

                     28                     29                     30
                      A                      A                      A
 Frequencies --   1234.2144              1278.5951              1295.8057
 Red. masses --      1.2592                 1.1746                 1.2405
 Frc consts  --      1.1301                 1.1314                 1.2272
 IR Inten    --     11.6568                 6.6686                 4.6321

                     31                     32                     33
                      A                      A                      A
 Frequencies --   1300.3825              1327.4997              1352.5781
 Red. masses --      1.1957                 1.4996                 1.3566
 Frc consts  --      1.1912                 1.5570                 1.4623
 IR Inten    --      4.2121                 2.4946                19.2408

                     34                     35                     36
                      A                      A                      A
 Frequencies --   1364.9135              1390.8802              1400.1299
 Red. masses --      1.2134                 1.4289                 1.2845
 Frc consts  --      1.3319                 1.6287                 1.4837
 IR Inten    --      7.6814                 6.6063                 8.4490

                     37                     38                     39
                      A                      A                      A
 Frequencies --   1408.3939              1478.6954              1479.7505
 Red. masses --      1.5685                 1.0863                 1.0875
 Frc consts  --      1.8331                 1.3994                 1.4030
 IR Inten    --      2.0047                 1.7227                 1.9746

                     40                     41                     42
                      A                      A                      A
 Frequencies --   1500.8472              1718.4107              2999.0201
 Red. masses --      1.0991                 6.8601                 1.0674
 Frc consts  --      1.4586                11.9353                 5.6563
 IR Inten    --      4.6046                 0.0859                41.2346

                     43                     44                     45
                      A                      A                      A
 Frequencies --   3036.3903              3054.1972              3068.3281
 Red. masses --      1.0850                 1.0858                 1.0637
 Frc consts  --      5.8936                 5.9676                 5.9004
 IR Inten    --     55.8333                27.7812                38.7550

                     46                     47                     48
                      A                      A                      A
 Frequencies --   3073.1041              3079.9130              3120.1361
 Red. masses --      1.0938                 1.0628                 1.1037
 Frc consts  --      6.0864                 5.9398                 6.3309
 IR Inten    --     30.9134                26.4803                 7.6700

                     49                     50                     51
                      A                      A                      A
 Frequencies --   3136.3231              3144.8847              3168.4774
 Red. masses --      1.1047                 1.0834                 1.0970
 Frc consts  --      6.4024                 6.3130                 6.4889
 IR Inten    --     27.1184                 7.8015                29.9539

 - Thermochemistry -
 -------------------
 Temperature   298.150 Kelvin.  Pressure   1.00000 Atm.
 Atom     1 has atomic number  6 and mass  12.00000

 Molecular mass:   126.06808 amu.
 Principal axes and moments of inertia in atomic units:
                           1         2         3
     Eigenvalues --   679.33227 922.085931236.13586
           X            0.99986  -0.01287   0.01046
           Y            0.01315   0.99952  -0.02796
           Z           -0.01009   0.02810   0.99955
 This molecule is an asymmetric top.
 Rotational symmetry number  1.
 Warning -- assumption of classical behavior for rotation
           may cause significant error
 Rotational temperatures (Kelvin)      0.12750     0.09393     0.07007
 Rotational constants (GHZ):           2.65664     1.95724     1.45999
 Zero-point vibrational energy     426946.2 (Joules/Mol)
                                  102.04259 (Kcal/Mol)
 Warning -- explicit consideration of   8 degrees of freedom as
           vibrations may cause significant error
 Vibrational temperatures:    173.88   298.62   379.02   452.67   573.79
          (Kelvin)            639.13   680.72   891.62   970.61  1027.24
                             1086.81  1168.23  1198.17  1224.97  1273.76
                             1324.57  1368.56  1382.23  1417.13  1455.89
                             1480.66  1499.19  1543.64  1573.61  1632.37
                             1704.18  1746.90  1775.76  1839.61  1864.37
                             1870.96  1909.97  1946.06  1963.80  2001.16
                             2014.47  2026.36  2127.51  2129.03  2159.38
                             2472.41  4314.92  4368.68  4394.30  4414.63
                             4421.51  4431.30  4489.17  4512.46  4524.78
                             4558.73

 Zero-point correction=                           0.162615 (Hartree/Particle)
 Thermal correction to Energy=                    0.169626
 Thermal correction to Enthalpy=                  0.170570
 Thermal correction to Gibbs Free Energy=         0.131404
 Sum of electronic and zero-point Energies=           -423.038750
 Sum of electronic and thermal Energies=              -423.031739
 Sum of electronic and thermal Enthalpies=            -423.030795
 Sum of electronic and thermal Free Energies=         -423.069961

                     E (Thermal)             CV                S
                      KCal/Mol        Cal/Mol-Kelvin    Cal/Mol-Kelvin
 Total                  106.442             28.610             82.432
 Electronic               0.000              0.000              0.000
 Translational            0.889              2.981             40.409
 Rotational               0.889              2.981             28.139
 Vibrational            104.665             22.648             13.884
 Vibration     1          0.609              1.932              3.087
 Vibration     2          0.641              1.829              2.065
 Vibration     3          0.670              1.740              1.639
 Vibration     4          0.702              1.646              1.338
 Vibration     5          0.765              1.473              0.967
 Vibration     6          0.804              1.374              0.813
 Vibration     7          0.830              1.310              0.729
 Vibration     8          0.980              0.990              0.417

 Optimization completed.
    -- Stationary point found.
 Normal termination of Gaussian 09 at Mon Jan 27 13:13:17 2020.
