 Gaussian 09, Revision D.01,
 Gaussian 09:  ES64L-G09RevD.01 24-Apr-2013

 -----------------------------
 # b3lyp 6-31G(2df,p) opt Freq
 -----------------------------

 -----
 titel
 -----
 Symbolic Z-matrix:
 Charge =  0 Multiplicity = 1

 SCF Done:  E(RB3LYP) =  -423.179806414     A.U. after   14 cycles
 Optimization completed.
    -- Stationary point found.
 Normal termination of Gaussian 09 at Mon Jan 27 22:04:03 2020.

 ----------------------------------------------------------------------
 #N Geom=AllCheck Guess=TCheck SCRF=Check GenChk RB3LYP/6-31G(2df,p) Fr
 eq
 ----------------------------------------------------------------------

 Structure from the checkpoint file:  "/scratch/puck/g09_69514170-6466-4946-ae79-6f3975b72a56/Gau-192818.chk"
 -----
 titel
 -----
 Charge =  0 Multiplicity = 1

                         Standard orientation:
 ---------------------------------------------------------------------
 Center     Atomic      Atomic             Coordinates (Angstroms)
 Number     Number       Type             X           Y           Z
 ---------------------------------------------------------------------
      1          6           0        2.657002   -0.305462   -0.056785
      2          6           0        1.269829    0.249431   -0.051380
      3          6           0        0.879704    1.523404   -0.179218
      4          6           0       -0.626981    1.691855   -0.164433
      5          6           0       -1.129578    0.272364    0.089767
      6          8           0       -2.238340   -0.196133   -0.623184
      7          6           0       -0.751048   -0.403476    1.390301
      8          6           0        0.073685   -0.635939    0.128430
      9          8           0        0.063838   -1.890486   -0.472884
     10          1           0        2.898648   -0.778470    0.903436
     11          1           0        2.750990   -1.086664   -0.819257
     12          1           0        3.400191    0.470913   -0.256247
     13          1           0        1.553684    2.368798   -0.267134
     14          1           0       -0.962593    2.402763    0.601806
     15          1           0       -1.008241    2.057616   -1.127143
     16          1           0       -3.021651   -0.117518   -0.069418
     17          1           0       -0.341304    0.185953    2.204590
     18          1           0       -1.378852   -1.240765    1.680368
     19          1           0       -0.730532   -1.922739   -1.022547
 ---------------------------------------------------------------------

 SCF Done:  E(RB3LYP) =  -423.179806414     A.U. after    1 cycles

 The electronic state is 1-A.
 Alpha  occ. eigenvalues --  -19.15596 -19.13619 -10.23547 -10.23005 -10.18438
 Alpha  occ. eigenvalues --  -10.18255 -10.18138 -10.17483 -10.17246  -1.04576
 Alpha  occ. eigenvalues --   -1.01666  -0.86798  -0.77372  -0.73151  -0.65515
 Alpha  occ. eigenvalues --   -0.61293  -0.58300  -0.53552  -0.51812  -0.46572
 Alpha  occ. eigenvalues --   -0.45263  -0.43708  -0.42036  -0.40972  -0.40575
 Alpha  occ. eigenvalues --   -0.38877  -0.37476  -0.35697  -0.35480  -0.34442
 Alpha  occ. eigenvalues --   -0.29446  -0.26182  -0.25479  -0.21821
 Alpha virt. eigenvalues --    0.02514   0.06398   0.11321   0.11812   0.12950
 Alpha virt. eigenvalues --    0.13657   0.13689   0.15271   0.16072   0.17721
 Alpha virt. eigenvalues --    0.18438   0.19129   0.21352   0.22230   0.24865

 Mulliken charges:
               1
     1  C   -0.497297
     2  C    0.274560
     3  C   -0.180648
     4  C   -0.336906
     5  C    0.297874
     6  O   -0.475526
     7  C   -0.400375
     8  C    0.305987
     9  O   -0.480968
    10  H    0.127664
    11  H    0.141192
    12  H    0.118184
    13  H    0.088242
    14  H    0.103027
    15  H    0.114852
    16  H    0.289097
    17  H    0.110441
    18  H    0.109202
    19  H    0.291399
 Sum of Mulliken charges =   0.00000

 Dipole moment (field-independent basis, Debye):
    X=             -1.2988    Y=              1.1447    Z=              0.8159  Tot=              1.9139
 Quadrupole moment (field-independent basis, Debye-Ang):
   XX=            -46.7508   YY=            -54.3487   ZZ=            -53.4200
   XY=              1.7606   XZ=             -1.7998   YZ=              0.4200

  Exact polarizability:  86.003  -2.944  82.605  -1.162  -2.467  62.522
 Approx polarizability: 115.433  -8.775 129.894   0.166  -3.174  96.948

                      1                      2                      3
                      A                      A                      A
 Frequencies --    134.7006               177.7033               200.3850
 Red. masses --      3.6977                 1.0621                 3.2564
 Frc consts  --      0.0395                 0.0198                 0.0770
 IR Inten    --      4.2406                 0.0729                15.6700

                      4                      5                      6
                      A                      A                      A
 Frequencies --    223.3128               257.1544               263.3984
 Red. masses --      2.5657                 1.8456                 1.4017
 Frc consts  --      0.0754                 0.0719                 0.0573
 IR Inten    --      5.2848                 4.5916                21.5292

                      7                      8                      9
                      A                      A                      A
 Frequencies --    296.3008               304.7690               401.7704
 Red. masses --      1.6817                 1.8648                 2.7998
 Frc consts  --      0.0870                 0.1021                 0.2663
 IR Inten    --     64.3355                28.2435                 8.8546

                     10                     11                     12
                      A                      A                      A
 Frequencies --    450.5797               494.7162               554.0157
 Red. masses --      2.4992                 3.8629                 3.1198
 Frc consts  --      0.2989                 0.5570                 0.5642
 IR Inten    --      7.1656                 2.9351                 2.9430

                     13                     14                     15
                      A                      A                      A
 Frequencies --    593.5167               658.1855               707.5943
 Red. masses --      3.2441                 4.2376                 4.2342
 Frc consts  --      0.6733                 1.0816                 1.2491
 IR Inten    --      3.8523                 1.1127                 2.0205

                     16                     17                     18
                      A                      A                      A
 Frequencies --    780.8116               814.9386               855.0467
 Red. masses --      3.9284                 1.2283                 3.1436
 Frc consts  --      1.4111                 0.4806                 1.3541
 IR Inten    --     15.6584                22.0014                20.8979

                     19                     20                     21
                      A                      A                      A
 Frequencies --    907.4154               937.8459               957.8002
 Red. masses --      1.5556                 1.6774                 1.8302
 Frc consts  --      0.7547                 0.8693                 0.9892
 IR Inten    --      1.2052                 3.1180                 3.4206

                     22                     23                     24
                      A                      A                      A
 Frequencies --    993.2914              1026.6633              1033.5696
 Red. masses --      2.1587                 1.6459                 1.3243
 Frc consts  --      1.2549                 1.0222                 0.8335
 IR Inten    --     17.9263                10.1143                15.4535

                     25                     26                     27
                      A                      A                      A
 Frequencies --   1068.6497              1087.1901              1144.0458
 Red. masses --      1.5903                 2.3883                 1.4816
 Frc consts  --      1.0700                 1.6632                 1.1425
 IR Inten    --      0.4865                23.5409                15.2666

                     28                     29                     30
                      A                      A                      A
 Frequencies --   1158.6387              1231.9561              1252.5895
 Red. masses --      2.9293                 2.2381                 1.8294
 Frc consts  --      2.3170                 2.0014                 1.6911
 IR Inten    --     43.7706                66.0726                52.8605

                     31                     32                     33
                      A                      A                      A
 Frequencies --   1286.1331              1307.1477              1338.2054
 Red. masses --      1.3744                 1.7476                 2.5290
 Frc consts  --      1.3395                 1.7593                 2.6684
 IR Inten    --     41.5624                31.9052                46.1691

                     34                     35                     36
                      A                      A                      A
 Frequencies --   1384.5087              1408.0298              1414.1923
 Red. masses --      1.8999                 1.4003                 2.0467
 Frc consts  --      2.1457                 1.6357                 2.4117
 IR Inten    --     12.4912                 1.0620                 8.3315

                     37                     38                     39
                      A                      A                      A
 Frequencies --   1459.3459              1474.8558              1483.0088
 Red. masses --      1.3772                 1.0445                 1.2205
 Frc consts  --      1.7281                 1.3386                 1.5816
 IR Inten    --     12.2361                 5.9572                 7.6906

                     40                     41                     42
                      A                      A                      A
 Frequencies --   1491.0590              1704.4816              3015.4633
 Red. masses --      1.0727                 7.1417                 1.0585
 Frc consts  --      1.4051                12.2246                 5.6711
 IR Inten    --      9.0001                 1.3577                40.5917

                     43                     44                     45
                      A                      A                      A
 Frequencies --   3024.3933              3046.5740              3077.7775
 Red. masses --      1.0386                 1.1029                 1.0956
 Frc consts  --      5.5973                 6.0310                 6.1147
 IR Inten    --     26.3889                20.6590                13.2599

                     46                     47                     48
                      A                      A                      A
 Frequencies --   3115.6706              3116.0788              3188.4869
 Red. masses --      1.0531                 1.1010                 1.0933
 Frc consts  --      6.0233                 6.2987                 6.5485
 IR Inten    --      8.9740                19.3036                16.2027

                     49                     50                     51
                      A                      A                      A
 Frequencies --   3213.1565              3756.7620              3810.5865
 Red. masses --      1.1182                 1.0658                 1.0666
 Frc consts  --      6.8017                 8.8626                 9.1253
 IR Inten    --      7.4259                41.8282                28.6689

 - Thermochemistry -
 -------------------
 Temperature   298.150 Kelvin.  Pressure   1.00000 Atm.
 Atom     1 has atomic number  6 and mass  12.00000

 Molecular mass:   126.06808 amu.
 Principal axes and moments of inertia in atomic units:
                           1         2         3
     Eigenvalues --   709.476161108.332331488.69707
           X            0.99991  -0.00808  -0.01098
           Y            0.00797   0.99992  -0.01017
           Z            0.01107   0.01008   0.99989
 This molecule is an asymmetric top.
 Rotational symmetry number  1.
 Warning -- assumption of classical behavior for rotation
           may cause significant error
 Rotational temperatures (Kelvin)      0.12208     0.07815     0.05818
 Rotational constants (GHZ):           2.54377     1.62834     1.21230
 Zero-point vibrational energy     413216.9 (Joules/Mol)
                                   98.76121 (Kcal/Mol)
 Warning -- explicit consideration of  13 degrees of freedom as
           vibrations may cause significant error
 Vibrational temperatures:    193.80   255.68   288.31   321.30   369.99
          (Kelvin)            378.97   426.31   438.49   578.06   648.28
                              711.79   797.10   853.94   946.98  1018.07
                             1123.41  1172.51  1230.22  1305.57  1349.35
                             1378.06  1429.12  1477.14  1487.07  1537.55
                             1564.22  1646.02  1667.02  1772.51  1802.19
                             1850.46  1880.69  1925.38  1992.00  2025.84
                             2034.70  2099.67  2121.99  2133.72  2145.30
                             2452.37  4338.57  4351.42  4383.34  4428.23
                             4482.75  4483.34  4587.52  4623.01  5405.14
                             5482.58

 Zero-point correction=                           0.157386 (Hartree/Particle)
 Thermal correction to Energy=                    0.166414
 Thermal correction to Enthalpy=                  0.167358
 Thermal correction to Gibbs Free Energy=         0.124508
 Sum of electronic and zero-point Energies=           -423.022420
 Sum of electronic and thermal Energies=              -423.013392
 Sum of electronic and thermal Enthalpies=            -423.012448
 Sum of electronic and thermal Free Energies=         -423.055298

                     E (Thermal)             CV                S
                      KCal/Mol        Cal/Mol-Kelvin    Cal/Mol-Kelvin
 Total                  104.426             35.078             90.185
 Electronic               0.000              0.000              0.000
 Translational            0.889              2.981             40.409
 Rotational               0.889              2.981             28.550
 Vibrational            102.649             29.117             21.226
 Vibration     1          0.613              1.919              2.878
 Vibration     2          0.628              1.870              2.352
 Vibration     3          0.638              1.839              2.130
 Vibration     4          0.649              1.806              1.932
 Vibration     5          0.667              1.751              1.681
 Vibration     6          0.670              1.740              1.639
 Vibration     7          0.690              1.681              1.438
 Vibration     8          0.696              1.665              1.391
 Vibration     9          0.767              1.466              0.956
 Vibration    10          0.809              1.360              0.794
 Vibration    11          0.850              1.262              0.671
 Vibration    12          0.909              1.131              0.536
 Vibration    13          0.951              1.046              0.461

 Normal termination of Gaussian 09 at Mon Jan 27 22:50:51 2020.
