 Gaussian 09, Revision D.01,
 Gaussian 09:  ES64L-G09RevD.01 24-Apr-2013

 -----------------------------
 # b3lyp 6-31G(2df,p) opt Freq
 -----------------------------

 -----
 titel
 -----
 Symbolic Z-matrix:
 Charge =  0 Multiplicity = 1

 SCF Done:  E(RB3LYP) =  -423.205156787     A.U. after   13 cycles
 Optimization completed.
    -- Stationary point found.
 Normal termination of Gaussian 09 at Tue Jan 28 00:30:07 2020.

 ----------------------------------------------------------------------
 #N Geom=AllCheck Guess=TCheck SCRF=Check GenChk RB3LYP/6-31G(2df,p) Fr
 eq
 ----------------------------------------------------------------------

 Structure from the checkpoint file:  "/scratch/puck/g09_65ca4894-1dce-4897-8997-0d53548e86ac/Gau-36396.chk"
 -----
 titel
 -----
 Charge =  0 Multiplicity = 1

                         Standard orientation:
 ---------------------------------------------------------------------
 Center     Atomic      Atomic             Coordinates (Angstroms)
 Number     Number       Type             X           Y           Z
 ---------------------------------------------------------------------
      1          8           0        2.467556   -0.365240    0.306534
      2          6           0        1.297964   -0.279429   -0.501454
      3          6           0        0.886046    1.164800   -0.698323
      4          6           0       -0.224176    1.640908   -0.134870
      5          6           0       -1.108361    0.718916    0.675974
      6          6           0       -2.061651   -0.074375   -0.247165
      7          6           0       -1.111614   -1.170575   -0.796461
      8          6           0        0.133165   -1.064083    0.125062
      9          8           0       -0.313944   -0.314625    1.265307
     10          1           0        2.214551   -0.004864    1.165761
     11          1           0        1.574985   -0.735145   -1.459582
     12          1           0        1.558465    1.800691   -1.266848
     13          1           0       -0.538290    2.672998   -0.265204
     14          1           0       -1.617312    1.248502    1.484656
     15          1           0       -2.867615   -0.513583    0.346600
     16          1           0       -2.507222    0.541825   -1.031082
     17          1           0       -1.565736   -2.161088   -0.729526
     18          1           0       -0.847602   -1.000093   -1.843308
     19          1           0        0.498652   -2.027294    0.487225
 ---------------------------------------------------------------------

 SCF Done:  E(RB3LYP) =  -423.205156787     A.U. after    1 cycles

 The electronic state is 1-A.
 Alpha  occ. eigenvalues --  -19.13977 -19.12908 -10.23609 -10.22972 -10.22687
 Alpha  occ. eigenvalues --  -10.18785 -10.18700 -10.18666 -10.18352  -1.04531
 Alpha  occ. eigenvalues --   -1.00822  -0.80335  -0.76672  -0.75853  -0.64572
 Alpha  occ. eigenvalues --   -0.61862  -0.58963  -0.53411  -0.51712  -0.49277
 Alpha  occ. eigenvalues --   -0.45798  -0.45653  -0.43520  -0.41784  -0.39240
 Alpha  occ. eigenvalues --   -0.37988  -0.37407  -0.35539  -0.34029  -0.31990
 Alpha  occ. eigenvalues --   -0.31794  -0.28437  -0.25367  -0.24388
 Alpha virt. eigenvalues --    0.00650   0.08257   0.10379   0.11267   0.12274
 Alpha virt. eigenvalues --    0.13664   0.14579   0.15444   0.16294   0.17631
 Alpha virt. eigenvalues --    0.18116   0.18516   0.20345   0.21295   0.24157

 Mulliken charges:
               1
     1  O   -0.443396
     2  C    0.116791
     3  C   -0.117597
     4  C   -0.055827
     5  C    0.027721
     6  C   -0.208871
     7  C   -0.247351
     8  C    0.047307
     9  O   -0.273813
    10  H    0.281206
    11  H    0.085913
    12  H    0.097317
    13  H    0.094038
    14  H    0.082410
    15  H    0.106952
    16  H    0.104134
    17  H    0.110308
    18  H    0.108662
    19  H    0.084098
 Sum of Mulliken charges =   0.00000

 Dipole moment (field-independent basis, Debye):
    X=             -1.9038    Y=              0.7069    Z=             -0.8862  Tot=              2.2157
 Quadrupole moment (field-independent basis, Debye-Ang):
   XX=            -56.6610   YY=            -50.3524   ZZ=            -53.0786
   XY=              0.6657   XZ=              0.0903   YZ=              1.2631

  Exact polarizability:  84.600  -3.496  75.091  -4.783   1.009  64.208
 Approx polarizability: 124.568 -11.365 107.893 -10.438   2.707 103.633

                      1                      2                      3
                      A                      A                      A
 Frequencies --    120.8455               193.0760               248.9034
 Red. masses --      3.3950                 2.3263                 3.1318
 Frc consts  --      0.0292                 0.0511                 0.1143
 IR Inten    --      3.1867                 0.8369                 1.8773

                      4                      5                      6
                      A                      A                      A
 Frequencies --    351.4422               370.9068               434.9739
 Red. masses --      2.3084                 3.0340                 1.2846
 Frc consts  --      0.1680                 0.2459                 0.1432
 IR Inten    --      4.4887                 3.2764                76.8002

                      7                      8                      9
                      A                      A                      A
 Frequencies --    482.5522               541.6501               583.8717
 Red. masses --      6.1584                 3.7208                 3.5964
 Frc consts  --      0.8449                 0.6432                 0.7224
 IR Inten    --     15.0912                 0.4992                 0.6312

                     10                     11                     12
                      A                      A                      A
 Frequencies --    687.9026               728.0293               777.6579
 Red. masses --      4.2852                 2.3741                 1.6631
 Frc consts  --      1.1948                 0.7414                 0.5926
 IR Inten    --      2.9122                12.6048                 7.3680

                     13                     14                     15
                      A                      A                      A
 Frequencies --    810.0667               845.4606               861.3654
 Red. masses --      2.7527                 2.4242                 3.1154
 Frc consts  --      1.0643                 1.0210                 1.3619
 IR Inten    --      5.3372                 2.5536                34.6397

                     16                     17                     18
                      A                      A                      A
 Frequencies --    908.0705               927.4523               966.3179
 Red. masses --      2.2554                 2.9911                 2.4046
 Frc consts  --      1.0958                 1.5159                 1.3229
 IR Inten    --     14.5325                10.6662                 3.9483

                     19                     20                     21
                      A                      A                      A
 Frequencies --    982.1891               997.0949              1011.0293
 Red. masses --      2.8462                 1.3155                 2.3909
 Frc consts  --      1.6177                 0.7705                 1.4400
 IR Inten    --      0.6067                 1.6122                24.5784

                     22                     23                     24
                      A                      A                      A
 Frequencies --   1029.4220              1051.9322              1078.3367
 Red. masses --      3.0097                 3.0509                 2.5484
 Frc consts  --      1.8792                 1.9891                 1.7459
 IR Inten    --     70.6104                19.2189                63.5571

                     25                     26                     27
                      A                      A                      A
 Frequencies --   1091.2917              1169.2736              1181.3168
 Red. masses --      2.1014                 1.1790                 1.1633
 Frc consts  --      1.4745                 0.9497                 0.9565
 IR Inten    --     20.3117                 9.1293                 2.4833

                     28                     29                     30
                      A                      A                      A
 Frequencies --   1221.1718              1250.0852              1263.6543
 Red. masses --      1.4053                 1.3001                 1.2287
 Frc consts  --      1.2348                 1.1970                 1.1560
 IR Inten    --      3.7398                 8.0657                 3.9380

                     31                     32                     33
                      A                      A                      A
 Frequencies --   1290.0674              1312.3108              1323.0799
 Red. masses --      1.2884                 1.4645                 1.5778
 Frc consts  --      1.2633                 1.4860                 1.6273
 IR Inten    --      5.5720                 0.9602                 2.4833

                     34                     35                     36
                      A                      A                      A
 Frequencies --   1334.1965              1342.0688              1388.8184
 Red. masses --      1.4426                 1.3723                 1.4944
 Frc consts  --      1.5130                 1.4563                 1.6982
 IR Inten    --      4.1771                 4.6355                 8.1113

                     37                     38                     39
                      A                      A                      A
 Frequencies --   1403.4110              1428.2874              1484.2155
 Red. masses --      1.4755                 1.2827                 1.0831
 Frc consts  --      1.7123                 1.5417                 1.4057
 IR Inten    --      2.7103                73.4786                 0.7648

                     40                     41                     42
                      A                      A                      A
 Frequencies --   1503.5661              1702.6362              3042.8932
 Red. masses --      1.1007                 6.6848                 1.0839
 Frc consts  --      1.4661                11.4178                 5.9131
 IR Inten    --      4.3426                 0.5897                22.4965

                     43                     44                     45
                      A                      A                      A
 Frequencies --   3062.4832              3070.7189              3088.0034
 Red. masses --      1.0604                 1.0632                 1.0850
 Frc consts  --      5.8597                 5.9065                 6.0961
 IR Inten    --     20.0898                30.5288                53.1694

                     46                     47                     48
                      A                      A                      A
 Frequencies --   3092.7851              3108.0377              3123.5327
 Red. masses --      1.0913                 1.1019                 1.1060
 Frc consts  --      6.1503                 6.2716                 6.3579
 IR Inten    --      9.8269                 6.0835                39.5284

                     49                     50                     51
                      A                      A                      A
 Frequencies --   3157.0179              3180.6304              3782.0577
 Red. masses --      1.0844                 1.0989                 1.0655
 Frc consts  --      6.3681                 6.5499                 8.9796
 IR Inten    --      9.0131                22.6103                19.6053

 - Thermochemistry -
 -------------------
 Temperature   298.150 Kelvin.  Pressure   1.00000 Atm.
 Atom     1 has atomic number  8 and mass  15.99491

 Molecular mass:   126.06808 amu.
 Principal axes and moments of inertia in atomic units:
                           1         2         3
     Eigenvalues --   626.671131084.440751261.85128
           X            0.99992   0.01155   0.00413
           Y           -0.01168   0.99940   0.03265
           Z           -0.00375  -0.03270   0.99946
 This molecule is an asymmetric top.
 Rotational symmetry number  1.
 Warning -- assumption of classical behavior for rotation
           may cause significant error
 Rotational temperatures (Kelvin)      0.13821     0.07987     0.06864
 Rotational constants (GHZ):           2.87989     1.66421     1.43023
 Zero-point vibrational energy     426996.0 (Joules/Mol)
                                  102.05450 (Kcal/Mol)
 Warning -- explicit consideration of   9 degrees of freedom as
           vibrations may cause significant error
 Vibrational temperatures:    173.87   277.79   358.12   505.65   533.65
          (Kelvin)            625.83   694.28   779.31   840.06   989.74
                             1047.47  1118.87  1165.50  1216.43  1239.31
                             1306.51  1334.40  1390.31  1413.15  1434.60
                             1454.64  1481.11  1513.49  1551.48  1570.12
                             1682.32  1699.65  1756.99  1798.59  1818.11
                             1856.12  1888.12  1903.61  1919.61  1930.94
                             1998.20  2019.19  2054.98  2135.45  2163.29
                             2449.71  4378.04  4406.22  4418.07  4442.94
                             4449.82  4471.77  4494.06  4542.24  4576.21
                             5441.53

 Zero-point correction=                           0.162634 (Hartree/Particle)
 Thermal correction to Energy=                    0.169843
 Thermal correction to Enthalpy=                  0.170787
 Thermal correction to Gibbs Free Energy=         0.131258
 Sum of electronic and zero-point Energies=           -423.042523
 Sum of electronic and thermal Energies=              -423.035314
 Sum of electronic and thermal Enthalpies=            -423.034369
 Sum of electronic and thermal Free Energies=         -423.073899

                     E (Thermal)             CV                S
                      KCal/Mol        Cal/Mol-Kelvin    Cal/Mol-Kelvin
 Total                  106.578             29.542             83.197
 Electronic               0.000              0.000              0.000
 Translational            0.889              2.981             40.409
 Rotational               0.889              2.981             28.241
 Vibrational            104.801             23.580             14.548
 Vibration     1          0.609              1.932              3.087
 Vibration     2          0.635              1.849              2.198
 Vibration     3          0.662              1.765              1.738
 Vibration     4          0.728              1.572              1.160
 Vibration     5          0.743              1.532              1.076
 Vibration     6          0.796              1.394              0.843
 Vibration     7          0.839              1.289              0.703
 Vibration     8          0.897              1.158              0.562
 Vibration     9          0.941              1.066              0.478

 Optimization completed.
    -- Stationary point found.
 Normal termination of Gaussian 09 at Tue Jan 28 02:45:25 2020.
