 Gaussian 09, Revision D.01,
 Gaussian 09:  ES64L-G09RevD.01 24-Apr-2013

 -----------------------------
 # b3lyp 6-31G(2df,p) opt Freq
 -----------------------------

 -----
 titel
 -----
 Symbolic Z-matrix:
 Charge =  0 Multiplicity = 1

 SCF Done:  E(RB3LYP) =  -423.181351611     A.U. after   13 cycles
 Optimization completed.
    -- Stationary point found.
 Normal termination of Gaussian 09 at Tue Jan 28 09:56:02 2020.

 ----------------------------------------------------------------------
 #N Geom=AllCheck Guess=TCheck SCRF=Check GenChk RB3LYP/6-31G(2df,p) Fr
 eq
 ----------------------------------------------------------------------

 Structure from the checkpoint file:  "/scratch/puck/g09_7a262c0e-c850-4710-b8c6-0910ab8616e0/Gau-18923.chk"
 -----
 titel
 -----
 Charge =  0 Multiplicity = 1

                         Standard orientation:
 ---------------------------------------------------------------------
 Center     Atomic      Atomic             Coordinates (Angstroms)
 Number     Number       Type             X           Y           Z
 ---------------------------------------------------------------------
      1          8           0       -2.628101   -0.543434    0.000548
      2          6           0       -1.834314    0.634601   -0.000714
      3          6           0       -0.388625    0.202949   -0.000153
      4          6           0        0.149273   -0.605522    1.205994
      5          6           0        1.607155   -0.573101    0.767691
      6          6           0        1.606936   -0.575508   -0.766138
      7          6           0        0.148963   -0.609168   -1.204009
      8          6           0        1.727651    0.721577   -0.001278
      9          8           0        0.465502    1.364714   -0.002035
     10          1           0       -3.552742   -0.281117    0.000643
     11          1           0       -2.024518    1.254053   -0.890161
     12          1           0       -2.024694    1.256062    0.887290
     13          1           0       -0.023266   -0.081510    2.151059
     14          1           0       -0.282651   -1.606959    1.258713
     15          1           0        2.418360   -0.986151    1.351641
     16          1           0        2.417990   -0.990409   -1.348987
     17          1           0       -0.023805   -0.088006   -2.150611
     18          1           0       -0.283017   -1.610736   -1.253603
     19          1           0        2.576912    1.389574   -0.002446
 ---------------------------------------------------------------------

 SCF Done:  E(RB3LYP) =  -423.181351611     A.U. after    1 cycles

 The electronic state is 1-A.
 Alpha  occ. eigenvalues --  -19.13925 -19.13557 -10.23019 -10.22731 -10.22408
 Alpha  occ. eigenvalues --  -10.18326 -10.18305 -10.17562 -10.17561  -1.04969
 Alpha  occ. eigenvalues --   -1.01874  -0.85013  -0.77172  -0.71110  -0.67705
 Alpha  occ. eigenvalues --   -0.58096  -0.55081  -0.54622  -0.51369  -0.50888
 Alpha  occ. eigenvalues --   -0.46233  -0.45161  -0.42811  -0.41898  -0.39247
 Alpha  occ. eigenvalues --   -0.37594  -0.36382  -0.35032  -0.33545  -0.31763
 Alpha  occ. eigenvalues --   -0.30085  -0.26968  -0.26891  -0.22906
 Alpha virt. eigenvalues --    0.06890   0.10120   0.12330   0.13561   0.13999
 Alpha virt. eigenvalues --    0.15009   0.15491   0.16232   0.16873   0.17051
 Alpha virt. eigenvalues --    0.18162   0.18998   0.21744   0.21961   0.23395

 Mulliken charges:
               1
     1  O   -0.426586
     2  C   -0.192069
     3  C    0.384813
     4  C   -0.247397
     5  C   -0.116919
     6  C   -0.116925
     7  C   -0.247378
     8  C    0.090231
     9  O   -0.305555
    10  H    0.292758
    11  H    0.096784
    12  H    0.096774
    13  H    0.097252
    14  H    0.113382
    15  H    0.085607
    16  H    0.085608
    17  H    0.097261
    18  H    0.113387
    19  H    0.098972
 Sum of Mulliken charges =   0.00000

 Dipole moment (field-independent basis, Debye):
    X=             -0.5558    Y=             -0.2025    Z=              0.0013  Tot=              0.5915
 Quadrupole moment (field-independent basis, Debye-Ang):
   XX=            -42.9953   YY=            -56.1319   ZZ=            -52.6050
   XY=             -2.8514   XZ=              0.0002   YZ=              0.0047

  Exact polarizability:  83.342  -0.317  66.144  -0.001   0.006  69.502
 Approx polarizability: 109.387   1.031 107.154  -0.004  -0.003 104.184

                      1                      2                      3
                      A                      A                      A
 Frequencies --     84.6399               177.7956               228.1477
 Red. masses --      3.7534                 4.3883                 1.1127
 Frc consts  --      0.0158                 0.0817                 0.0341
 IR Inten    --      2.7311                 5.9327               100.4311

                      4                      5                      6
                      A                      A                      A
 Frequencies --    299.8664               377.2039               444.5727
 Red. masses --      2.1259                 2.7424                 1.8689
 Frc consts  --      0.1126                 0.2299                 0.2176
 IR Inten    --      4.0659                 1.3855                 0.0002

                      7                      8                      9
                      A                      A                      A
 Frequencies --    468.3800               557.5641               642.5848
 Red. masses --      2.8205                 4.6530                 3.4295
 Frc consts  --      0.3646                 0.8523                 0.8343
 IR Inten    --      0.5007                 8.8257                 3.6790

                     10                     11                     12
                      A                      A                      A
 Frequencies --    685.8854               710.4098               797.1198
 Red. masses --      4.8493                 5.1421                 2.3225
 Frc consts  --      1.3441                 1.5290                 0.8695
 IR Inten    --      4.9201                 1.1219                 9.4122

                     13                     14                     15
                      A                      A                      A
 Frequencies --    806.6176               810.9779               877.8728
 Red. masses --      1.5857                 2.1890                 2.1429
 Frc consts  --      0.6079                 0.8482                 0.9730
 IR Inten    --     17.1346                 6.1407                 5.2672

                     16                     17                     18
                      A                      A                      A
 Frequencies --    921.2560               959.0739               972.4048
 Red. masses --      2.7088                 1.8183                 2.4601
 Frc consts  --      1.3545                 0.9854                 1.3706
 IR Inten    --     36.2673                 0.1629                 3.1864

                     19                     20                     21
                      A                      A                      A
 Frequencies --    981.3089               988.4693              1012.8938
 Red. masses --      1.3468                 3.4810                 1.9724
 Frc consts  --      0.7641                 2.0039                 1.1923
 IR Inten    --      0.0952                38.5936                 5.5020

                     22                     23                     24
                      A                      A                      A
 Frequencies --   1045.2103              1048.3908              1078.3459
 Red. masses --      1.4793                 1.2033                 2.8138
 Frc consts  --      0.9521                 0.7792                 1.9278
 IR Inten    --     20.6203                 0.0563                 8.6887

                     25                     26                     27
                      A                      A                      A
 Frequencies --   1088.6323              1103.0910              1128.6051
 Red. masses --      3.2357                 2.3756                 1.5680
 Frc consts  --      2.2593                 1.7031                 1.1768
 IR Inten    --     84.5277                 4.4392                 0.2940

                     28                     29                     30
                      A                      A                      A
 Frequencies --   1167.8954              1178.3594              1192.8629
 Red. masses --      1.7082                 1.5009                 1.3864
 Frc consts  --      1.3728                 1.2279                 1.1623
 IR Inten    --     13.5297                 0.5050                 8.2801

                     31                     32                     33
                      A                      A                      A
 Frequencies --   1248.9554              1249.1610              1259.4272
 Red. masses --      1.1999                 1.6961                 1.3140
 Frc consts  --      1.1028                 1.5593                 1.2280
 IR Inten    --     40.9808                11.9495                 0.3800

                     34                     35                     36
                      A                      A                      A
 Frequencies --   1303.0172              1309.2741              1360.4874
 Red. masses --      1.8411                 1.6942                 2.2084
 Frc consts  --      1.8418                 1.7111                 2.4083
 IR Inten    --      5.5361                 0.1711                19.9116

                     37                     38                     39
                      A                      A                      A
 Frequencies --   1382.6797              1474.7493              1477.0734
 Red. masses --      2.4902                 1.7415                 1.1084
 Frc consts  --      2.8049                 2.2315                 1.4248
 IR Inten    --      6.2855                 3.1966                 2.0940

                     40                     41                     42
                      A                      A                      A
 Frequencies --   1500.1430              1522.3133              2981.1863
 Red. masses --      1.1539                 1.0833                 1.0547
 Frc consts  --      1.5299                 1.4792                 5.5229
 IR Inten    --      1.2677                 2.7158                49.5821

                     43                     44                     45
                      A                      A                      A
 Frequencies --   3015.0131              3057.9601              3062.0405
 Red. masses --      1.1071                 1.0595                 1.0618
 Frc consts  --      5.9297                 5.8375                 5.8659
 IR Inten    --     42.9086                46.3883                11.2625

                     46                     47                     48
                      A                      A                      A
 Frequencies --   3117.7336              3123.0002              3203.5909
 Red. masses --      1.1046                 1.1036                 1.0909
 Frc consts  --      6.3262                 6.3417                 6.5962
 IR Inten    --      5.1385                26.0136                 8.3634

                     49                     50                     51
                      A                      A                      A
 Frequencies --   3209.0923              3226.2613              3838.9582
 Red. masses --      1.0919                 1.0974                 1.0665
 Frc consts  --      6.6252                 6.7301                 9.2608
 IR Inten    --     10.4299                18.9969                28.7709

 - Thermochemistry -
 -------------------
 Temperature   298.150 Kelvin.  Pressure   1.00000 Atm.
 Atom     1 has atomic number  8 and mass  15.99491

 Molecular mass:   126.06808 amu.
 Principal axes and moments of inertia in atomic units:
                           1         2         3
     Eigenvalues --   506.686251288.814551318.85602
           X            0.99981  -0.01969   0.00000
           Y            0.01969   0.99981   0.00095
           Z           -0.00002  -0.00095   1.00000
 This molecule is an asymmetric top.
 Rotational symmetry number  1.
 Warning -- assumption of classical behavior for rotation
           may cause significant error
 Rotational temperatures (Kelvin)      0.17094     0.06720     0.06567
 Rotational constants (GHZ):           3.56185     1.40031     1.36841
 Zero-point vibrational energy     423230.1 (Joules/Mol)
                                  101.15443 (Kcal/Mol)
 Warning -- explicit consideration of   8 degrees of freedom as
           vibrations may cause significant error
 Vibrational temperatures:    121.78   255.81   328.25   431.44   542.71
          (Kelvin)            639.64   673.89   802.21   924.54   986.83
                             1022.12  1146.88  1160.54  1166.81  1263.06
                             1325.48  1379.89  1399.07  1411.88  1422.19
                             1457.33  1503.82  1508.40  1551.50  1566.30
                             1587.10  1623.81  1680.34  1695.39  1716.26
                             1796.97  1797.26  1812.03  1874.75  1883.75
                             1957.44  1989.37  2121.83  2125.18  2158.37
                             2190.27  4289.26  4337.93  4399.72  4405.59
                             4485.72  4493.30  4609.25  4617.16  4641.86
                             5523.40

 Zero-point correction=                           0.161200 (Hartree/Particle)
 Thermal correction to Energy=                    0.168583
 Thermal correction to Enthalpy=                  0.169527
 Thermal correction to Gibbs Free Energy=         0.129424
 Sum of electronic and zero-point Energies=           -423.020152
 Sum of electronic and thermal Energies=              -423.012769
 Sum of electronic and thermal Enthalpies=            -423.011824
 Sum of electronic and thermal Free Energies=         -423.051928

                     E (Thermal)             CV                S
                      KCal/Mol        Cal/Mol-Kelvin    Cal/Mol-Kelvin
 Total                  105.787             29.909             84.405
 Electronic               0.000              0.000              0.000
 Translational            0.889              2.981             40.409
 Rotational               0.889              2.981             28.245
 Vibrational            104.010             23.947             15.752
 Vibration     1          0.601              1.960              3.780
 Vibration     2          0.628              1.870              2.351
 Vibration     3          0.651              1.798              1.893
 Vibration     4          0.692              1.674              1.418
 Vibration     5          0.748              1.519              1.050
 Vibration     6          0.804              1.373              0.812
 Vibration     7          0.826              1.320              0.742
 Vibration     8          0.913              1.123              0.529

 Optimization completed.
    -- Stationary point found.
 Normal termination of Gaussian 09 at Tue Jan 28 10:40:40 2020.
