 Gaussian 09, Revision D.01,
 Gaussian 09:  ES64L-G09RevD.01 24-Apr-2013

 -----------------------------
 # b3lyp 6-31G(2df,p) opt Freq
 -----------------------------

 -----
 titel
 -----
 Symbolic Z-matrix:
 Charge =  0 Multiplicity = 1

 SCF Done:  E(RB3LYP) =  -423.206382624     A.U. after   13 cycles
 Optimization completed.
    -- Stationary point found.
 Normal termination of Gaussian 09 at Mon Jan 27 10:17:42 2020.

 ----------------------------------------------------------------------
 #N Geom=AllCheck Guess=TCheck SCRF=Check GenChk RB3LYP/6-31G(2df,p) Fr
 eq
 ----------------------------------------------------------------------

 Structure from the checkpoint file:  "/scratch/puck/g09_8c14af1e-a8cd-45cd-adf2-775c30b65a35/Gau-35694.chk"
 -----
 titel
 -----
 Charge =  0 Multiplicity = 1

                         Standard orientation:
 ---------------------------------------------------------------------
 Center     Atomic      Atomic             Coordinates (Angstroms)
 Number     Number       Type             X           Y           Z
 ---------------------------------------------------------------------
      1          6           0       -3.284116   -0.397393    0.673542
      2          6           0       -2.336015   -0.666725   -0.507916
      3          6           0       -0.963031   -0.124485   -0.301928
      4          6           0        0.263836   -0.710952   -0.196890
      5          6           0        1.201021    0.359544    0.006584
      6          8           0        2.546156    0.304395    0.167280
      7          6           0        3.124480   -0.986516    0.144618
      8          6           0        0.476807    1.513437    0.011460
      9          8           0       -0.846639    1.222272   -0.177087
     10          1           0       -4.283362   -0.791686    0.465486
     11          1           0       -2.912462   -0.868940    1.588342
     12          1           0       -3.372167    0.676179    0.860433
     13          1           0       -2.249094   -1.743618   -0.684295
     14          1           0       -2.766077   -0.233659   -1.420702
     15          1           0        0.468364   -1.767281   -0.259137
     16          1           0        2.957268   -1.488059   -0.817909
     17          1           0        4.196711   -0.847151    0.293114
     18          1           0        2.729404   -1.620861    0.949180
     19          1           0        0.737393    2.550277    0.127129
 ---------------------------------------------------------------------

 SCF Done:  E(RB3LYP) =  -423.206382625     A.U. after    1 cycles

 The electronic state is 1-A.
 Alpha  occ. eigenvalues --  -19.19154 -19.16349 -10.23464 -10.22658 -10.22606
 Alpha  occ. eigenvalues --  -10.20650 -10.19278 -10.17644 -10.17207  -1.09551
 Alpha  occ. eigenvalues --   -1.05687  -0.79381  -0.78340  -0.72430  -0.68990
 Alpha  occ. eigenvalues --   -0.62849  -0.57970  -0.55375  -0.51921  -0.47087
 Alpha  occ. eigenvalues --   -0.46654  -0.45244  -0.44364  -0.42685  -0.42374
 Alpha  occ. eigenvalues --   -0.39972  -0.38007  -0.36250  -0.35542  -0.34714
 Alpha  occ. eigenvalues --   -0.33378  -0.32146  -0.24492  -0.19447
 Alpha virt. eigenvalues --    0.02439   0.09359   0.10044   0.10502   0.11925
 Alpha virt. eigenvalues --    0.14569   0.14889   0.15380   0.15746   0.16610
 Alpha virt. eigenvalues --    0.17098   0.17491   0.19008   0.20680   0.22457

 Mulliken charges:
               1
     1  C   -0.370741
     2  C   -0.290351
     3  C    0.402800
     4  C   -0.441515
     5  C    0.328139
     6  O   -0.264282
     7  C   -0.243476
     8  C   -0.144438
     9  O   -0.185210
    10  H    0.111877
    11  H    0.120743
    12  H    0.133503
    13  H    0.111004
    14  H    0.117193
    15  H    0.108661
    16  H    0.120641
    17  H    0.133510
    18  H    0.120602
    19  H    0.131340
 Sum of Mulliken charges =   0.00000

 Dipole moment (field-independent basis, Debye):
    X=              0.0492    Y=             -1.8215    Z=             -0.0911  Tot=              1.8245
 Quadrupole moment (field-independent basis, Debye-Ang):
   XX=            -49.0356   YY=            -50.2087   ZZ=            -54.7542
   XY=             -2.1644   XZ=              0.6372   YZ=              0.3694

  Exact polarizability: 106.944  -0.528  80.072   2.679   1.827  53.674
 Approx polarizability: 140.530  -3.301 130.712   6.659   3.378  80.225

                      1                      2                      3
                      A                      A                      A
 Frequencies --     47.1007                69.9239               130.8484
 Red. masses --      2.4880                 3.5945                 3.0466
 Frc consts  --      0.0033                 0.0104                 0.0307
 IR Inten    --      0.9242                 1.9103                 0.1101

                      4                      5                      6
                      A                      A                      A
 Frequencies --    181.1519               206.5581               233.9074
 Red. masses --      1.7630                 1.1670                 1.5031
 Frc consts  --      0.0341                 0.0293                 0.0485
 IR Inten    --      0.7369                 0.0868                 0.1749

                      7                      8                      9
                      A                      A                      A
 Frequencies --    295.0829               358.7911               409.9828
 Red. masses --      2.7758                 2.8935                 5.1529
 Frc consts  --      0.1424                 0.2195                 0.5103
 IR Inten    --      0.1024                 2.8496                 3.8546

                     10                     11                     12
                      A                      A                      A
 Frequencies --    495.1199               581.1950               630.9917
 Red. masses --      4.0569                 4.1512                 1.6585
 Frc consts  --      0.5860                 0.8262                 0.3891
 IR Inten    --      1.3825                 4.9512                13.9978

                     13                     14                     15
                      A                      A                      A
 Frequencies --    685.8063               699.3553               719.3739
 Red. masses --      3.4907                 2.3771                 3.6154
 Frc consts  --      0.9673                 0.6850                 1.1023
 IR Inten    --      6.7167                 4.2860                 2.5312

                     16                     17                     18
                      A                      A                      A
 Frequencies --    779.6433               791.2167               937.8165
 Red. masses --      1.2800                 1.3628                 3.6044
 Frc consts  --      0.4584                 0.5026                 1.8678
 IR Inten    --     16.2002                17.1357                22.7576

                     19                     20                     21
                      A                      A                      A
 Frequencies --    980.5503               992.5407              1062.4160
 Red. masses --      2.0761                 5.3653                 1.9089
 Frc consts  --      1.1761                 3.1142                 1.2695
 IR Inten    --      8.4573                 9.0860                 5.1872

                     22                     23                     24
                      A                      A                      A
 Frequencies --   1083.6729              1097.8816              1160.2301
 Red. masses --      2.0108                 2.8405                 2.3099
 Frc consts  --      1.3913                 2.0173                 1.8320
 IR Inten    --      9.1993                38.1938                 4.0208

                     25                     26                     27
                      A                      A                      A
 Frequencies --   1175.1685              1179.5304              1215.2956
 Red. masses --      1.8783                 1.2697                 1.7773
 Frc consts  --      1.5283                 1.0408                 1.5466
 IR Inten    --     54.2199                 0.9685                12.3772

                     28                     29                     30
                      A                      A                      A
 Frequencies --   1240.3782              1287.7414              1339.8179
 Red. masses --      1.9665                 1.2726                 2.3198
 Frc consts  --      1.7826                 1.2434                 2.4535
 IR Inten    --      6.7042                16.3966               100.4353

                     31                     32                     33
                      A                      A                      A
 Frequencies --   1356.7460              1404.8740              1420.8113
 Red. masses --      1.7171                 1.3444                 3.1279
 Frc consts  --      1.8623                 1.5634                 3.7203
 IR Inten    --     53.5088                13.3512                42.0933

                     34                     35                     36
                      A                      A                      A
 Frequencies --   1474.6243              1479.6063              1489.3328
 Red. masses --      1.0793                 1.2641                 1.0486
 Frc consts  --      1.3828                 1.6305                 1.3705
 IR Inten    --      3.3293                 0.2477                 4.8744

                     37                     38                     39
                      A                      A                      A
 Frequencies --   1496.5504              1506.7050              1507.6775
 Red. masses --      1.0413                 1.0619                 1.0518
 Frc consts  --      1.3741                 1.4203                 1.4086
 IR Inten    --      5.9502                 3.2643                22.2527

                     40                     41                     42
                      A                      A                      A
 Frequencies --   1583.2911              1668.2282              3000.3014
 Red. masses --      5.6280                 6.7384                 1.0348
 Frc consts  --      8.3125                11.0488                 5.4884
 IR Inten    --      9.3924               132.7990                52.8137

                     43                     44                     45
                      A                      A                      A
 Frequencies --   3021.6518              3041.5139              3057.2026
 Red. masses --      1.0664                 1.0346                 1.1047
 Frc consts  --      5.7368                 5.6392                 6.0835
 IR Inten    --     26.1534                30.1991                42.9555

                     46                     47                     48
                      A                      A                      A
 Frequencies --   3078.3536              3112.0737              3123.5758
 Red. masses --      1.0947                 1.1024                 1.1019
 Frc consts  --      6.1120                 6.2904                 6.3345
 IR Inten    --      8.6836                35.6295                24.9457

                     49                     50                     51
                      A                      A                      A
 Frequencies --   3131.7009              3264.5356              3295.5817
 Red. masses --      1.0987                 1.0964                 1.0981
 Frc consts  --      6.3487                 6.8841                 7.0267
 IR Inten    --     25.4988                 0.9286                 0.7774

 - Thermochemistry -
 -------------------
 Temperature   298.150 Kelvin.  Pressure   1.00000 Atm.
 Atom     1 has atomic number  6 and mass  12.00000

 Molecular mass:   126.06808 amu.
 Principal axes and moments of inertia in atomic units:
                           1         2         3
     Eigenvalues --   423.470082015.093322302.57547
           X            0.99997  -0.00642  -0.00515
           Y            0.00646   0.99996   0.00655
           Z            0.00511  -0.00658   0.99997
 This molecule is an asymmetric top.
 Rotational symmetry number  1.
 Rotational temperatures (Kelvin)      0.20453     0.04298     0.03762
 Rotational constants (GHZ):           4.26179     0.89561     0.78379
 Zero-point vibrational energy     416204.9 (Joules/Mol)
                                   99.47536 (Kcal/Mol)
 Warning -- explicit consideration of  11 degrees of freedom as
           vibrations may cause significant error
 Vibrational temperatures:     67.77   100.60   188.26   260.64   297.19
          (Kelvin)            336.54   424.56   516.22   589.87   712.37
                              836.21   907.86   986.72  1006.22  1035.02
                             1121.73  1138.38  1349.31  1410.79  1428.04
                             1528.58  1559.16  1579.60  1669.31  1690.80
                             1697.08  1748.54  1784.63  1852.77  1927.70
                             1952.05  2021.30  2044.23  2121.65  2128.82
                             2142.82  2153.20  2167.81  2169.21  2278.00
                             2400.21  4316.76  4347.48  4376.05  4398.63
                             4429.06  4477.57  4494.12  4505.81  4696.93
                             4741.60

 Zero-point correction=                           0.158524 (Hartree/Particle)
 Thermal correction to Energy=                    0.167813
 Thermal correction to Enthalpy=                  0.168758
 Thermal correction to Gibbs Free Energy=         0.123587
 Sum of electronic and zero-point Energies=           -423.047859
 Sum of electronic and thermal Energies=              -423.038569
 Sum of electronic and thermal Enthalpies=            -423.037625
 Sum of electronic and thermal Free Energies=         -423.082796

                     E (Thermal)             CV                S
                      KCal/Mol        Cal/Mol-Kelvin    Cal/Mol-Kelvin
 Total                  105.304             33.476             95.070
 Electronic               0.000              0.000              0.000
 Translational            0.889              2.981             40.409
 Rotational               0.889              2.981             29.065
 Vibrational            103.527             27.514             25.596
 Vibration     1          0.595              1.979              4.936
 Vibration     2          0.598              1.968              4.156
 Vibration     3          0.612              1.922              2.934
 Vibration     4          0.630              1.865              2.317
 Vibration     5          0.641              1.831              2.074
 Vibration     6          0.654              1.789              1.849
 Vibration     7          0.689              1.683              1.445
 Vibration     8          0.734              1.557              1.127
 Vibration     9          0.774              1.449              0.927
 Vibration    10          0.851              1.261              0.670
 Vibration    11          0.938              1.072              0.483

 Optimization completed.
    -- Stationary point found.
 Normal termination of Gaussian 09 at Mon Jan 27 10:52:17 2020.
