 Gaussian 09, Revision D.01,
 Gaussian 09:  ES64L-G09RevD.01 24-Apr-2013

 -----------------------------
 # b3lyp 6-31G(2df,p) opt Freq
 -----------------------------

 -----
 titel
 -----
 Symbolic Z-matrix:
 Charge =  0 Multiplicity = 1

 SCF Done:  E(RB3LYP) =  -423.109951908     A.U. after   12 cycles
 Optimization completed.
    -- Stationary point found.
 Normal termination of Gaussian 09 at Mon Jan 27 22:13:32 2020.

 ----------------------------------------------------------------------
 #N Geom=AllCheck Guess=TCheck SCRF=Check GenChk RB3LYP/6-31G(2df,p) Fr
 eq
 ----------------------------------------------------------------------

 Structure from the checkpoint file:  "/scratch/puck/g09_4f97e01e-95fd-4bc7-a886-92be2024a71b/Gau-29044.chk"
 -----
 titel
 -----
 Charge =  0 Multiplicity = 1

                         Standard orientation:
 ---------------------------------------------------------------------
 Center     Atomic      Atomic             Coordinates (Angstroms)
 Number     Number       Type             X           Y           Z
 ---------------------------------------------------------------------
      1          8           0       -2.884916   -0.666694   -0.554467
      2          6           0       -1.531541   -0.330846   -0.429365
      3          6           0       -1.190102    0.957014    0.260712
      4          6           0       -0.915213   -0.411751    0.939795
      5          6           0        0.598483   -0.111738    0.936601
      6          6           0        1.458711   -0.554804   -0.294063
      7          8           0        2.805492   -0.879063   -0.033083
      8          6           0        1.196631    0.841518   -0.959138
      9          6           0        0.322948    1.265006    0.260061
     10          1           0       -3.349272   -0.373742    0.236997
     11          1           0       -1.011063   -0.663242   -1.321456
     12          1           0       -1.970291    1.685258    0.457401
     13          1           0       -1.449918   -0.912979    1.740100
     14          1           0        1.091284   -0.187920    1.907574
     15          1           0        1.060342   -1.412296   -0.841711
     16          1           0        3.201789   -0.149560    0.455643
     17          1           0        2.123913    1.417550   -1.039524
     18          1           0        0.714361    0.837463   -1.940086
     19          1           0        0.584737    2.199133    0.757846
 ---------------------------------------------------------------------

 SCF Done:  E(RB3LYP) =  -423.109951908     A.U. after    1 cycles

 The electronic state is 1-A.
 Alpha  occ. eigenvalues --  -19.14506 -19.13679 -10.23868 -10.22926 -10.19313
 Alpha  occ. eigenvalues --  -10.19240 -10.19196 -10.18744 -10.18028  -1.03148
 Alpha  occ. eigenvalues --   -1.01942  -0.89693  -0.78634  -0.67561  -0.66831
 Alpha  occ. eigenvalues --   -0.60111  -0.59856  -0.53303  -0.52329  -0.49752
 Alpha  occ. eigenvalues --   -0.47293  -0.45442  -0.42484  -0.41368  -0.38709
 Alpha  occ. eigenvalues --   -0.38440  -0.36859  -0.35848  -0.33193  -0.32529
 Alpha  occ. eigenvalues --   -0.29468  -0.26131  -0.24045  -0.23555
 Alpha virt. eigenvalues --    0.06514   0.07480   0.08035   0.08452   0.11095
 Alpha virt. eigenvalues --    0.12608   0.14777   0.16046   0.16421   0.17564
 Alpha virt. eigenvalues --    0.17670   0.18433   0.19660   0.21488   0.23171

 Mulliken charges:
               1
     1  O   -0.447399
     2  C    0.150698
     3  C   -0.130851
     4  C   -0.134660
     5  C   -0.080900
     6  C    0.149954
     7  O   -0.441658
     8  C   -0.297942
     9  C   -0.032461
    10  H    0.282983
    11  H    0.105681
    12  H    0.082362
    13  H    0.083542
    14  H    0.067745
    15  H    0.093031
    16  H    0.275578
    17  H    0.095570
    18  H    0.107887
    19  H    0.070839
 Sum of Mulliken charges =   0.00000

 Dipole moment (field-independent basis, Debye):
    X=             -0.1516    Y=              1.9957    Z=              1.7550  Tot=              2.6620
 Quadrupole moment (field-independent basis, Debye-Ang):
   XX=            -54.0498   YY=            -55.2330   ZZ=            -52.3978
   XY=              2.7525   XZ=             -2.4815   YZ=             -0.2099

  Exact polarizability:  87.371   1.854  67.953  -0.762  -0.537  67.226
 Approx polarizability: 116.205   1.617 106.722   1.782  -0.172 104.229

                      1                      2                      3
                      A                      A                      A
 Frequencies --    115.0847               182.1076               193.3157
 Red. masses --      4.2812                 3.7191                 1.0484
 Frc consts  --      0.0334                 0.0727                 0.0231
 IR Inten    --      1.0654                 1.8489                77.6258

                      4                      5                      6
                      A                      A                      A
 Frequencies --    278.4877               283.5777               342.1238
 Red. masses --      2.7651                 1.5522                 2.2627
 Frc consts  --      0.1263                 0.0735                 0.1560
 IR Inten    --      3.9065                42.0138                49.9943

                      7                      8                      9
                      A                      A                      A
 Frequencies --    349.6423               368.0759               471.0553
 Red. masses --      3.5483                 4.5149                 1.9138
 Frc consts  --      0.2556                 0.3604                 0.2502
 IR Inten    --      3.4379                12.6307                 2.4176

                     10                     11                     12
                      A                      A                      A
 Frequencies --    530.7606               689.5439               734.4525
 Red. masses --      4.2207                 3.2058                 3.7739
 Frc consts  --      0.7005                 0.8981                 1.1994
 IR Inten    --      2.6431                 4.1147                 6.3599

                     13                     14                     15
                      A                      A                      A
 Frequencies --    781.1899               814.7497               848.5073
 Red. masses --      1.9448                 2.3781                 2.3136
 Frc consts  --      0.6992                 0.9301                 0.9814
 IR Inten    --      2.5306                 2.4181                14.1986

                     16                     17                     18
                      A                      A                      A
 Frequencies --    869.8526               896.2009               910.4364
 Red. masses --      1.4525                 2.5201                 2.5771
 Frc consts  --      0.6475                 1.1925                 1.2586
 IR Inten    --      7.5496                29.2557                14.8328

                     19                     20                     21
                      A                      A                      A
 Frequencies --    964.3238               969.3336               995.2611
 Red. masses --      2.1272                 2.2206                 1.4762
 Frc consts  --      1.1655                 1.2293                 0.8615
 IR Inten    --      2.5462                 0.3915                 5.0277

                     22                     23                     24
                      A                      A                      A
 Frequencies --   1031.8554              1046.2847              1094.9607
 Red. masses --      2.3134                 1.9782                 1.8884
 Frc consts  --      1.4513                 1.2759                 1.3340
 IR Inten    --      5.6666                 3.4828                40.8328

                     25                     26                     27
                      A                      A                      A
 Frequencies --   1099.6511              1105.2106              1119.0576
 Red. masses --      1.5964                 1.6195                 1.9039
 Frc consts  --      1.1374                 1.1655                 1.4048
 IR Inten    --      7.7986                 6.3913                 8.0703

                     28                     29                     30
                      A                      A                      A
 Frequencies --   1123.5106              1171.6078              1196.6503
 Red. masses --      1.8675                 2.1489                 1.4595
 Frc consts  --      1.3889                 1.7379                 1.2313
 IR Inten    --    172.5968                39.0177                10.4532

                     31                     32                     33
                      A                      A                      A
 Frequencies --   1224.8570              1237.3466              1255.5293
 Red. masses --      1.3717                 1.6568                 1.4396
 Frc consts  --      1.2125                 1.4945                 1.3371
 IR Inten    --      3.0321                 8.7021                 3.3678

                     34                     35                     36
                      A                      A                      A
 Frequencies --   1271.3422              1283.9595              1310.2117
 Red. masses --      1.6277                 1.4894                 1.5975
 Frc consts  --      1.5501                 1.4467                 1.6157
 IR Inten    --      4.5757                10.3960                 1.3491

                     37                     38                     39
                      A                      A                      A
 Frequencies --   1334.0781              1350.3605              1437.0527
 Red. masses --      1.6374                 1.6501                 1.2415
 Frc consts  --      1.7170                 1.7728                 1.5106
 IR Inten    --      4.6198                 8.9934                71.1833

                     40                     41                     42
                      A                      A                      A
 Frequencies --   1460.4320              1471.5698              3050.0758
 Red. masses --      1.5960                 1.1102                 1.0602
 Frc consts  --      2.0056                 1.4164                 5.8111
 IR Inten    --     54.7116                 8.3151                28.6089

                     43                     44                     45
                      A                      A                      A
 Frequencies --   3080.1008              3090.3999              3100.5007
 Red. masses --      1.0886                 1.0876                 1.0932
 Frc consts  --      6.0849                 6.1197                 6.1919
 IR Inten    --     22.8160                23.6087                10.0502

                     46                     47                     48
                      A                      A                      A
 Frequencies --   3108.9460              3153.7908              3162.8473
 Red. masses --      1.1008                 1.0880                 1.0912
 Frc consts  --      6.2686                 6.3760                 6.4313
 IR Inten    --     49.3179                20.6130                12.1758

                     49                     50                     51
                      A                      A                      A
 Frequencies --   3164.6089              3800.6687              3809.3689
 Red. masses --      1.0938                 1.0659                 1.0657
 Frc consts  --      6.4540                 9.0714                 9.1118
 IR Inten    --     28.6300                12.4835                19.0783

 - Thermochemistry -
 -------------------
 Temperature   298.150 Kelvin.  Pressure   1.00000 Atm.
 Atom     1 has atomic number  8 and mass  15.99491

 Molecular mass:   126.06808 amu.
 Principal axes and moments of inertia in atomic units:
                           1         2         3
     Eigenvalues --   486.802811628.441851707.78126
           X            0.99992   0.00790  -0.01003
           Y           -0.00822   0.99945  -0.03197
           Z            0.00977   0.03205   0.99944
 This molecule is an asymmetric top.
 Rotational symmetry number  1.
 Warning -- assumption of classical behavior for rotation
           may cause significant error
 Rotational temperatures (Kelvin)      0.17792     0.05319     0.05072
 Rotational constants (GHZ):           3.70734     1.10826     1.05678
 Zero-point vibrational energy     417107.4 (Joules/Mol)
                                   99.69107 (Kcal/Mol)
 Warning -- explicit consideration of  10 degrees of freedom as
           vibrations may cause significant error
 Vibrational temperatures:    165.58   262.01   278.14   400.68   408.00
          (Kelvin)            492.24   503.06   529.58   677.74   763.65
                              992.10  1056.71  1123.96  1172.24  1220.81
                             1251.52  1289.43  1309.91  1387.45  1394.65
                             1431.96  1484.61  1505.37  1575.40  1582.15
                             1590.15  1610.07  1616.48  1685.68  1721.71
                             1762.29  1780.26  1806.42  1829.18  1847.33
                             1885.10  1919.44  1942.87  2067.60  2101.23
                             2117.26  4388.37  4431.57  4446.39  4460.92
                             4473.07  4537.60  4550.63  4553.16  5468.31
                             5480.83

 Zero-point correction=                           0.158868 (Hartree/Particle)
 Thermal correction to Energy=                    0.167042
 Thermal correction to Enthalpy=                  0.167986
 Thermal correction to Gibbs Free Energy=         0.126474
 Sum of electronic and zero-point Energies=           -422.951084
 Sum of electronic and thermal Energies=              -422.942910
 Sum of electronic and thermal Enthalpies=            -422.941966
 Sum of electronic and thermal Free Energies=         -422.983478

                     E (Thermal)             CV                S
                      KCal/Mol        Cal/Mol-Kelvin    Cal/Mol-Kelvin
 Total                  104.820             32.467             87.369
 Electronic               0.000              0.000              0.000
 Translational            0.889              2.981             40.409
 Rotational               0.889              2.981             28.695
 Vibrational            103.043             26.505             18.265
 Vibration     1          0.608              1.937              3.181
 Vibration     2          0.630              1.864              2.307
 Vibration     3          0.635              1.849              2.196
 Vibration     4          0.679              1.713              1.543
 Vibration     5          0.682              1.704              1.512
 Vibration     6          0.721              1.591              1.202
 Vibration     7          0.727              1.576              1.168
 Vibration     8          0.741              1.538              1.088
 Vibration     9          0.828              1.314              0.735
 Vibration    10          0.886              1.182              0.586

 Normal termination of Gaussian 09 at Tue Jan 28 00:29:03 2020.
