 Gaussian 09, Revision D.01,
 Gaussian 09:  ES64L-G09RevD.01 24-Apr-2013

 -----------------------------
 # b3lyp 6-31G(2df,p) opt Freq
 -----------------------------

 -----
 titel
 -----
 Symbolic Z-matrix:
 Charge =  0 Multiplicity = 1

 SCF Done:  E(RB3LYP) =  -423.163542433     A.U. after   14 cycles
 Optimization completed.
    -- Stationary point found.
 Normal termination of Gaussian 09 at Tue Jan 28 08:22:16 2020.

 ----------------------------------------------------------------------
 #N Geom=AllCheck Guess=TCheck SCRF=Check GenChk RB3LYP/6-31G(2df,p) Fr
 eq
 ----------------------------------------------------------------------

 Structure from the checkpoint file:  "/scratch/puck/g09_00945c2c-aa00-40a2-af4b-a905520f12f2/Gau-60303.chk"
 -----
 titel
 -----
 Charge =  0 Multiplicity = 1

                         Standard orientation:
 ---------------------------------------------------------------------
 Center     Atomic      Atomic             Coordinates (Angstroms)
 Number     Number       Type             X           Y           Z
 ---------------------------------------------------------------------
      1          6           0       -1.331594    1.985135    0.339106
      2          6           0       -1.671468    0.491723    0.326546
      3          6           0       -0.585103   -0.405591   -0.312065
      4          6           0       -1.068259   -1.856661   -0.410161
      5          8           0       -0.274720   -0.002517   -1.636793
      6          6           0        0.664685   -0.383180    0.597307
      7          8           0        0.628450   -0.763860    1.746731
      8          6           0        1.893184    0.136767    0.013224
      9          6           0        2.916179    0.590023   -0.433369
     10          1           0       -0.419487    2.193428    0.909323
     11          1           0       -1.197789    2.373423   -0.676147
     12          1           0       -2.141077    2.558501    0.799422
     13          1           0       -1.839336    0.137536    1.348589
     14          1           0       -2.597923    0.329610   -0.235128
     15          1           0       -0.306328   -2.479729   -0.886239
     16          1           0       -1.280089   -2.252326    0.584844
     17          1           0       -1.974748   -1.897159   -1.019813
     18          1           0        0.194803    0.838124   -1.607303
     19          1           0        3.826387    0.980308   -0.820576
 ---------------------------------------------------------------------

 SCF Done:  E(RB3LYP) =  -423.163542433     A.U. after    1 cycles

 The electronic state is 1-A.
 Alpha  occ. eigenvalues --  -19.14746 -19.14393 -10.29276 -10.25018 -10.21500
 Alpha  occ. eigenvalues --  -10.20798 -10.18750 -10.18320 -10.17919  -1.05923
 Alpha  occ. eigenvalues --   -1.02885  -0.79848  -0.78119  -0.74037  -0.67543
 Alpha  occ. eigenvalues --   -0.63787  -0.58254  -0.55027  -0.52973  -0.47293
 Alpha  occ. eigenvalues --   -0.45848  -0.44755  -0.43128  -0.40593  -0.39071
 Alpha  occ. eigenvalues --   -0.38431  -0.37129  -0.36012  -0.35053  -0.34138
 Alpha  occ. eigenvalues --   -0.30561  -0.30116  -0.29202  -0.25449
 Alpha virt. eigenvalues --   -0.06730   0.02712   0.07560   0.09734   0.10357
 Alpha virt. eigenvalues --    0.11210   0.13401   0.13839   0.14566   0.16625
 Alpha virt. eigenvalues --    0.17473   0.18900   0.20376   0.20943   0.22377

 Mulliken charges:
               1
     1  C   -0.418682
     2  C   -0.180342
     3  C    0.247148
     4  C   -0.402381
     5  O   -0.466954
     6  C    0.181606
     7  O   -0.303419
     8  C    0.268075
     9  C   -0.406099
    10  H    0.126736
    11  H    0.115948
    12  H    0.124603
    13  H    0.121457
    14  H    0.101562
    15  H    0.127407
    16  H    0.138125
    17  H    0.124806
    18  H    0.281261
    19  H    0.219146
 Sum of Mulliken charges =   0.00000

 Dipole moment (field-independent basis, Debye):
    X=              0.4352    Y=              1.6449    Z=             -1.2803  Tot=              2.1293
 Quadrupole moment (field-independent basis, Debye-Ang):
   XX=            -45.4883   YY=            -51.2412   ZZ=            -60.3236
   XY=              3.2828   XZ=             -4.9386   YZ=             -0.1502

  Exact polarizability:  93.449   9.106  72.419  -8.164  -4.121  68.648
 Approx polarizability: 135.462  20.302 101.390 -20.278 -15.622 118.348

                      1                      2                      3
                      A                      A                      A
 Frequencies --     23.0175                80.9109               143.1064
 Red. masses --      4.6892                 2.3009                 3.3652
 Frc consts  --      0.0015                 0.0089                 0.0406
 IR Inten    --      1.9564                 0.1115                 5.2667

                      4                      5                      6
                      A                      A                      A
 Frequencies --    173.7230               208.0424               230.5239
 Red. masses --      2.2661                 1.2212                 1.6460
 Frc consts  --      0.0403                 0.0311                 0.0515
 IR Inten    --      0.4791                38.3512                 4.1508

                      7                      8                      9
                      A                      A                      A
 Frequencies --    232.3206               270.0068               278.4625
 Red. masses --      1.8466                 2.2780                 2.0634
 Frc consts  --      0.0587                 0.0978                 0.0943
 IR Inten    --     58.7264                14.0652                44.7600

                     10                     11                     12
                      A                      A                      A
 Frequencies --    296.0475               367.2282               378.7375
 Red. masses --      2.1107                 2.9842                 3.7355
 Frc consts  --      0.1090                 0.2371                 0.3157
 IR Inten    --      4.4675                 0.2573                 6.5075

                     13                     14                     15
                      A                      A                      A
 Frequencies --    481.1839               500.7968               581.6079
 Red. masses --      3.9367                 4.6178                 3.6073
 Frc consts  --      0.5370                 0.6824                 0.7189
 IR Inten    --      5.1430                 2.1382                14.1567

                     16                     17                     18
                      A                      A                      A
 Frequencies --    648.1153               687.2662               716.8250
 Red. masses --      1.2955                 5.8755                 1.3501
 Frc consts  --      0.3206                 1.6351                 0.4087
 IR Inten    --     35.1373                 8.1579                24.2911

                     19                     20                     21
                      A                      A                      A
 Frequencies --    752.2433               787.8079               845.1854
 Red. masses --      3.0285                 1.8057                 1.8393
 Frc consts  --      1.0097                 0.6603                 0.7741
 IR Inten    --      7.6564                 3.7543                13.0223

                     22                     23                     24
                      A                      A                      A
 Frequencies --    948.3854              1007.5841              1024.3742
 Red. masses --      2.2138                 1.4449                 2.5076
 Frc consts  --      1.1732                 0.8643                 1.5503
 IR Inten    --      8.4322                10.2731                47.9727

                     25                     26                     27
                      A                      A                      A
 Frequencies --   1062.1260              1100.7704              1105.8408
 Red. masses --      1.5652                 3.1508                 2.4829
 Frc consts  --      1.0403                 2.2494                 1.7890
 IR Inten    --     10.2884               104.7677                54.3219

                     28                     29                     30
                      A                      A                      A
 Frequencies --   1218.1941              1218.2248              1318.3498
 Red. masses --      2.6620                 2.8863                 1.2518
 Frc consts  --      2.3275                 2.5238                 1.2819
 IR Inten    --     16.6189                35.8455                 1.9424

                     31                     32                     33
                      A                      A                      A
 Frequencies --   1331.2216              1384.8136              1400.2280
 Red. masses --      1.3942                 1.5531                 1.2503
 Frc consts  --      1.4557                 1.7548                 1.4443
 IR Inten    --     28.4570                22.9884                 7.1957

                     34                     35                     36
                      A                      A                      A
 Frequencies --   1412.6792              1470.3519              1485.1619
 Red. masses --      1.2709                 1.0760                 1.0602
 Frc consts  --      1.4943                 1.3706                 1.3778
 IR Inten    --      3.6812                 2.1251                 9.2648

                     37                     38                     39
                      A                      A                      A
 Frequencies --   1496.4340              1499.5348              1512.3957
 Red. masses --      1.0544                 1.0470                 1.0440
 Frc consts  --      1.3911                 1.3871                 1.4070
 IR Inten    --      1.3677                 5.0480                 4.9440

                     40                     41                     42
                      A                      A                      A
 Frequencies --   1761.9220              2201.9683              3033.6539
 Red. masses --     12.7007                 5.9238                 1.0374
 Frc consts  --     23.2301                16.9227                 5.6252
 IR Inten    --    119.3009                65.6539                14.6687

                     43                     44                     45
                      A                      A                      A
 Frequencies --   3043.4989              3051.4772              3084.4795
 Red. masses --      1.0574                 1.0363                 1.1007
 Frc consts  --      5.7710                 5.6854                 6.1699
 IR Inten    --     15.2325                20.6432                 0.3174

                     46                     47                     48
                      A                      A                      A
 Frequencies --   3106.1434              3109.8548              3123.8651
 Red. masses --      1.1031                 1.0996                 1.1024
 Frc consts  --      6.2705                 6.2657                 6.3385
 IR Inten    --     34.2550                24.5895                18.8807

                     49                     50                     51
                      A                      A                      A
 Frequencies --   3145.8285              3490.2031              3809.4206
 Red. masses --      1.1022                 1.1612                 1.0657
 Frc consts  --      6.4264                 8.3343                 9.1117
 IR Inten    --      9.3107                55.1628                15.5424

 - Thermochemistry -
 -------------------
 Temperature   298.150 Kelvin.  Pressure   1.00000 Atm.
 Atom     1 has atomic number  6 and mass  12.00000

 Molecular mass:   126.06808 amu.
 Principal axes and moments of inertia in atomic units:
                           1         2         3
     Eigenvalues --   914.120831356.799981465.07415
           X            0.99946   0.01033  -0.03125
           Y           -0.00705   0.99463   0.10324
           Z            0.03215  -0.10296   0.99417
 This molecule is an asymmetric top.
 Rotational symmetry number  1.
 Warning -- assumption of classical behavior for rotation
           may cause significant error
 Rotational temperatures (Kelvin)      0.09475     0.06384     0.05912
 Rotational constants (GHZ):           1.97429     1.33015     1.23184
 Zero-point vibrational energy     404589.9 (Joules/Mol)
                                   96.69930 (Kcal/Mol)
 Warning -- explicit consideration of  15 degrees of freedom as
           vibrations may cause significant error
 Vibrational temperatures:     33.12   116.41   205.90   249.95   299.33
          (Kelvin)            331.67   334.26   388.48   400.64   425.95
                              528.36   544.92   692.32   720.53   836.80
                              932.49   988.82  1031.35  1082.31  1133.48
                             1216.03  1364.51  1449.69  1473.84  1528.16
                             1583.76  1591.06  1752.71  1752.75  1896.81
                             1915.33  1992.44  2014.61  2032.53  2115.51
                             2136.81  2153.03  2157.49  2176.00  2535.01
                             3168.14  4364.75  4378.91  4390.39  4437.87
                             4469.04  4474.38  4494.54  4526.14  5021.62
                             5480.90

 Zero-point correction=                           0.154100 (Hartree/Particle)
 Thermal correction to Energy=                    0.164962
 Thermal correction to Enthalpy=                  0.165906
 Thermal correction to Gibbs Free Energy=         0.117687
 Sum of electronic and zero-point Energies=           -423.009442
 Sum of electronic and thermal Energies=              -422.998580
 Sum of electronic and thermal Enthalpies=            -422.997636
 Sum of electronic and thermal Free Energies=         -423.045856

                     E (Thermal)             CV                S
                      KCal/Mol        Cal/Mol-Kelvin    Cal/Mol-Kelvin
 Total                  103.515             38.887            101.487
 Electronic               0.000              0.000              0.000
 Translational            0.889              2.981             40.409
 Rotational               0.889              2.981             28.987
 Vibrational            101.738             32.925             32.091
 Vibration     1          0.593              1.985              6.355
 Vibration     2          0.600              1.962              3.869
 Vibration     3          0.616              1.910              2.762
 Vibration     4          0.627              1.875              2.395
 Vibration     5          0.641              1.828              2.061
 Vibration     6          0.652              1.794              1.875
 Vibration     7          0.653              1.792              1.861
 Vibration     8          0.674              1.728              1.596
 Vibration     9          0.679              1.713              1.543
 Vibration    10          0.690              1.681              1.439
 Vibration    11          0.740              1.540              1.091
 Vibration    12          0.749              1.515              1.044
 Vibration    13          0.837              1.292              0.707
 Vibration    14          0.856              1.248              0.656
 Vibration    15          0.938              1.071              0.482

 Optimization completed.
    -- Stationary point found.
 Normal termination of Gaussian 09 at Tue Jan 28 10:14:37 2020.
