 Gaussian 09, Revision D.01,
 Gaussian 09:  ES64L-G09RevD.01 24-Apr-2013

 -----------------------------
 # b3lyp 6-31G(2df,p) opt Freq
 -----------------------------

 -----
 titel
 -----
 Symbolic Z-matrix:
 Charge =  0 Multiplicity = 1

 SCF Done:  E(RB3LYP) =  -423.136802824     A.U. after   14 cycles
 SCF Done:  E(RB3LYP) =  -423.136802749     A.U. after    7 cycles
 SCF Done:  E(RB3LYP) =  -423.136802794     A.U. after    7 cycles
 SCF Done:  E(RB3LYP) =  -423.136802751     A.U. after    7 cycles
 Optimization completed.
    -- Stationary point found.
 Normal termination of Gaussian 09 at Tue Jan 28 00:55:11 2020.

 ----------------------------------------------------------------------
 #N Geom=AllCheck Guess=TCheck SCRF=Check GenChk RB3LYP/6-31G(2df,p) Fr
 eq
 ----------------------------------------------------------------------

 Structure from the checkpoint file:  "/scratch/puck/g09_119f8b19-3d0e-4963-9b82-b8894a8f2e43/Gau-71617.chk"
 -----
 titel
 -----
 Charge =  0 Multiplicity = 1

                         Standard orientation:
 ---------------------------------------------------------------------
 Center     Atomic      Atomic             Coordinates (Angstroms)
 Number     Number       Type             X           Y           Z
 ---------------------------------------------------------------------
      1          6           0        1.856225   -1.530168   -0.282069
      2          6           0        0.941058   -0.383456    0.091117
      3          8           0        0.665796   -0.492105    1.467750
      4          6           0        1.340374    1.070028   -0.323248
      5          6           0       -0.151891    1.356363   -0.627598
      6          8           0       -0.861180    1.800085    0.522123
      7          6           0       -0.371886   -0.179937   -0.777119
      8          6           0       -1.614561   -0.777657   -0.348729
      9          6           0       -2.639333   -1.289373    0.016801
     10          1           0        2.771820   -1.488840    0.316206
     11          1           0        1.362009   -2.485020   -0.079295
     12          1           0        2.128118   -1.491172   -1.340699
     13          1           0        0.000523    0.176921    1.679602
     14          1           0        1.807248    1.676290    0.457265
     15          1           0        1.956822    1.095832   -1.226534
     16          1           0       -0.393297    1.974509   -1.500167
     17          1           0       -0.534720    2.677199    0.750315
     18          1           0       -0.150111   -0.457559   -1.813492
     19          1           0       -3.545267   -1.736795    0.342888
 ---------------------------------------------------------------------

 SCF Done:  E(RB3LYP) =  -423.136802751     A.U. after    1 cycles

 The electronic state is 1-A.
 Alpha  occ. eigenvalues --  -19.15653 -19.12548 -10.24641 -10.24253 -10.20580
 Alpha  occ. eigenvalues --  -10.18372 -10.17406 -10.17174 -10.16562  -1.04112
 Alpha  occ. eigenvalues --   -1.01243  -0.83873  -0.74829  -0.72571  -0.67592
 Alpha  occ. eigenvalues --   -0.61865  -0.56855  -0.53617  -0.53045  -0.49490
 Alpha  occ. eigenvalues --   -0.46343  -0.44060  -0.42607  -0.42386  -0.39264
 Alpha  occ. eigenvalues --   -0.38049  -0.36443  -0.35112  -0.34503  -0.32298
 Alpha  occ. eigenvalues --   -0.28067  -0.26130  -0.25467  -0.24395
 Alpha virt. eigenvalues --    0.04467   0.04970   0.07431   0.09773   0.11412
 Alpha virt. eigenvalues --    0.12992   0.13837   0.14595   0.14647   0.17388
 Alpha virt. eigenvalues --    0.17643   0.18559   0.19120   0.20147   0.22656

 Mulliken charges:
               1
     1  C   -0.436931
     2  C    0.427707
     3  O   -0.478551
     4  C   -0.314656
     5  C    0.083618
     6  O   -0.424579
     7  C   -0.275981
     8  C    0.344732
     9  C   -0.438024
    10  H    0.125896
    11  H    0.133883
    12  H    0.106374
    13  H    0.284923
    14  H    0.098756
    15  H    0.101250
    16  H    0.075729
    17  H    0.290013
    18  H    0.103509
    19  H    0.192331
 Sum of Mulliken charges =   0.00000

 Dipole moment (field-independent basis, Debye):
    X=              0.8208    Y=              2.1049    Z=             -1.3106  Tot=              2.6119
 Quadrupole moment (field-independent basis, Debye-Ang):
   XX=            -52.4791   YY=            -47.6725   ZZ=            -53.5550
   XY=              2.6535   XZ=             -3.0044   YZ=              2.0341

  Exact polarizability:  92.381   9.209  76.979  -5.637  -1.794  64.895
 Approx polarizability: 134.030  18.594 106.898 -13.218  -5.052 102.095

                      1                      2                      3
                      A                      A                      A
 Frequencies --    103.1650               123.0868               171.0386
 Red. masses --      3.9337                 3.8868                 4.1321
 Frc consts  --      0.0247                 0.0347                 0.0712
 IR Inten    --      0.9155                 0.9970                 0.6549

                      4                      5                      6
                      A                      A                      A
 Frequencies --    208.5891               235.9154               326.9674
 Red. masses --      1.2706                 2.0739                 1.7381
 Frc consts  --      0.0326                 0.0680                 0.1095
 IR Inten    --      1.9640                 4.5708                29.3630

                      7                      8                      9
                      A                      A                      A
 Frequencies --    341.1615               358.2553               363.8497
 Red. masses --      2.2806                 3.7238                 3.7652
 Frc consts  --      0.1564                 0.2816                 0.2937
 IR Inten    --     30.4022                22.0880                 6.2844

                     10                     11                     12
                      A                      A                      A
 Frequencies --    398.9717               428.9494               510.8191
 Red. masses --      3.2621                 1.9029                 1.1595
 Frc consts  --      0.3059                 0.2063                 0.1783
 IR Inten    --      3.5535                 1.8335               109.6526

                     13                     14                     15
                      A                      A                      A
 Frequencies --    556.5710               597.8753               624.1517
 Red. masses --      3.6751                 4.1351                 1.2361
 Frc consts  --      0.6708                 0.8709                 0.2837
 IR Inten    --     20.1978                16.4715                38.9147

                     16                     17                     18
                      A                      A                      A
 Frequencies --    631.0009               702.3072               761.9983
 Red. masses --      1.2476                 4.0743                 2.5869
 Frc consts  --      0.2927                 1.1840                 0.8850
 IR Inten    --     39.2072                 9.4588                 3.5307

                     19                     20                     21
                      A                      A                      A
 Frequencies --    856.2780               873.2448               889.6903
 Red. masses --      3.3736                 2.3989                 2.7125
 Frc consts  --      1.4574                 1.0778                 1.2650
 IR Inten    --     15.7332                 1.7624                 0.5536

                     22                     23                     24
                      A                      A                      A
 Frequencies --    962.5981               970.1214              1025.3336
 Red. masses --      2.2406                 1.7166                 1.8516
 Frc consts  --      1.2232                 0.9519                 1.1469
 IR Inten    --     16.2572                 6.0182                20.8443

                     25                     26                     27
                      A                      A                      A
 Frequencies --   1073.2984              1101.4705              1124.0697
 Red. masses --      2.2565                 1.3886                 2.0578
 Frc consts  --      1.5316                 0.9926                 1.5319
 IR Inten    --      9.2638                19.0314                28.9299

                     28                     29                     30
                      A                      A                      A
 Frequencies --   1153.7497              1182.7746              1214.8663
 Red. masses --      2.3233                 2.0292                 1.3465
 Frc consts  --      1.8222                 1.6725                 1.1709
 IR Inten    --     58.9435                 9.1764                37.1506

                     31                     32                     33
                      A                      A                      A
 Frequencies --   1240.3075              1272.5051              1300.2261
 Red. masses --      1.5862                 1.9057                 1.3523
 Frc consts  --      1.4377                 1.8181                 1.3470
 IR Inten    --     18.5978                33.4885                22.8091

                     34                     35                     36
                      A                      A                      A
 Frequencies --   1347.7230              1397.6489              1402.3437
 Red. masses --      1.6338                 1.2294                 1.3775
 Frc consts  --      1.7485                 1.4150                 1.5960
 IR Inten    --     25.9561                14.9464                15.4361

                     37                     38                     39
                      A                      A                      A
 Frequencies --   1447.7776              1467.2708              1479.8554
 Red. masses --      1.4208                 1.3150                 1.0492
 Frc consts  --      1.7547                 1.6680                 1.3538
 IR Inten    --     52.0908                29.3964                 1.6954

                     40                     41                     42
                      A                      A                      A
 Frequencies --   1494.2480              2235.4050              3029.5939
 Red. masses --      1.0598                 5.9763                 1.0851
 Frc consts  --      1.3942                17.5951                 5.8680
 IR Inten    --      1.2671                 2.4573                54.4998

                     43                     44                     45
                      A                      A                      A
 Frequencies --   3039.3244              3047.6511              3058.4748
 Red. masses --      1.0358                 1.0758                 1.0667
 Frc consts  --      5.6375                 5.8872                 5.8789
 IR Inten    --     15.1891                 8.8988                39.7926

                     46                     47                     48
                      A                      A                      A
 Frequencies --   3112.5076              3114.8409              3119.8116
 Red. masses --      1.1023                 1.1060                 1.1035
 Frc consts  --      6.2916                 6.3225                 6.3281
 IR Inten    --      8.9023                16.4728                30.0586

                     49                     50                     51
                      A                      A                      A
 Frequencies --   3504.6637              3750.6882              3809.5061
 Red. masses --      1.1611                 1.0655                 1.0661
 Frc consts  --      8.4026                 8.8315                 9.1154
 IR Inten    --     68.5547                57.9734                26.8851

 - Thermochemistry -
 -------------------
 Temperature   298.150 Kelvin.  Pressure   1.00000 Atm.
 Atom     1 has atomic number  6 and mass  12.00000

 Molecular mass:   126.06808 amu.
 Principal axes and moments of inertia in atomic units:
                           1         2         3
     Eigenvalues --   875.906151110.006261506.27709
           X            0.99943  -0.02231  -0.02543
           Y            0.02249   0.99972   0.00685
           Z            0.02527  -0.00742   0.99965
 This molecule is an asymmetric top.
 Rotational symmetry number  1.
 Warning -- assumption of classical behavior for rotation
           may cause significant error
 Rotational temperatures (Kelvin)      0.09888     0.07803     0.05750
 Rotational constants (GHZ):           2.06043     1.62588     1.19815
 Zero-point vibrational energy     409987.4 (Joules/Mol)
                                   97.98934 (Kcal/Mol)
 Warning -- explicit consideration of  14 degrees of freedom as
           vibrations may cause significant error
 Vibrational temperatures:    148.43   177.09   246.09   300.11   339.43
          (Kelvin)            470.43   490.85   515.45   523.50   574.03
                              617.16   734.95   800.78   860.21   898.01
                              907.87  1010.46  1096.34  1231.99  1256.40
                             1280.06  1384.96  1395.79  1475.22  1544.24
                             1584.77  1617.28  1659.99  1701.75  1747.92
                             1784.52  1830.85  1870.73  1939.07  2010.90
                             2017.66  2083.03  2111.07  2129.18  2149.89
                             3216.25  4358.90  4372.90  4384.88  4400.46
                             4478.20  4481.56  4488.71  5042.42  5396.40
                             5481.02

 Zero-point correction=                           0.156156 (Hartree/Particle)
 Thermal correction to Energy=                    0.165685
 Thermal correction to Enthalpy=                  0.166630
 Thermal correction to Gibbs Free Energy=         0.122563
 Sum of electronic and zero-point Energies=           -422.980647
 Sum of electronic and thermal Energies=              -422.971117
 Sum of electronic and thermal Enthalpies=            -422.970173
 Sum of electronic and thermal Free Energies=         -423.014240

                     E (Thermal)             CV                S
                      KCal/Mol        Cal/Mol-Kelvin    Cal/Mol-Kelvin
 Total                  103.969             36.856             92.746
 Electronic               0.000              0.000              0.000
 Translational            0.889              2.981             40.409
 Rotational               0.889              2.981             28.773
 Vibrational            102.192             30.894             23.565
 Vibration     1          0.605              1.947              3.394
 Vibration     2          0.610              1.930              3.051
 Vibration     3          0.626              1.878              2.424
 Vibration     4          0.642              1.828              2.056
 Vibration     5          0.655              1.786              1.833
 Vibration     6          0.711              1.622              1.275
 Vibration     7          0.721              1.593              1.207
 Vibration     8          0.733              1.558              1.130
 Vibration     9          0.737              1.547              1.106
 Vibration    10          0.765              1.472              0.966
 Vibration    11          0.790              1.407              0.862
 Vibration    12          0.866              1.226              0.632
 Vibration    13          0.912              1.125              0.531
 Vibration    14          0.956              1.036              0.453

 Optimization completed.
    -- Stationary point found.
 Normal termination of Gaussian 09 at Tue Jan 28 01:38:15 2020.
