 Gaussian 09, Revision D.01,
 Gaussian 09:  ES64L-G09RevD.01 24-Apr-2013

 -----------------------------
 # b3lyp 6-31G(2df,p) opt Freq
 -----------------------------

 -----
 titel
 -----
 Symbolic Z-matrix:
 Charge =  0 Multiplicity = 1

 SCF Done:  E(RB3LYP) =  -423.145295764     A.U. after   14 cycles
 Optimization completed.
    -- Stationary point found.
 Normal termination of Gaussian 09 at Mon Jan 27 13:55:14 2020.

 ----------------------------------------------------------------------
 #N Geom=AllCheck Guess=TCheck SCRF=Check GenChk RB3LYP/6-31G(2df,p) Fr
 eq
 ----------------------------------------------------------------------

 Structure from the checkpoint file:  "/scratch/puck/g09_d5aa5c79-4bd3-41c1-9ea8-30c50b4e8838/Gau-157912.chk"
 -----
 titel
 -----
 Charge =  0 Multiplicity = 1

                         Standard orientation:
 ---------------------------------------------------------------------
 Center     Atomic      Atomic             Coordinates (Angstroms)
 Number     Number       Type             X           Y           Z
 ---------------------------------------------------------------------
      1          8           0       -4.530021   -0.203178   -0.417895
      2          6           0       -3.561556   -0.240730    0.295100
      3          6           0       -2.282447    0.530067    0.060217
      4          6           0       -1.056197   -0.382286    0.041515
      5          8           0        0.094824    0.431460    0.049193
      6          6           0        1.298584   -0.303314   -0.003205
      7          6           0        2.454216    0.702646    0.014686
      8          6           0        3.753484    0.046916   -0.037582
      9          6           0        4.811690   -0.520745   -0.081601
     10          1           0       -3.554734   -0.870868    1.216152
     11          1           0       -2.366976    1.101059   -0.866997
     12          1           0       -2.157970    1.235457    0.893801
     13          1           0       -1.061631   -1.050173    0.920587
     14          1           0       -1.070477   -1.025621   -0.853428
     15          1           0        1.379073   -0.987016    0.856657
     16          1           0        1.344916   -0.916270   -0.916869
     17          1           0        2.336931    1.385682   -0.834911
     18          1           0        2.371949    1.314916    0.920492
     19          1           0        5.753856   -1.008751   -0.120645
 ---------------------------------------------------------------------

 SCF Done:  E(RB3LYP) =  -423.145295764     A.U. after    1 cycles

 The electronic state is 1-A.
 Alpha  occ. eigenvalues --  -19.15561 -19.14526 -10.27820 -10.24932 -10.24369
 Alpha  occ. eigenvalues --  -10.21419 -10.20072 -10.18638 -10.17544  -1.05272
 Alpha  occ. eigenvalues --   -1.05024  -0.81431  -0.78313  -0.72412  -0.66295
 Alpha  occ. eigenvalues --   -0.62658  -0.58246  -0.53435  -0.51223  -0.50428
 Alpha  occ. eigenvalues --   -0.48188  -0.46498  -0.44333  -0.44210  -0.42389
 Alpha  occ. eigenvalues --   -0.40971  -0.39237  -0.37097  -0.36023  -0.33506
 Alpha  occ. eigenvalues --   -0.27305  -0.27078  -0.26764  -0.25668
 Alpha virt. eigenvalues --   -0.02848   0.04922   0.05440   0.08006   0.10409
 Alpha virt. eigenvalues --    0.11554   0.12041   0.12700   0.13373   0.15141
 Alpha virt. eigenvalues --    0.15983   0.16916   0.17658   0.20483   0.20777

 Mulliken charges:
               1
     1  O   -0.230963
     2  C    0.153615
     3  C   -0.281087
     4  C   -0.061938
     5  O   -0.242435
     6  C   -0.052829
     7  C   -0.350556
     8  C    0.285797
     9  C   -0.445609
    10  H    0.073894
    11  H    0.132218
    12  H    0.133128
    13  H    0.093264
    14  H    0.105027
    15  H    0.102238
    16  H    0.104469
    17  H    0.142401
    18  H    0.140943
    19  H    0.198421
 Sum of Mulliken charges =   0.00000

 Dipole moment (field-independent basis, Debye):
    X=              1.8565    Y=             -0.5533    Z=              1.1165  Tot=              2.2359
 Quadrupole moment (field-independent basis, Debye-Ang):
   XX=            -67.3745   YY=            -52.2493   ZZ=            -52.9077
   XY=             -2.4143   XZ=             -5.1870   YZ=             -0.0496

  Exact polarizability: 115.687  -7.254  64.697   1.275  -1.818  61.269
 Approx polarizability: 144.273 -17.046  99.709   6.308  -1.714  94.597

                      1                      2                      3
                      A                      A                      A
 Frequencies --     35.5660                52.9999                64.7671
 Red. masses --      5.3468                 4.1612                 2.6115
 Frc consts  --      0.0040                 0.0069                 0.0065
 IR Inten    --      2.3106                 3.4709                 0.5817

                      4                      5                      6
                      A                      A                      A
 Frequencies --     89.7651               123.2656               146.1079
 Red. masses --      3.4835                 2.3422                 3.7768
 Frc consts  --      0.0165                 0.0210                 0.0475
 IR Inten    --      2.8874                 1.0327                 6.4761

                      7                      8                      9
                      A                      A                      A
 Frequencies --    176.1362               268.3843               347.7306
 Red. masses --      3.8362                 3.4789                 5.1049
 Frc consts  --      0.0701                 0.1476                 0.3637
 IR Inten    --      0.1601                 0.9701                 0.6217

                     10                     11                     12
                      A                      A                      A
 Frequencies --    354.2921               455.4818               506.3784
 Red. masses --      3.1998                 3.9849                 3.8777
 Frc consts  --      0.2366                 0.4871                 0.5858
 IR Inten    --      4.9989                11.7982                14.4857

                     13                     14                     15
                      A                      A                      A
 Frequencies --    556.4557               625.7346               652.1310
 Red. masses --      3.1580                 1.2081                 1.2313
 Frc consts  --      0.5761                 0.2787                 0.3085
 IR Inten    --      5.5160                44.4489                41.8963

                     16                     17                     18
                      A                      A                      A
 Frequencies --    788.4390               797.8330               871.1241
 Red. masses --      1.2996                 1.1732                 1.3561
 Frc consts  --      0.4760                 0.4400                 0.6063
 IR Inten    --      0.3008                 0.0215                 3.2473

                     19                     20                     21
                      A                      A                      A
 Frequencies --    958.9803              1001.8757              1033.5397
 Red. masses --      4.6169                 3.0035                 3.1635
 Frc consts  --      2.5016                 1.7763                 1.9910
 IR Inten    --      9.0180                14.4683                15.6849

                     22                     23                     24
                      A                      A                      A
 Frequencies --   1058.3973              1089.1749              1121.7186
 Red. masses --      3.3254                 1.5613                 3.2922
 Frc consts  --      2.1948                 1.0913                 2.4407
 IR Inten    --      2.5113                 0.7226                 8.1915

                     25                     26                     27
                      A                      A                      A
 Frequencies --   1139.7840              1162.1288              1219.8447
 Red. masses --      2.1599                 7.6037                 1.1840
 Frc consts  --      1.6532                 6.0504                 1.0380
 IR Inten    --     62.9209               239.4694                 2.6950

                     28                     29                     30
                      A                      A                      A
 Frequencies --   1239.5696              1276.2959              1300.1307
 Red. masses --      1.2887                 1.3775                 1.0850
 Frc consts  --      1.1666                 1.3221                 1.0806
 IR Inten    --      7.4377                 2.4888                 0.9835

                     31                     32                     33
                      A                      A                      A
 Frequencies --   1305.7347              1311.1228              1396.1348
 Red. masses --      1.2382                 1.2748                 1.3166
 Frc consts  --      1.2438                 1.2912                 1.5120
 IR Inten    --     12.9365                 2.0645                63.7537

                     34                     35                     36
                      A                      A                      A
 Frequencies --   1432.4133              1448.7755              1467.2591
 Red. masses --      1.1986                 1.4431                 1.0903
 Frc consts  --      1.4490                 1.7847                 1.3830
 IR Inten    --      6.6055                 5.4678                 4.1901

                     37                     38                     39
                      A                      A                      A
 Frequencies --   1477.0609              1514.7425              1537.4040
 Red. masses --      1.0842                 1.0841                 1.0931
 Frc consts  --      1.3936                 1.4656                 1.5222
 IR Inten    --      1.9247                 7.1636                 1.8426

                     40                     41                     42
                      A                      A                      A
 Frequencies --   1839.4742              2242.9781              2851.3855
 Red. masses --     10.1616                 5.9247                 1.0814
 Frc consts  --     20.2581                17.5617                 5.1801
 IR Inten    --    186.4076                 2.5740               102.2368

                     43                     44                     45
                      A                      A                      A
 Frequencies --   2952.2950              2976.3024              2987.6231
 Red. masses --      1.0579                 1.0568                 1.0984
 Frc consts  --      5.4325                 5.5155                 5.7765
 IR Inten    --     38.6265                44.5915                47.0321

                     46                     47                     48
                      A                      A                      A
 Frequencies --   3007.5691              3027.5570              3035.8324
 Red. masses --      1.1064                 1.0652                 1.0580
 Frc consts  --      5.8963                 5.7528                 5.7453
 IR Inten    --     33.9037                 9.7864                15.4721

                     49                     50                     51
                      A                      A                      A
 Frequencies --   3073.4739              3119.1984              3507.1751
 Red. masses --      1.1030                 1.0968                 1.1626
 Frc consts  --      6.1390                 6.2875                 8.4258
 IR Inten    --     15.3604                11.5088                69.5264

 - Thermochemistry -
 -------------------
 Temperature   298.150 Kelvin.  Pressure   1.00000 Atm.
 Atom     1 has atomic number  8 and mass  15.99491

 Molecular mass:   126.06808 amu.
 Principal axes and moments of inertia in atomic units:
                           1         2         3
     Eigenvalues --   156.397374218.414504290.70606
           X            0.99999  -0.00193  -0.00399
           Y            0.00176   0.99917  -0.04073
           Z            0.00406   0.04072   0.99916
 This molecule is an asymmetric top.
 Rotational symmetry number  1.
 Rotational temperatures (Kelvin)      0.55381     0.02053     0.02019
 Rotational constants (GHZ):          11.53946     0.42782     0.42062
 Zero-point vibrational energy     406883.1 (Joules/Mol)
                                   97.24740 (Kcal/Mol)
 Warning -- explicit consideration of  13 degrees of freedom as
           vibrations may cause significant error
 Vibrational temperatures:     51.17    76.25    93.19   129.15   177.35
          (Kelvin)            210.22   253.42   386.14   500.31   509.75
                              655.34   728.56   800.61   900.29   938.27
                             1134.39  1147.90  1253.35  1379.76  1441.47
                             1487.03  1522.80  1567.08  1613.90  1639.89
                             1672.04  1755.08  1783.46  1836.30  1870.60
                             1878.66  1886.41  2008.72  2060.92  2084.46
                             2111.06  2125.16  2179.37  2211.98  2646.59
                             3227.14  4102.50  4247.69  4282.23  4298.52
                             4327.22  4355.97  4367.88  4422.04  4487.83
                             5046.04

 Zero-point correction=                           0.154974 (Hartree/Particle)
 Thermal correction to Energy=                    0.165693
 Thermal correction to Enthalpy=                  0.166637
 Thermal correction to Gibbs Free Energy=         0.117106
 Sum of electronic and zero-point Energies=           -422.990322
 Sum of electronic and thermal Energies=              -422.979603
 Sum of electronic and thermal Enthalpies=            -422.978658
 Sum of electronic and thermal Free Energies=         -423.028190

                     E (Thermal)             CV                S
                      KCal/Mol        Cal/Mol-Kelvin    Cal/Mol-Kelvin
 Total                  103.974             35.990            104.248
 Electronic               0.000              0.000              0.000
 Translational            0.889              2.981             40.409
 Rotational               0.889              2.981             29.428
 Vibrational            102.197             30.028             34.412
 Vibration     1          0.594              1.982              5.492
 Vibration     2          0.596              1.976              4.702
 Vibration     3          0.597              1.971              4.306
 Vibration     4          0.602              1.956              3.665
 Vibration     5          0.610              1.930              3.049
 Vibration     6          0.617              1.907              2.722
 Vibration     7          0.628              1.872              2.369
 Vibration     8          0.673              1.731              1.607
 Vibration     9          0.725              1.580              1.176
 Vibration    10          0.730              1.566              1.147
 Vibration    11          0.814              1.349              0.779
 Vibration    12          0.862              1.236              0.642
 Vibration    13          0.912              1.126              0.531

 Optimization completed.
    -- Stationary point found.
 Normal termination of Gaussian 09 at Mon Jan 27 14:24:15 2020.
