 Gaussian 09, Revision D.01,
 Gaussian 09:  ES64L-G09RevD.01 24-Apr-2013

 -----------------------------
 # b3lyp 6-31G(2df,p) opt Freq
 -----------------------------

 -----
 titel
 -----
 Symbolic Z-matrix:
 Charge =  0 Multiplicity = 1

 SCF Done:  E(RB3LYP) =  -423.177968166     A.U. after   14 cycles
 Optimization completed.
    -- Stationary point found.
 Normal termination of Gaussian 09 at Mon Jan 27 22:04:38 2020.

 ----------------------------------------------------------------------
 #N Geom=AllCheck Guess=TCheck SCRF=Check GenChk RB3LYP/6-31G(2df,p) Fr
 eq
 ----------------------------------------------------------------------

 Structure from the checkpoint file:  "/scratch/puck/g09_0edddd15-d846-4a47-8e1d-d8e3c9443262/Gau-62991.chk"
 -----
 titel
 -----
 Charge =  0 Multiplicity = 1

                         Standard orientation:
 ---------------------------------------------------------------------
 Center     Atomic      Atomic             Coordinates (Angstroms)
 Number     Number       Type             X           Y           Z
 ---------------------------------------------------------------------
      1          6           0       -1.961621    1.100365    0.654186
      2          6           0       -0.712484    0.224095    0.688030
      3          6           0       -0.800217   -0.954210   -0.312877
      4          8           0       -1.681204   -1.731336   -0.555015
      5          6           0        0.445221   -0.570218   -1.048351
      6          6           0        1.568274   -0.341038   -0.072683
      7          8           0        1.728434   -1.235092    0.991974
      8          6           0        0.518217    0.713539   -0.117976
      9          6           0        0.783769    2.138064   -0.512307
     10          1           0       -1.825780    2.012527    1.243924
     11          1           0       -2.225379    1.391091   -0.367984
     12          1           0       -2.809507    0.547763    1.067731
     13          1           0       -0.474051   -0.071376    1.714003
     14          1           0        0.629703   -0.707672   -2.107777
     15          1           0        2.501461   -0.068652   -0.570317
     16          1           0        2.206191   -0.781058    1.694863
     17          1           0        1.034364    2.746687    0.365219
     18          1           0        1.624361    2.202374   -1.210481
     19          1           0       -0.086163    2.596156   -0.992985
 ---------------------------------------------------------------------

 SCF Done:  E(RB3LYP) =  -423.177968165     A.U. after    1 cycles

 The electronic state is 1-A.
 Alpha  occ. eigenvalues --  -19.15486 -19.12180 -10.26065 -10.25384 -10.21761
 Alpha  occ. eigenvalues --  -10.19958 -10.19558 -10.19465 -10.18266  -1.04250
 Alpha  occ. eigenvalues --   -1.03119  -0.90027  -0.76431  -0.73812  -0.66802
 Alpha  occ. eigenvalues --   -0.61980  -0.57238  -0.52578  -0.50422  -0.49037
 Alpha  occ. eigenvalues --   -0.46092  -0.44304  -0.42281  -0.41833  -0.40661
 Alpha  occ. eigenvalues --   -0.39817  -0.38767  -0.37682  -0.35782  -0.33691
 Alpha  occ. eigenvalues --   -0.31607  -0.28909  -0.26357  -0.23279
 Alpha virt. eigenvalues --   -0.00196   0.06759   0.08434   0.09530   0.11210
 Alpha virt. eigenvalues --    0.13371   0.13909   0.14661   0.15383   0.16911
 Alpha virt. eigenvalues --    0.17488   0.18347   0.18530   0.20188   0.22494

 Mulliken charges:
               1
     1  C   -0.415069
     2  C   -0.167823
     3  C    0.456668
     4  O   -0.338175
     5  C   -0.275068
     6  C    0.054548
     7  O   -0.413266
     8  C    0.261923
     9  C   -0.495641
    10  H    0.115115
    11  H    0.121135
    12  H    0.139432
    13  H    0.087233
    14  H    0.105800
    15  H    0.093740
    16  H    0.288538
    17  H    0.125471
    18  H    0.123759
    19  H    0.131680
 Sum of Mulliken charges =   0.00000

 Dipole moment (field-independent basis, Debye):
    X=              2.7180    Y=              3.6888    Z=              0.7875  Tot=              4.6491
 Quadrupole moment (field-independent basis, Debye-Ang):
   XX=            -52.9109   YY=            -59.3774   ZZ=            -49.2956
   XY=             -2.6202   XZ=             -0.2609   YZ=             -0.5950

  Exact polarizability:  82.597   3.382  78.097  -1.952   3.060  68.979
 Approx polarizability: 118.387  11.303 116.961   1.410   7.376 106.394

                      1                      2                      3
                      A                      A                      A
 Frequencies --     83.6455               171.7748               189.6508
 Red. masses --      5.0045                 4.3224                 1.0976
 Frc consts  --      0.0206                 0.0751                 0.0233
 IR Inten    --      1.3064                 0.0943                 0.0952

                      4                      5                      6
                      A                      A                      A
 Frequencies --    209.4711               228.2207               244.9340
 Red. masses --      1.7223                 2.0252                 1.6035
 Frc consts  --      0.0445                 0.0621                 0.0567
 IR Inten    --      2.7622                 4.0511                 0.0978

                      7                      8                      9
                      A                      A                      A
 Frequencies --    270.8074               299.7649               366.4603
 Red. masses --      2.7733                 1.1757                 3.2361
 Frc consts  --      0.1198                 0.0622                 0.2561
 IR Inten    --      0.2269               108.6551                 8.9389

                     10                     11                     12
                      A                      A                      A
 Frequencies --    445.5263               480.0563               556.5119
 Red. masses --      4.2521                 3.4552                 4.5517
 Frc consts  --      0.4973                 0.4692                 0.8306
 IR Inten    --      4.3544                 5.6873                 1.8950

                     13                     14                     15
                      A                      A                      A
 Frequencies --    618.6729               654.1839               704.4476
 Red. masses --      4.0655                 4.3561                 3.4165
 Frc consts  --      0.9168                 1.0984                 0.9989
 IR Inten    --      2.9054                11.3028                 5.6168

                     16                     17                     18
                      A                      A                      A
 Frequencies --    778.5631               816.0863               903.9699
 Red. masses --      3.4787                 2.4961                 2.0621
 Frc consts  --      1.2424                 0.9794                 0.9928
 IR Inten    --      8.1603                 3.8307                14.7982

                     19                     20                     21
                      A                      A                      A
 Frequencies --    935.2495               977.6878              1008.5553
 Red. masses --      1.6527                 1.6080                 1.6673
 Frc consts  --      0.8517                 0.9056                 0.9992
 IR Inten    --     22.5346                 4.0208                17.4991

                     22                     23                     24
                      A                      A                      A
 Frequencies --   1045.8889              1055.3359              1094.2592
 Red. masses --      1.5053                 1.3930                 2.0404
 Frc consts  --      0.9702                 0.9141                 1.4395
 IR Inten    --      3.8855                 1.5616                20.6804

                     25                     26                     27
                      A                      A                      A
 Frequencies --   1115.7168              1129.3154              1152.4707
 Red. masses --      2.0771                 2.6256                 3.2617
 Frc consts  --      1.5234                 1.9729                 2.5524
 IR Inten    --     12.1214                37.4436                59.0784

                     28                     29                     30
                      A                      A                      A
 Frequencies --   1230.6248              1240.5855              1262.5394
 Red. masses --      1.8398                 1.7506                 1.9858
 Frc consts  --      1.6417                 1.5874                 1.8650
 IR Inten    --      4.6073                19.4518                39.0345

                     31                     32                     33
                      A                      A                      A
 Frequencies --   1293.9445              1337.3883              1339.9545
 Red. masses --      1.3273                 1.9239                 1.7682
 Frc consts  --      1.3093                 2.0274                 1.8705
 IR Inten    --     29.7890                 7.4167                 1.9678

                     34                     35                     36
                      A                      A                      A
 Frequencies --   1406.3243              1419.8787              1464.1995
 Red. masses --      1.2332                 1.2433                 2.1186
 Frc consts  --      1.4370                 1.4768                 2.6760
 IR Inten    --      1.9186                 1.4990                21.5929

                     37                     38                     39
                      A                      A                      A
 Frequencies --   1484.1589              1492.1167              1500.0790
 Red. masses --      1.0494                 1.0740                 1.0627
 Frc consts  --      1.3619                 1.4088                 1.4090
 IR Inten    --      3.6464                10.3669                 9.1989

                     40                     41                     42
                      A                      A                      A
 Frequencies --   1501.3807              1876.1978              3025.7049
 Red. masses --      1.0542                12.3524                 1.0377
 Frc consts  --      1.4001                25.6188                 5.5972
 IR Inten    --      0.6857               324.9937                23.8689

                     43                     44                     45
                      A                      A                      A
 Frequencies --   3036.7963              3062.7987              3082.4567
 Red. masses --      1.0356                 1.0839                 1.0875
 Frc consts  --      5.6270                 5.9909                 6.0880
 IR Inten    --     24.7291                11.1927                24.0112

                     46                     47                     48
                      A                      A                      A
 Frequencies --   3087.4086              3103.4461              3105.5848
 Red. masses --      1.0962                 1.1014                 1.1011
 Frc consts  --      6.1564                 6.2498                 6.2571
 IR Inten    --     17.0903                29.9800                22.6206

                     49                     50                     51
                      A                      A                      A
 Frequencies --   3118.9057              3183.4086              3801.1573
 Red. masses --      1.1006                 1.0935                 1.0660
 Frc consts  --      6.3080                 6.5292                 9.0750
 IR Inten    --     14.5252                 8.2088                25.9527

 - Thermochemistry -
 -------------------
 Temperature   298.150 Kelvin.  Pressure   1.00000 Atm.
 Atom     1 has atomic number  6 and mass  12.00000

 Molecular mass:   126.06808 amu.
 Principal axes and moments of inertia in atomic units:
                           1         2         3
     Eigenvalues --   911.587201046.853201493.38277
           X            0.99252  -0.11695  -0.03495
           Y            0.11664   0.99312  -0.01077
           Z            0.03597   0.00661   0.99933
 This molecule is an asymmetric top.
 Rotational symmetry number  1.
 Warning -- assumption of classical behavior for rotation
           may cause significant error
 Rotational temperatures (Kelvin)      0.09501     0.08274     0.05800
 Rotational constants (GHZ):           1.97978     1.72397     1.20849
 Zero-point vibrational energy     412677.4 (Joules/Mol)
                                   98.63226 (Kcal/Mol)
 Warning -- explicit consideration of  13 degrees of freedom as
           vibrations may cause significant error
 Vibrational temperatures:    120.35   247.15   272.86   301.38   328.36
          (Kelvin)            352.41   389.63   431.29   527.25   641.01
                              690.69   800.70   890.13   941.22  1013.54
                             1120.18  1174.16  1300.61  1345.61  1406.67
                             1451.08  1504.80  1518.39  1574.39  1605.27
                             1624.83  1658.15  1770.59  1784.92  1816.51
                             1861.70  1924.20  1927.89  2023.38  2042.89
                             2106.65  2135.37  2146.82  2158.28  2160.15
                             2699.43  4353.31  4369.27  4406.68  4434.96
                             4442.09  4465.16  4468.24  4487.40  4580.21
                             5469.01

 Zero-point correction=                           0.157181 (Hartree/Particle)
 Thermal correction to Energy=                    0.166429
 Thermal correction to Enthalpy=                  0.167373
 Thermal correction to Gibbs Free Energy=         0.123623
 Sum of electronic and zero-point Energies=           -423.020788
 Sum of electronic and thermal Energies=              -423.011540
 Sum of electronic and thermal Enthalpies=            -423.010595
 Sum of electronic and thermal Free Energies=         -423.054345

                     E (Thermal)             CV                S
                      KCal/Mol        Cal/Mol-Kelvin    Cal/Mol-Kelvin
 Total                  104.435             34.797             92.080
 Electronic               0.000              0.000              0.000
 Translational            0.889              2.981             40.409
 Rotational               0.889              2.981             28.746
 Vibrational            102.658             28.836             22.925
 Vibration     1          0.601              1.960              3.803
 Vibration     2          0.626              1.877              2.416
 Vibration     3          0.633              1.854              2.231
 Vibration     4          0.642              1.826              2.048
 Vibration     5          0.651              1.798              1.893
 Vibration     6          0.660              1.771              1.767
 Vibration     7          0.674              1.727              1.591
 Vibration     8          0.692              1.674              1.418
 Vibration     9          0.739              1.541              1.095
 Vibration    10          0.805              1.371              0.809
 Vibration    11          0.836              1.294              0.710
 Vibration    12          0.912              1.125              0.531
 Vibration    13          0.979              0.992              0.419

 Optimization completed.
    -- Stationary point found.
 Normal termination of Gaussian 09 at Mon Jan 27 22:50:35 2020.
