 Gaussian 09, Revision D.01,
 Gaussian 09:  ES64L-G09RevD.01 24-Apr-2013

 -----------------------------
 # b3lyp 6-31G(2df,p) opt Freq
 -----------------------------

 -----
 titel
 -----
 Symbolic Z-matrix:
 Charge =  0 Multiplicity = 1

 SCF Done:  E(RB3LYP) =  -423.170135744     A.U. after   14 cycles
 Optimization completed.
    -- Stationary point found.
 Normal termination of Gaussian 09 at Tue Jan 28 08:10:06 2020.

 ----------------------------------------------------------------------
 #N Geom=AllCheck Guess=TCheck SCRF=Check GenChk RB3LYP/6-31G(2df,p) Fr
 eq
 ----------------------------------------------------------------------

 Structure from the checkpoint file:  "/scratch/puck/g09_4142a80b-027d-4b4c-894b-5dc131e38252/Gau-127739.chk"
 -----
 titel
 -----
 Charge =  0 Multiplicity = 1

                         Standard orientation:
 ---------------------------------------------------------------------
 Center     Atomic      Atomic             Coordinates (Angstroms)
 Number     Number       Type             X           Y           Z
 ---------------------------------------------------------------------
      1          8           0        2.347033   -0.645500    0.872064
      2          6           0        1.655149   -0.394179   -0.352803
      3          6           0        1.297930    1.099065   -0.493665
      4          8           0        0.149319    1.456766    0.278204
      5          6           0       -0.965515    0.795305   -0.269702
      6          6           0       -2.179158    0.438318    0.633007
      7          6           0       -2.197832   -0.979188   -0.045766
      8          6           0       -0.766675   -0.687379   -0.447692
      9          6           0        0.422927   -1.272665   -0.422943
     10          1           0        1.730648   -0.418349    1.578547
     11          1           0        2.377659   -0.648179   -1.137531
     12          1           0        2.130227    1.697109   -0.116169
     13          1           0        1.131858    1.351178   -1.553822
     14          1           0       -1.299378    1.304483   -1.190419
     15          1           0       -1.868367    0.372794    1.677577
     16          1           0       -3.072061    1.059845    0.545698
     17          1           0       -2.377973   -1.849084    0.589064
     18          1           0       -2.890358   -1.012271   -0.893329
     19          1           0        0.565981   -2.343324   -0.304374
 ---------------------------------------------------------------------

 SCF Done:  E(RB3LYP) =  -423.170135744     A.U. after    1 cycles

 The electronic state is 1-A.
 Alpha  occ. eigenvalues --  -19.14475 -19.13080 -10.23408 -10.23330 -10.22663
 Alpha  occ. eigenvalues --  -10.19811 -10.19469 -10.18949 -10.17908  -1.04216
 Alpha  occ. eigenvalues --   -1.00994  -0.85581  -0.77313  -0.70536  -0.66294
 Alpha  occ. eigenvalues --   -0.62173  -0.59729  -0.53197  -0.50905  -0.49356
 Alpha  occ. eigenvalues --   -0.47178  -0.45649  -0.44132  -0.41329  -0.39768
 Alpha  occ. eigenvalues --   -0.38557  -0.36884  -0.34914  -0.34822  -0.31810
 Alpha  occ. eigenvalues --   -0.30946  -0.28428  -0.24845  -0.24124
 Alpha virt. eigenvalues --    0.00714   0.09149   0.10073   0.11603   0.12415
 Alpha virt. eigenvalues --    0.13421   0.13914   0.14744   0.15838   0.16274
 Alpha virt. eigenvalues --    0.17900   0.19193   0.19505   0.21015   0.22963

 Mulliken charges:
               1
     1  O   -0.431902
     2  C    0.094476
     3  C   -0.122434
     4  O   -0.270621
     5  C    0.086156
     6  C   -0.261185
     7  C   -0.321552
     8  C    0.298822
     9  C   -0.273171
    10  H    0.278768
    11  H    0.090283
    12  H    0.116877
    13  H    0.088918
    14  H    0.072170
    15  H    0.118890
    16  H    0.106132
    17  H    0.117771
    18  H    0.116475
    19  H    0.095128
 Sum of Mulliken charges =   0.00000

 Dipole moment (field-independent basis, Debye):
    X=             -1.8016    Y=             -0.2489    Z=             -0.6671  Tot=              1.9372
 Quadrupole moment (field-independent basis, Debye-Ang):
   XX=            -54.4331   YY=            -54.9441   ZZ=            -51.3556
   XY=              2.1663   XZ=             -2.1781   YZ=             -1.3572

  Exact polarizability:  99.187  -2.926  73.035  -1.663  -1.359  63.061
 Approx polarizability: 139.875 -11.218 106.979   1.430  -0.445  99.140

                      1                      2                      3
                      A                      A                      A
 Frequencies --     94.4870               181.2732               208.9651
 Red. masses --      3.8650                 2.5651                 3.3326
 Frc consts  --      0.0203                 0.0497                 0.0857
 IR Inten    --      1.3686                 0.6882                 6.0563

                      4                      5                      6
                      A                      A                      A
 Frequencies --    310.3924               355.4972               383.3455
 Red. masses --      2.5673                 2.5428                 1.2579
 Frc consts  --      0.1457                 0.1893                 0.1089
 IR Inten    --     16.0733                 0.5432                54.0836

                      7                      8                      9
                      A                      A                      A
 Frequencies --    444.3004               449.1773               489.9533
 Red. masses --      3.8981                 2.3664                 5.1295
 Frc consts  --      0.4534                 0.2813                 0.7255
 IR Inten    --      4.7276                17.2002                11.2629

                     10                     11                     12
                      A                      A                      A
 Frequencies --    576.3855               687.8014               745.1657
 Red. masses --      3.5520                 2.0819                 3.1169
 Frc consts  --      0.6953                 0.5803                 1.0197
 IR Inten    --      4.6020                 4.3745                 3.1146

                     13                     14                     15
                      A                      A                      A
 Frequencies --    780.1384               813.7891               856.9105
 Red. masses --      1.5307                 3.2335                 2.7588
 Frc consts  --      0.5489                 1.2617                 1.1936
 IR Inten    --      3.4050                 9.8459                10.7347

                     16                     17                     18
                      A                      A                      A
 Frequencies --    879.6601               911.6720               944.6606
 Red. masses --      1.4564                 3.0168                 2.1459
 Frc consts  --      0.6640                 1.4773                 1.1282
 IR Inten    --     24.5134                 1.9241                11.8969

                     19                     20                     21
                      A                      A                      A
 Frequencies --    973.4029               994.9863              1043.4880
 Red. masses --      2.5015                 2.7984                 2.2017
 Frc consts  --      1.3965                 1.6323                 1.4125
 IR Inten    --     10.8850                37.7887                20.4959

                     22                     23                     24
                      A                      A                      A
 Frequencies --   1063.8029              1091.8817              1112.9588
 Red. masses --      2.5111                 1.9501                 1.8347
 Frc consts  --      1.6743                 1.3698                 1.3390
 IR Inten    --     44.0549                 7.8318                17.3116

                     25                     26                     27
                      A                      A                      A
 Frequencies --   1132.2700              1148.5745              1184.4357
 Red. masses --      2.2536                 3.6952                 1.3256
 Frc consts  --      1.7023                 2.8721                 1.0957
 IR Inten    --     39.8917                50.1427                 0.4522

                     28                     29                     30
                      A                      A                      A
 Frequencies --   1224.9322              1252.6927              1258.0965
 Red. masses --      1.1763                 1.3892                 1.3104
 Frc consts  --      1.0399                 1.2844                 1.2221
 IR Inten    --      2.6011                 7.2055                22.8556

                     31                     32                     33
                      A                      A                      A
 Frequencies --   1265.4521              1304.9973              1321.0651
 Red. masses --      1.4867                 1.4884                 1.6580
 Frc consts  --      1.4027                 1.4935                 1.7049
 IR Inten    --      6.5745                 3.6014                13.3518

                     34                     35                     36
                      A                      A                      A
 Frequencies --   1335.1205              1369.1406              1403.8218
 Red. masses --      1.4388                 1.3725                 1.3277
 Frc consts  --      1.5111                 1.5159                 1.5416
 IR Inten    --      8.4306                 9.9946                 6.7072

                     37                     38                     39
                      A                      A                      A
 Frequencies --   1422.6600              1475.0017              1484.1076
 Red. masses --      1.2392                 1.0880                 1.0921
 Frc consts  --      1.4777                 1.3946                 1.4173
 IR Inten    --     68.7768                 2.5382                 1.2255

                     40                     41                     42
                      A                      A                      A
 Frequencies --   1489.2198              1765.6610              2949.4572
 Red. masses --      1.1347                 8.8205                 1.0814
 Frc consts  --      1.4827                16.2015                 5.5426
 IR Inten    --      6.0266                 4.8440                50.2472

                     43                     44                     45
                      A                      A                      A
 Frequencies --   2974.4799              3044.7698              3051.3454
 Red. masses --      1.0703                 1.0843                 1.0618
 Frc consts  --      5.5790                 5.9223                 5.8249
 IR Inten    --     57.9740                44.6462                31.5455

                     46                     47                     48
                      A                      A                      A
 Frequencies --   3075.5178              3109.2135              3110.6653
 Red. masses --      1.0576                 1.0940                 1.1030
 Frc consts  --      5.8940                 6.2309                 6.2885
 IR Inten    --     33.4790                25.2181                12.3058

                     49                     50                     51
                      A                      A                      A
 Frequencies --   3139.9967              3164.8206              3791.0982
 Red. masses --      1.1093                 1.0917                 1.0657
 Frc consts  --      6.4442                 6.4422                 9.0245
 IR Inten    --     27.3013                13.6937                12.7147

 - Thermochemistry -
 -------------------
 Temperature   298.150 Kelvin.  Pressure   1.00000 Atm.
 Atom     1 has atomic number  8 and mass  15.99491

 Molecular mass:   126.06808 amu.
 Principal axes and moments of inertia in atomic units:
                           1         2         3
     Eigenvalues --   577.979731288.055151580.11333
           X            0.99976   0.01561  -0.01514
           Y           -0.01599   0.99955  -0.02531
           Z            0.01474   0.02555   0.99956
 This molecule is an asymmetric top.
 Rotational symmetry number  1.
 Warning -- assumption of classical behavior for rotation
           may cause significant error
 Rotational temperatures (Kelvin)      0.14986     0.06724     0.05481
 Rotational constants (GHZ):           3.12250     1.40114     1.14216
 Zero-point vibrational energy     422537.2 (Joules/Mol)
                                  100.98882 (Kcal/Mol)
 Warning -- explicit consideration of  10 degrees of freedom as
           vibrations may cause significant error
 Vibrational temperatures:    135.95   260.81   300.65   446.58   511.48
          (Kelvin)            551.55   639.25   646.27   704.93   829.29
                              989.59  1072.13  1122.44  1170.86  1232.90
                             1265.63  1311.69  1359.15  1400.51  1431.56
                             1501.34  1530.57  1570.97  1601.30  1629.08
                             1652.54  1704.14  1762.40  1802.34  1810.12
                             1820.70  1877.60  1900.72  1920.94  1969.89
                             2019.78  2046.89  2122.20  2135.30  2142.65
                             2540.39  4243.61  4279.61  4380.74  4390.20
                             4424.98  4473.46  4475.55  4517.75  4553.47
                             5454.54

 Zero-point correction=                           0.160936 (Hartree/Particle)
 Thermal correction to Energy=                    0.168643
 Thermal correction to Enthalpy=                  0.169587
 Thermal correction to Gibbs Free Energy=         0.128865
 Sum of electronic and zero-point Energies=           -423.009200
 Sum of electronic and thermal Energies=              -423.001493
 Sum of electronic and thermal Enthalpies=            -423.000548
 Sum of electronic and thermal Free Energies=         -423.041271

                     E (Thermal)             CV                S
                      KCal/Mol        Cal/Mol-Kelvin    Cal/Mol-Kelvin
 Total                  105.825             30.750             85.707
 Electronic               0.000              0.000              0.000
 Translational            0.889              2.981             40.409
 Rotational               0.889              2.981             28.555
 Vibrational            104.048             24.788             16.743
 Vibration     1          0.603              1.953              3.565
 Vibration     2          0.630              1.865              2.315
 Vibration     3          0.642              1.827              2.053
 Vibration     4          0.699              1.654              1.360
 Vibration     5          0.731              1.564              1.142
 Vibration     6          0.753              1.506              1.026
 Vibration     7          0.804              1.373              0.813
 Vibration     8          0.808              1.363              0.798
 Vibration     9          0.846              1.272              0.684
 Vibration    10          0.933              1.082              0.492

 Optimization completed.
    -- Stationary point found.
 Normal termination of Gaussian 09 at Tue Jan 28 08:52:17 2020.
