 Gaussian 09, Revision D.01,
 Gaussian 09:  ES64L-G09RevD.01 24-Apr-2013

 -----------------------------
 # b3lyp 6-31G(2df,p) opt Freq
 -----------------------------

 -----
 titel
 -----
 Symbolic Z-matrix:
 Charge =  0 Multiplicity = 1

 SCF Done:  E(RB3LYP) =  -423.141545148     A.U. after   14 cycles
 SCF Done:  E(RB3LYP) =  -423.141545424     A.U. after    6 cycles
 Optimization completed.
    -- Stationary point found.
 Normal termination of Gaussian 09 at Mon Jan 27 23:02:04 2020.

 ----------------------------------------------------------------------
 #N Geom=AllCheck Guess=TCheck SCRF=Check GenChk RB3LYP/6-31G(2df,p) Fr
 eq
 ----------------------------------------------------------------------

 Structure from the checkpoint file:  "/scratch/puck/g09_599f1207-9800-4fbb-9851-7aa6a56db585/Gau-183462.chk"
 -----
 titel
 -----
 Charge =  0 Multiplicity = 1

                         Standard orientation:
 ---------------------------------------------------------------------
 Center     Atomic      Atomic             Coordinates (Angstroms)
 Number     Number       Type             X           Y           Z
 ---------------------------------------------------------------------
      1          6           0       -0.410362    2.185679   -0.026318
      2          6           0        0.039073    0.889273    0.640485
      3          6           0        1.476500    0.446676    0.258175
      4          6           0        1.558215   -1.025974    0.718446
      5          6           0        0.562551   -1.122253   -0.460667
      6          8           0        1.296436   -0.035875   -1.113918
      7          6           0       -0.654181   -0.377190    0.075943
      8          6           0       -1.910285   -0.977634    0.520256
      9          8           0       -1.820142   -0.269337   -0.725651
     10          1           0       -1.486037    2.336682    0.097282
     11          1           0        0.109753    3.046506    0.406398
     12          1           0       -0.199018    2.149217   -1.097904
     13          1           0       -0.075044    0.954557    1.728264
     14          1           0        2.289589    1.163574    0.373321
     15          1           0        2.518499   -1.481710    0.476696
     16          1           0        1.223376   -1.292564    1.724674
     17          1           0        0.406967   -2.006144   -1.077989
     18          1           0       -2.068202   -2.052581    0.433164
     19          1           0       -2.499306   -0.487304    1.294724
 ---------------------------------------------------------------------

 SCF Done:  E(RB3LYP) =  -423.141545424     A.U. after    1 cycles

 The electronic state is 1-A.
 Alpha  occ. eigenvalues --  -19.15152 -19.13693 -10.24125 -10.24077 -10.24064
 Alpha  occ. eigenvalues --  -10.23499 -10.19461 -10.19362 -10.17043  -1.07621
 Alpha  occ. eigenvalues --   -1.04771  -0.80122  -0.74603  -0.69613  -0.66593
 Alpha  occ. eigenvalues --   -0.65051  -0.56158  -0.54717  -0.52467  -0.49064
 Alpha  occ. eigenvalues --   -0.47140  -0.44271  -0.43107  -0.42309  -0.39703
 Alpha  occ. eigenvalues --   -0.37696  -0.37668  -0.35623  -0.34032  -0.32583
 Alpha  occ. eigenvalues --   -0.32004  -0.29755  -0.27388  -0.24300
 Alpha virt. eigenvalues --    0.08093   0.09736   0.10253   0.10637   0.11631
 Alpha virt. eigenvalues --    0.13089   0.13840   0.14858   0.16498   0.17069
 Alpha virt. eigenvalues --    0.17243   0.17483   0.18790   0.19063   0.20389

 Mulliken charges:
               1
     1  C   -0.400335
     2  C   -0.099037
     3  C    0.067883
     4  C   -0.247776
     5  C   -0.013065
     6  O   -0.295216
     7  C    0.495071
     8  C   -0.283532
     9  O   -0.281031
    10  H    0.123718
    11  H    0.106081
    12  H    0.140437
    13  H    0.075600
    14  H    0.082185
    15  H    0.115811
    16  H    0.097722
    17  H    0.087653
    18  H    0.113088
    19  H    0.114742
 Sum of Mulliken charges =   0.00000

 Dipole moment (field-independent basis, Debye):
    X=              0.4998    Y=             -0.8577    Z=              2.8449  Tot=              3.0131
 Quadrupole moment (field-independent basis, Debye-Ang):
   XX=            -54.0309   YY=            -49.5186   ZZ=            -55.4578
   XY=              1.0602   XZ=             -0.7783   YZ=              0.6034

  Exact polarizability:  80.124   2.315  78.549  -1.514   0.401  63.916
 Approx polarizability: 111.321   5.306 107.528  -2.157  -0.810 106.538

                      1                      2                      3
                      A                      A                      A
 Frequencies --    121.2617               205.7290               229.6249
 Red. masses --      3.5580                 1.0452                 3.2506
 Frc consts  --      0.0308                 0.0261                 0.1010
 IR Inten    --      1.0809                 0.0788                 3.9581

                      4                      5                      6
                      A                      A                      A
 Frequencies --    245.2858               286.3097               374.0592
 Red. masses --      3.2578                 2.7018                 3.4326
 Frc consts  --      0.1155                 0.1305                 0.2830
 IR Inten    --      0.2980                 0.5890                 1.3351

                      7                      8                      9
                      A                      A                      A
 Frequencies --    457.6586               503.1761               561.8968
 Red. masses --      2.4753                 4.5998                 3.5799
 Frc consts  --      0.3055                 0.6862                 0.6659
 IR Inten    --      1.7800                 0.2985                 9.3049

                     10                     11                     12
                      A                      A                      A
 Frequencies --    624.4816               747.7158               797.4511
 Red. masses --      4.3663                 2.9907                 2.6027
 Frc consts  --      1.0032                 0.9851                 0.9752
 IR Inten    --     17.2718                 8.8947                 0.1727

                     13                     14                     15
                      A                      A                      A
 Frequencies --    828.9118               864.9600               871.2394
 Red. masses --      1.8363                 3.5251                 2.5992
 Frc consts  --      0.7434                 1.5539                 1.1624
 IR Inten    --      7.2466                10.1279                23.6588

                     16                     17                     18
                      A                      A                      A
 Frequencies --    891.0763               916.7813               945.3555
 Red. masses --      3.5289                 2.8478                 2.4086
 Frc consts  --      1.6509                 1.4102                 1.2683
 IR Inten    --     27.3896                 9.5805                20.6248

                     19                     20                     21
                      A                      A                      A
 Frequencies --    973.9101              1007.7651              1029.3376
 Red. masses --      4.5310                 1.5232                 1.6542
 Frc consts  --      2.5321                 0.9114                 1.0327
 IR Inten    --     31.3830                 8.6594                 0.7096

                     22                     23                     24
                      A                      A                      A
 Frequencies --   1050.8257              1072.9646              1102.6786
 Red. masses --      1.4966                 2.2534                 1.4874
 Frc consts  --      0.9737                 1.5284                 1.0655
 IR Inten    --      3.0417                 3.7418                 3.0682

                     25                     26                     27
                      A                      A                      A
 Frequencies --   1121.7652              1137.2396              1165.5311
 Red. masses --      1.2668                 1.8246                 1.3947
 Frc consts  --      0.9392                 1.3903                 1.1163
 IR Inten    --      1.4664                 1.3959                 0.9752

                     28                     29                     30
                      A                      A                      A
 Frequencies --   1187.8354              1206.4896              1224.3075
 Red. masses --      1.6342                 2.2650                 1.4901
 Frc consts  --      1.3585                 1.9425                 1.3159
 IR Inten    --      5.6380                 4.1838                 5.4295

                     31                     32                     33
                      A                      A                      A
 Frequencies --   1253.2365              1268.8951              1288.4103
 Red. masses --      1.5476                 1.6915                 1.5854
 Frc consts  --      1.4321                 1.6047                 1.5506
 IR Inten    --      5.4997                 2.3550                 3.0004

                     34                     35                     36
                      A                      A                      A
 Frequencies --   1311.0506              1360.1495              1405.4415
 Red. masses --      1.4614                 1.6490                 1.2673
 Frc consts  --      1.4800                 1.7974                 1.4749
 IR Inten    --      4.5171                 0.8672                 5.1460

                     37                     38                     39
                      A                      A                      A
 Frequencies --   1442.4727              1484.2711              1488.9634
 Red. masses --      2.1245                 1.1272                 1.0561
 Frc consts  --      2.6045                 1.4631                 1.3795
 IR Inten    --      7.2672                 1.6730                 5.6659

                     40                     41                     42
                      A                      A                      A
 Frequencies --   1503.2657              1539.7835              3040.7029
 Red. masses --      1.0509                 1.6084                 1.0536
 Frc consts  --      1.3992                 2.2467                 5.7396
 IR Inten    --      3.7206                 6.0367                19.4746

                     43                     44                     45
                      A                      A                      A
 Frequencies --   3044.3695              3065.3240              3075.3402
 Red. masses --      1.0657                 1.0599                 1.0506
 Frc consts  --      5.8192                 5.8677                 5.8543
 IR Inten    --     22.3531                33.4372                29.8556

                     46                     47                     48
                      A                      A                      A
 Frequencies --   3111.2051              3121.6258              3129.3397
 Red. masses --      1.1001                 1.0916                 1.1014
 Frc consts  --      6.2739                 6.2670                 6.3547
 IR Inten    --     15.0168                48.0684                13.3858

                     49                     50                     51
                      A                      A                      A
 Frequencies --   3135.4054              3146.3920              3159.6042
 Red. masses --      1.0936                 1.1054                 1.1190
 Frc consts  --      6.3342                 6.4474                 6.5816
 IR Inten    --     19.7402                22.7719                23.8006

 - Thermochemistry -
 -------------------
 Temperature   298.150 Kelvin.  Pressure   1.00000 Atm.
 Atom     1 has atomic number  6 and mass  12.00000

 Molecular mass:   126.06808 amu.
 Principal axes and moments of inertia in atomic units:
                           1         2         3
     Eigenvalues --   722.04264 974.638771291.61210
           X            0.99973  -0.02298  -0.00243
           Y            0.02295   0.99967  -0.01138
           Z            0.00269   0.01132   0.99993
 This molecule is an asymmetric top.
 Rotational symmetry number  1.
 Warning -- assumption of classical behavior for rotation
           may cause significant error
 Rotational temperatures (Kelvin)      0.11996     0.08887     0.06706
 Rotational constants (GHZ):           2.49949     1.85170     1.39728
 Zero-point vibrational energy     419463.8 (Joules/Mol)
                                  100.25426 (Kcal/Mol)
 Warning -- explicit consideration of   9 degrees of freedom as
           vibrations may cause significant error
 Vibrational temperatures:    174.47   296.00   330.38   352.91   411.94
          (Kelvin)            538.19   658.47   723.96   808.44   898.49
                             1075.79  1147.35  1192.62  1244.48  1253.52
                             1282.06  1319.04  1360.15  1401.24  1449.95
                             1480.99  1511.90  1543.75  1586.51  1613.97
                             1636.23  1676.94  1709.03  1735.87  1761.50
                             1803.13  1825.65  1853.73  1886.31  1956.95
                             2022.11  2075.39  2135.53  2142.28  2162.86
                             2215.40  4374.89  4380.16  4410.31  4424.72
                             4476.32  4491.32  4502.42  4511.14  4526.95
                             4545.96

 Zero-point correction=                           0.159765 (Hartree/Particle)
 Thermal correction to Energy=                    0.167348
 Thermal correction to Enthalpy=                  0.168292
 Thermal correction to Gibbs Free Energy=         0.128016
 Sum of electronic and zero-point Energies=           -422.981780
 Sum of electronic and thermal Energies=              -422.974197
 Sum of electronic and thermal Enthalpies=            -422.973253
 Sum of electronic and thermal Free Energies=         -423.013529

                     E (Thermal)             CV                S
                      KCal/Mol        Cal/Mol-Kelvin    Cal/Mol-Kelvin
 Total                  105.012             30.336             84.768
 Electronic               0.000              0.000              0.000
 Translational            0.889              2.981             40.409
 Rotational               0.889              2.981             28.299
 Vibrational            103.235             24.374             16.060
 Vibration     1          0.609              1.931              3.080
 Vibration     2          0.640              1.832              2.081
 Vibration     3          0.652              1.796              1.882
 Vibration     4          0.660              1.771              1.764
 Vibration     5          0.684              1.699              1.496
 Vibration     6          0.745              1.525              1.063
 Vibration     7          0.816              1.344              0.773
 Vibration     8          0.858              1.243              0.650
 Vibration     9          0.918              1.114              0.520

 Optimization completed.
    -- Stationary point found.
 Normal termination of Gaussian 09 at Mon Jan 27 23:47:02 2020.
