 Gaussian 09, Revision D.01,
 Gaussian 09:  ES64L-G09RevD.01 24-Apr-2013

 -----------------------------
 # b3lyp 6-31G(2df,p) opt Freq
 -----------------------------

 -----
 titel
 -----
 Symbolic Z-matrix:
 Charge =  0 Multiplicity = 1

 SCF Done:  E(RB3LYP) =  -423.162667180     A.U. after   14 cycles
 Optimization completed.
    -- Stationary point found.
 Normal termination of Gaussian 09 at Tue Jan 28 04:00:02 2020.

 ----------------------------------------------------------------------
 #N Geom=AllCheck Guess=TCheck SCRF=Check GenChk RB3LYP/6-31G(2df,p) Fr
 eq
 ----------------------------------------------------------------------

 Structure from the checkpoint file:  "/scratch/puck/g09_851d4713-b72e-4029-af18-a818b90e6067/Gau-68099.chk"
 -----
 titel
 -----
 Charge =  0 Multiplicity = 1

                         Standard orientation:
 ---------------------------------------------------------------------
 Center     Atomic      Atomic             Coordinates (Angstroms)
 Number     Number       Type             X           Y           Z
 ---------------------------------------------------------------------
      1          6           0       -1.817035    1.715122   -0.012595
      2          6           0       -1.697690    0.225072    0.264973
      3          6           0       -1.813416   -0.751292   -0.931404
      4          8           0       -0.530181   -1.349860   -0.622590
      5          6           0       -0.304885   -0.395402    0.406749
      6          6           0        0.536476   -0.698801    1.576377
      7          6           0        1.027036    0.331092    0.540467
      8          6           0        2.144808   -0.050821   -0.349995
      9          8           0        2.953889    0.725871   -0.797633
     10          1           0       -1.548680    2.307474    0.868497
     11          1           0       -1.162477    2.018601   -0.835575
     12          1           0       -2.845830    1.975324   -0.282301
     13          1           0       -2.350155   -0.065167    1.094073
     14          1           0       -2.620671   -1.489114   -0.892427
     15          1           0       -1.805377   -0.267174   -1.915678
     16          1           0        0.255246   -0.323743    2.554558
     17          1           0        1.043975   -1.659166    1.579842
     18          1           0        1.002345    1.380884    0.814003
     19          1           0        2.190202   -1.135838   -0.590648
 ---------------------------------------------------------------------

 SCF Done:  E(RB3LYP) =  -423.162667180     A.U. after    1 cycles

 The electronic state is 1-A.
 Alpha  occ. eigenvalues --  -19.14972 -19.12523 -10.26244 -10.25981 -10.24150
 Alpha  occ. eigenvalues --  -10.21070 -10.20472 -10.20136 -10.19185  -1.05881
 Alpha  occ. eigenvalues --   -1.03263  -0.86892  -0.79012  -0.68407  -0.67207
 Alpha  occ. eigenvalues --   -0.63976  -0.58081  -0.54435  -0.51160  -0.49198
 Alpha  occ. eigenvalues --   -0.47528  -0.44009  -0.43209  -0.42355  -0.41479
 Alpha  occ. eigenvalues --   -0.40257  -0.38931  -0.37587  -0.36431  -0.34498
 Alpha  occ. eigenvalues --   -0.31697  -0.29580  -0.25418  -0.23444
 Alpha virt. eigenvalues --   -0.01412   0.06644   0.08242   0.10015   0.10966
 Alpha virt. eigenvalues --    0.12111   0.13615   0.14421   0.15192   0.16138
 Alpha virt. eigenvalues --    0.16404   0.17165   0.18142   0.19679   0.21911

 Mulliken charges:
               1
     1  C   -0.413323
     2  C   -0.116783
     3  C   -0.085493
     4  O   -0.303651
     5  C    0.445176
     6  C   -0.377674
     7  C   -0.192370
     8  C    0.171852
     9  O   -0.274896
    10  H    0.124035
    11  H    0.132579
    12  H    0.123377
    13  H    0.092068
    14  H    0.112065
    15  H    0.109689
    16  H    0.129707
    17  H    0.135373
    18  H    0.106729
    19  H    0.081541
 Sum of Mulliken charges =   0.00000

 Dipole moment (field-independent basis, Debye):
    X=             -3.7032    Y=             -0.0908    Z=              1.8723  Tot=              4.1506
 Quadrupole moment (field-independent basis, Debye-Ang):
   XX=            -58.9535   YY=            -54.8219   ZZ=            -51.9548
   XY=             -4.6690   XZ=              4.3676   YZ=              0.2538

  Exact polarizability:  89.198   2.720  72.668  -1.365  -1.451  71.116
 Approx polarizability: 121.452  11.013 109.319  -7.253  -4.538 106.522

                      1                      2                      3
                      A                      A                      A
 Frequencies --     60.3368                83.5644               131.5091
 Red. masses --      2.7548                 5.0038                 5.4729
 Frc consts  --      0.0059                 0.0206                 0.0558
 IR Inten    --      0.9488                 2.8127                 3.2977

                      4                      5                      6
                      A                      A                      A
 Frequencies --    186.7014               220.5532               243.0894
 Red. masses --      1.9357                 1.6918                 1.6883
 Frc consts  --      0.0398                 0.0485                 0.0588
 IR Inten    --      2.5647                 1.5784                 0.9799

                      7                      8                      9
                      A                      A                      A
 Frequencies --    331.5183               385.9784               439.8999
 Red. masses --      2.2523                 2.3150                 3.4477
 Frc consts  --      0.1458                 0.2032                 0.3931
 IR Inten    --      2.4058                 2.5071                 2.2329

                     10                     11                     12
                      A                      A                      A
 Frequencies --    450.5595               553.7349               583.2382
 Red. masses --      3.7554                 3.4465                 4.6448
 Frc consts  --      0.4492                 0.6226                 0.9309
 IR Inten    --     10.0990                 1.2818                 6.1273

                     13                     14                     15
                      A                      A                      A
 Frequencies --    737.9331               843.0229               862.3669
 Red. masses --      2.9273                 1.3021                 2.0471
 Frc consts  --      0.9392                 0.5452                 0.8969
 IR Inten    --      0.3347                23.0638                41.8894

                     16                     17                     18
                      A                      A                      A
 Frequencies --    871.4588               895.9603               927.4278
 Red. masses --      2.6107                 2.1098                 1.2300
 Frc consts  --      1.1682                 0.9978                 0.6233
 IR Inten    --      7.3892                 2.4649                 5.1375

                     19                     20                     21
                      A                      A                      A
 Frequencies --    969.5829              1010.8662              1031.7458
 Red. masses --      2.3289                 6.6747                 2.4599
 Frc consts  --      1.2899                 4.0185                 1.5428
 IR Inten    --     11.6103               121.9248                49.5310

                     22                     23                     24
                      A                      A                      A
 Frequencies --   1045.3000              1063.1617              1089.4191
 Red. masses --      1.5285                 1.6227                 1.7022
 Frc consts  --      0.9840                 1.0807                 1.1903
 IR Inten    --     17.0818                 5.5982                16.0204

                     25                     26                     27
                      A                      A                      A
 Frequencies --   1123.4273              1149.6698              1168.8567
 Red. masses --      2.0017                 1.4576                 1.8397
 Frc consts  --      1.4884                 1.1351                 1.4808
 IR Inten    --      3.5047                 6.3519                34.9908

                     28                     29                     30
                      A                      A                      A
 Frequencies --   1186.4008              1204.2239              1263.4822
 Red. masses --      1.5750                 2.1255                 1.4769
 Frc consts  --      1.3062                 1.8161                 1.3891
 IR Inten    --      0.4530                14.8549                11.2291

                     31                     32                     33
                      A                      A                      A
 Frequencies --   1276.1915              1341.7901              1362.7367
 Red. masses --      1.6391                 1.3707                 1.6940
 Frc consts  --      1.5728                 1.4540                 1.8535
 IR Inten    --     13.7113                 7.1752                20.5721

                     34                     35                     36
                      A                      A                      A
 Frequencies --   1404.3352              1413.1178              1444.8951
 Red. masses --      1.6933                 1.2464                 1.2447
 Frc consts  --      1.9675                 1.4665                 1.5310
 IR Inten    --      6.6239                 2.8069                 3.6337

                     37                     38                     39
                      A                      A                      A
 Frequencies --   1476.0686              1494.7751              1498.4595
 Red. masses --      1.6365                 1.0477                 1.0993
 Frc consts  --      2.1008                 1.3792                 1.4544
 IR Inten    --     25.4195                 6.7544                11.2546

                     40                     41                     42
                      A                      A                      A
 Frequencies --   1525.6462              1812.2866              2890.3874
 Red. masses --      1.1678                 9.7903                 1.0826
 Frc consts  --      1.6015                18.9452                 5.3288
 IR Inten    --      1.3756               263.3589                71.5906

                     43                     44                     45
                      A                      A                      A
 Frequencies --   3024.8378              3034.1687              3057.1030
 Red. masses --      1.0577                 1.0360                 1.0871
 Frc consts  --      5.7020                 5.6195                 5.9858
 IR Inten    --     59.1871                19.7045                 6.8241

                     46                     47                     48
                      A                      A                      A
 Frequencies --   3084.3151              3100.2907              3111.3020
 Red. masses --      1.1067                 1.1010                 1.1019
 Frc consts  --      6.2027                 6.2350                 6.2844
 IR Inten    --     42.5134                20.1105                29.3309

                     49                     50                     51
                      A                      A                      A
 Frequencies --   3125.2020              3170.8675              3216.6538
 Red. masses --      1.0539                 1.0894                 1.1165
 Frc consts  --      6.0649                 6.4532                 6.8062
 IR Inten    --      5.8669                 3.3001                 2.3270

 - Thermochemistry -
 -------------------
 Temperature   298.150 Kelvin.  Pressure   1.00000 Atm.
 Atom     1 has atomic number  6 and mass  12.00000

 Molecular mass:   126.06808 amu.
 Principal axes and moments of inertia in atomic units:
                           1         2         3
     Eigenvalues --   686.832781594.562511698.39132
           X            0.99905  -0.03917   0.01898
           Y            0.03935   0.99919  -0.00884
           Z           -0.01862   0.00958   0.99978
 This molecule is an asymmetric top.
 Rotational symmetry number  1.
 Warning -- assumption of classical behavior for rotation
           may cause significant error
 Rotational temperatures (Kelvin)      0.12611     0.05432     0.05100
 Rotational constants (GHZ):           2.62763     1.13181     1.06262
 Zero-point vibrational energy     412594.5 (Joules/Mol)
                                   98.61246 (Kcal/Mol)
 Warning -- explicit consideration of  12 degrees of freedom as
           vibrations may cause significant error
 Vibrational temperatures:     86.81   120.23   189.21   268.62   317.33
          (Kelvin)            349.75   476.98   555.34   632.92   648.25
                              796.70   839.15  1061.72  1212.92  1240.75
                             1253.83  1289.09  1334.36  1395.01  1454.41
                             1484.45  1503.95  1529.65  1567.43  1616.36
                             1654.12  1681.72  1706.96  1732.61  1817.87
                             1836.15  1930.53  1960.67  2020.52  2033.16
                             2078.88  2123.73  2150.65  2155.95  2195.06
                             2607.47  4158.62  4352.06  4365.49  4398.48
                             4437.64  4460.62  4476.46  4496.46  4562.17
                             4628.04

 Zero-point correction=                           0.157149 (Hartree/Particle)
 Thermal correction to Energy=                    0.166210
 Thermal correction to Enthalpy=                  0.167155
 Thermal correction to Gibbs Free Energy=         0.122750
 Sum of electronic and zero-point Energies=           -423.005518
 Sum of electronic and thermal Energies=              -422.996457
 Sum of electronic and thermal Enthalpies=            -422.995513
 Sum of electronic and thermal Free Energies=         -423.039917

                     E (Thermal)             CV                S
                      KCal/Mol        Cal/Mol-Kelvin    Cal/Mol-Kelvin
 Total                  104.299             33.113             93.457
 Electronic               0.000              0.000              0.000
 Translational            0.889              2.981             40.409
 Rotational               0.889              2.981             29.010
 Vibrational            102.521             27.151             24.038
 Vibration     1          0.597              1.973              4.446
 Vibration     2          0.600              1.960              3.805
 Vibration     3          0.612              1.922              2.924
 Vibration     4          0.632              1.858              2.260
 Vibration     5          0.647              1.810              1.955
 Vibration     6          0.659              1.774              1.780
 Vibration     7          0.714              1.613              1.253
 Vibration     8          0.755              1.500              1.016
 Vibration     9          0.800              1.383              0.827
 Vibration    10          0.809              1.360              0.794
 Vibration    11          0.909              1.132              0.536
 Vibration    12          0.940              1.068              0.479

 Optimization completed.
    -- Stationary point found.
 Normal termination of Gaussian 09 at Tue Jan 28 04:40:56 2020.
