 Gaussian 09, Revision D.01,
 Gaussian 09:  ES64L-G09RevD.01 24-Apr-2013

 -----------------------------
 # b3lyp 6-31G(2df,p) opt Freq
 -----------------------------

 -----
 titel
 -----
 Symbolic Z-matrix:
 Charge =  0 Multiplicity = 1

 SCF Done:  E(RB3LYP) =  -423.158076254     A.U. after   14 cycles
 Optimization completed.
    -- Stationary point found.
 Normal termination of Gaussian 09 at Mon Jan 27 18:19:16 2020.

 ----------------------------------------------------------------------
 #N Geom=AllCheck Guess=TCheck SCRF=Check GenChk RB3LYP/6-31G(2df,p) Fr
 eq
 ----------------------------------------------------------------------

 Structure from the checkpoint file:  "/scratch/puck/g09_6d13e245-923e-40f7-b040-e87870bbe4a2/Gau-35325.chk"
 -----
 titel
 -----
 Charge =  0 Multiplicity = 1

                         Standard orientation:
 ---------------------------------------------------------------------
 Center     Atomic      Atomic             Coordinates (Angstroms)
 Number     Number       Type             X           Y           Z
 ---------------------------------------------------------------------
      1          6           0       -2.319995   -0.906250    0.116552
      2          6           0       -0.907202   -0.449066   -0.022958
      3          8           0       -0.139317   -0.945336   -1.128835
      4          6           0        0.750254    0.218223   -1.045780
      5          6           0        2.015092   -0.199845   -0.305400
      6          6           0        1.463810   -0.703028    1.060792
      7          6           0        0.055804   -0.108251    1.128559
      8          6           0       -0.184770    0.867391    0.008440
      9          8           0       -0.528534    2.189526    0.183439
     10          1           0       -2.813437   -0.369235    0.931824
     11          1           0       -2.880190   -0.729462   -0.807581
     12          1           0       -2.364208   -1.978105    0.339611
     13          1           0        0.876942    0.696777   -2.019859
     14          1           0        2.573755   -0.966734   -0.848927
     15          1           0        2.669018    0.670925   -0.176026
     16          1           0        1.437107   -1.795890    1.096451
     17          1           0        2.078895   -0.363094    1.898639
     18          1           0       -0.419599    0.095218    2.082360
     19          1           0       -1.053444    2.471029   -0.574555
 ---------------------------------------------------------------------

 SCF Done:  E(RB3LYP) =  -423.158076254     A.U. after    1 cycles

 The electronic state is 1-A.
 Alpha  occ. eigenvalues --  -19.15625 -19.12935 -10.23414 -10.23132 -10.22957
 Alpha  occ. eigenvalues --  -10.18335 -10.18322 -10.17976 -10.17940  -1.05499
 Alpha  occ. eigenvalues --   -1.02832  -0.83667  -0.77635  -0.71869  -0.68585
 Alpha  occ. eigenvalues --   -0.58769  -0.56835  -0.55852  -0.50614  -0.48615
 Alpha  occ. eigenvalues --   -0.46436  -0.42196  -0.41582  -0.41104  -0.39491
 Alpha  occ. eigenvalues --   -0.38753  -0.36496  -0.35718  -0.34989  -0.34469
 Alpha  occ. eigenvalues --   -0.32522  -0.27102  -0.25483  -0.21620
 Alpha virt. eigenvalues --    0.06990   0.08954   0.11098   0.11875   0.12370
 Alpha virt. eigenvalues --    0.13987   0.14615   0.15655   0.16104   0.17370
 Alpha virt. eigenvalues --    0.18233   0.19420   0.20413   0.21942   0.22551

 Mulliken charges:
               1
     1  C   -0.506174
     2  C    0.375020
     3  O   -0.341406
     4  C    0.023816
     5  C   -0.213259
     6  C   -0.229924
     7  C   -0.161347
     8  C    0.250624
     9  O   -0.453228
    10  H    0.128705
    11  H    0.125175
    12  H    0.132938
    13  H    0.072901
    14  H    0.106025
    15  H    0.101935
    16  H    0.109435
    17  H    0.100465
    18  H    0.089404
    19  H    0.288894
 Sum of Mulliken charges =   0.00000

 Dipole moment (field-independent basis, Debye):
    X=             -0.5233    Y=              0.7169    Z=             -0.1195  Tot=              0.8955
 Quadrupole moment (field-independent basis, Debye-Ang):
   XX=            -49.0252   YY=            -54.9345   ZZ=            -52.5894
   XY=             -1.2917   XZ=              0.0512   YZ=             -5.4680

  Exact polarizability:  83.090   0.985  70.236   0.042  -3.200  70.589
 Approx polarizability: 108.471   2.470 108.810   1.015  -0.960 107.839

                      1                      2                      3
                      A                      A                      A
 Frequencies --    165.7301               182.3985               206.0542
 Red. masses --      2.7198                 1.0939                 1.7426
 Frc consts  --      0.0440                 0.0214                 0.0436
 IR Inten    --      0.3765                 0.3533                 0.4609

                      4                      5                      6
                      A                      A                      A
 Frequencies --    224.6359               281.8047               337.4030
 Red. masses --      3.2282                 2.5021                 2.9385
 Frc consts  --      0.0960                 0.1171                 0.1971
 IR Inten    --      5.6443                 4.0908                 7.5898

                      7                      8                      9
                      A                      A                      A
 Frequencies --    355.1224               440.2818               543.2744
 Red. masses --      1.3161                 3.4782                 4.2293
 Frc consts  --      0.0978                 0.3973                 0.7355
 IR Inten    --     86.6289                13.2688                 1.1553

                     10                     11                     12
                      A                      A                      A
 Frequencies --    591.2915               628.9915               704.6482
 Red. masses --      3.2480                 4.4751                 3.2275
 Frc consts  --      0.6691                 1.0431                 0.9442
 IR Inten    --      6.5153                 3.9801                 0.5972

                     13                     14                     15
                      A                      A                      A
 Frequencies --    741.3347               769.6785               854.1540
 Red. masses --      3.1180                 4.0870                 1.8536
 Frc consts  --      1.0096                 1.4265                 0.7968
 IR Inten    --      4.2433                 9.8005                 1.1179

                     16                     17                     18
                      A                      A                      A
 Frequencies --    874.8983               898.0223               917.3687
 Red. masses --      2.9444                 2.7911                 3.1967
 Frc consts  --      1.3279                 1.3262                 1.5851
 IR Inten    --     15.7177                 3.4669                10.8013

                     19                     20                     21
                      A                      A                      A
 Frequencies --    944.9745               954.0979               984.9068
 Red. masses --      1.6060                 2.4241                 2.1416
 Frc consts  --      0.8450                 1.3002                 1.2240
 IR Inten    --     17.6599                14.6527                36.0631

                     22                     23                     24
                      A                      A                      A
 Frequencies --   1030.6849              1058.7412              1094.0524
 Red. masses --      1.8447                 1.9694                 1.9357
 Frc consts  --      1.1546                 1.3006                 1.3651
 IR Inten    --      1.6547                 3.2398                 6.5014

                     25                     26                     27
                      A                      A                      A
 Frequencies --   1105.6212              1159.6453              1174.3048
 Red. masses --      1.5891                 1.4400                 2.1129
 Frc consts  --      1.1445                 1.1409                 1.7167
 IR Inten    --     18.7771                 9.1674                19.5220

                     28                     29                     30
                      A                      A                      A
 Frequencies --   1208.0786              1255.5708              1260.1069
 Red. masses --      1.6800                 1.6748                 1.6201
 Frc consts  --      1.4446                 1.5556                 1.5157
 IR Inten    --     16.0412                 4.2578                71.5423

                     31                     32                     33
                      A                      A                      A
 Frequencies --   1286.9903              1298.9299              1330.5521
 Red. masses --      1.6625                 1.7271                 1.5989
 Frc consts  --      1.6224                 1.7169                 1.6678
 IR Inten    --     10.8311                62.4069                19.6728

                     34                     35                     36
                      A                      A                      A
 Frequencies --   1332.9249              1361.7797              1412.4644
 Red. masses --      1.5342                 1.7552                 1.4249
 Frc consts  --      1.6060                 1.9177                 1.6749
 IR Inten    --      1.0739                11.2040                 5.8757

                     37                     38                     39
                      A                      A                      A
 Frequencies --   1471.9922              1473.8722              1491.9916
 Red. masses --      1.0709                 1.0854                 1.2421
 Frc consts  --      1.3672                 1.3892                 1.6290
 IR Inten    --      1.3096                 1.3463                 5.0604

                     40                     41                     42
                      A                      A                      A
 Frequencies --   1496.7041              1521.2779              3031.2981
 Red. masses --      1.1210                 2.7661                 1.0354
 Frc consts  --      1.4796                 3.7717                 5.6058
 IR Inten    --      0.6233                37.4190                30.4443

                     43                     44                     45
                      A                      A                      A
 Frequencies --   3037.9111              3056.8180              3086.2267
 Red. masses --      1.0632                 1.0601                 1.0966
 Frc consts  --      5.7812                 5.8365                 6.1542
 IR Inten    --     23.9093                42.1262                23.0569

                     46                     47                     48
                      A                      A                      A
 Frequencies --   3090.6893              3093.4028              3104.2667
 Red. masses --      1.0949                 1.1010                 1.1039
 Frc consts  --      6.1620                 6.2075                 6.2677
 IR Inten    --     31.5571                19.4955                33.5687

                     49                     50                     51
                      A                      A                      A
 Frequencies --   3114.6177              3176.5136              3787.5748
 Red. masses --      1.1002                 1.0899                 1.0660
 Frc consts  --      6.2881                 6.4793                 9.0104
 IR Inten    --     14.2051                 9.2405                21.1631

 - Thermochemistry -
 -------------------
 Temperature   298.150 Kelvin.  Pressure   1.00000 Atm.
 Atom     1 has atomic number  6 and mass  12.00000

 Molecular mass:   126.06808 amu.
 Principal axes and moments of inertia in atomic units:
                           1         2         3
     Eigenvalues --   769.645041017.644461218.01089
           X            0.99969   0.02448  -0.00335
           Y           -0.02469   0.99568  -0.08948
           Z            0.00114   0.08954   0.99598
 This molecule is an asymmetric top.
 Rotational symmetry number  1.
 Warning -- assumption of classical behavior for rotation
           may cause significant error
 Rotational temperatures (Kelvin)      0.11254     0.08511     0.07111
 Rotational constants (GHZ):           2.34490     1.77345     1.48171
 Zero-point vibrational energy     418732.9 (Joules/Mol)
                                  100.07957 (Kcal/Mol)
 Warning -- explicit consideration of  10 degrees of freedom as
           vibrations may cause significant error
 Vibrational temperatures:    238.45   262.43   296.47   323.20   405.45
          (Kelvin)            485.45   510.94   633.47   781.65   850.74
                              904.98  1013.83  1066.61  1107.39  1228.94
                             1258.78  1292.05  1319.89  1359.61  1372.73
                             1417.06  1482.92  1523.29  1574.10  1590.74
                             1668.47  1689.56  1738.15  1806.48  1813.01
                             1851.69  1868.87  1914.37  1917.78  1959.29
                             2032.22  2117.87  2120.57  2146.64  2153.42
                             2188.78  4361.36  4370.87  4398.07  4440.39
                             4446.81  4450.71  4466.34  4481.23  4570.29
                             5449.47

 Zero-point correction=                           0.159487 (Hartree/Particle)
 Thermal correction to Energy=                    0.167479
 Thermal correction to Enthalpy=                  0.168423
 Thermal correction to Gibbs Free Energy=         0.127521
 Sum of electronic and zero-point Energies=           -422.998589
 Sum of electronic and thermal Energies=              -422.990597
 Sum of electronic and thermal Enthalpies=            -422.989653
 Sum of electronic and thermal Free Energies=         -423.030555

                     E (Thermal)             CV                S
                      KCal/Mol        Cal/Mol-Kelvin    Cal/Mol-Kelvin
 Total                  105.095             31.793             86.085
 Electronic               0.000              0.000              0.000
 Translational            0.889              2.981             40.409
 Rotational               0.889              2.981             28.347
 Vibrational            103.317             25.831             17.329
 Vibration     1          0.624              1.885              2.483
 Vibration     2          0.630              1.864              2.304
 Vibration     3          0.641              1.831              2.078
 Vibration     4          0.649              1.804              1.921
 Vibration     5          0.681              1.707              1.523
 Vibration     6          0.718              1.601              1.224
 Vibration     7          0.731              1.565              1.143
 Vibration     8          0.800              1.382              0.826
 Vibration     9          0.898              1.154              0.558
 Vibration    10          0.949              1.050              0.465

 Optimization completed.
    -- Stationary point found.
 Normal termination of Gaussian 09 at Mon Jan 27 19:07:38 2020.
