 Gaussian 09, Revision D.01,
 Gaussian 09:  ES64L-G09RevD.01 24-Apr-2013

 -----------------------------
 # b3lyp 6-31G(2df,p) opt Freq
 -----------------------------

 -----
 titel
 -----
 Symbolic Z-matrix:
 Charge =  0 Multiplicity = 1

 SCF Done:  E(RB3LYP) =  -423.120002255     A.U. after   13 cycles
 Optimization completed.
    -- Stationary point found.
 Normal termination of Gaussian 09 at Tue Jan 28 12:39:47 2020.

 ----------------------------------------------------------------------
 #N Geom=AllCheck Guess=TCheck SCRF=Check GenChk RB3LYP/6-31G(2df,p) Fr
 eq
 ----------------------------------------------------------------------

 Structure from the checkpoint file:  "/scratch/puck/g09_231ba1fe-af92-42f2-8c2e-4aa58ff37d07/Gau-106745.chk"
 -----
 titel
 -----
 Charge =  0 Multiplicity = 1

                         Standard orientation:
 ---------------------------------------------------------------------
 Center     Atomic      Atomic             Coordinates (Angstroms)
 Number     Number       Type             X           Y           Z
 ---------------------------------------------------------------------
      1          6           0        2.759524   -0.849385    0.441585
      2          8           0        1.610090   -1.028315   -0.369412
      3          6           0        0.446415   -0.586614    0.244609
      4          6           0       -0.727477   -0.358057   -0.692653
      5          6           0       -2.053467   -0.734460   -0.315140
      6          6           0       -3.179081   -0.965573    0.047763
      7          6           0       -0.063445    0.819976    0.046823
      8          6           0        0.725001    1.827758   -0.751159
      9          8           0       -0.773503    1.379755    1.110919
     10          1           0        2.673744   -1.409032    1.384287
     11          1           0        3.610896   -1.233904   -0.124078
     12          1           0        2.930086    0.209230    0.678962
     13          1           0        0.220801   -1.037378    1.212215
     14          1           0       -0.478835   -0.440503   -1.746556
     15          1           0       -4.165711   -1.218690    0.348163
     16          1           0        1.378899    1.327692   -1.469111
     17          1           0        0.055068    2.504879   -1.290389
     18          1           0        1.341068    2.431873   -0.077418
     19          1           0       -1.703536    1.132439    1.020898
 ---------------------------------------------------------------------

 SCF Done:  E(RB3LYP) =  -423.120002255     A.U. after    1 cycles

 The electronic state is 1-A.
 Alpha  occ. eigenvalues --  -19.15463 -19.14031 -10.24810 -10.24002 -10.23041
 Alpha  occ. eigenvalues --  -10.21322 -10.19247 -10.18152 -10.17918  -1.05112
 Alpha  occ. eigenvalues --   -1.02846  -0.85657  -0.75772  -0.72239  -0.69210
 Alpha  occ. eigenvalues --   -0.63159  -0.57173  -0.55323  -0.51739  -0.50928
 Alpha  occ. eigenvalues --   -0.46364  -0.46089  -0.44546  -0.41583  -0.40944
 Alpha  occ. eigenvalues --   -0.39776  -0.38044  -0.36041  -0.33037  -0.32098
 Alpha  occ. eigenvalues --   -0.29478  -0.28432  -0.25023  -0.23132
 Alpha virt. eigenvalues --    0.03663   0.04196   0.08565   0.10296   0.12099
 Alpha virt. eigenvalues --    0.12160   0.13463   0.14017   0.14579   0.15993
 Alpha virt. eigenvalues --    0.16798   0.18208   0.18995   0.19786   0.21763

 Mulliken charges:
               1
     1  C   -0.238502
     2  O   -0.237033
     3  C    0.051705
     4  C   -0.352630
     5  C    0.279714
     6  C   -0.408542
     7  C    0.356428
     8  C   -0.446171
     9  O   -0.466520
    10  H    0.114671
    11  H    0.131075
    12  H    0.117662
    13  H    0.102194
    14  H    0.125295
    15  H    0.200300
    16  H    0.130629
    17  H    0.122640
    18  H    0.128072
    19  H    0.289015
 Sum of Mulliken charges =   0.00000

 Dipole moment (field-independent basis, Debye):
    X=              0.2736    Y=             -0.0973    Z=              0.0138  Tot=              0.2907
 Quadrupole moment (field-independent basis, Debye-Ang):
   XX=            -44.0953   YY=            -56.1590   ZZ=            -54.2157
   XY=              0.7907   XZ=             -0.1276   YZ=             -3.5752

  Exact polarizability: 108.985   7.848  70.226  -3.570  -2.047  62.161
 Approx polarizability: 152.910  12.291  99.284 -10.422   1.174  96.838

                      1                      2                      3
                      A                      A                      A
 Frequencies --     84.9966               124.1428               127.8215
 Red. masses --      3.0594                 2.9359                 3.2857
 Frc consts  --      0.0130                 0.0267                 0.0316
 IR Inten    --      6.3525                 7.8495                 0.7653

                      4                      5                      6
                      A                      A                      A
 Frequencies --    164.1820               173.1242               215.8928
 Red. masses --      2.5441                 1.3968                 1.4004
 Frc consts  --      0.0404                 0.0247                 0.0385
 IR Inten    --     10.8670                 2.3966                31.7395

                      7                      8                      9
                      A                      A                      A
 Frequencies --    225.3655               243.0440               324.3735
 Red. masses --      1.0605                 2.6624                 3.0761
 Frc consts  --      0.0317                 0.0927                 0.1907
 IR Inten    --      1.4187                11.9033                 0.9351

                     10                     11                     12
                      A                      A                      A
 Frequencies --    390.3084               397.4182               410.5109
 Red. masses --      4.3860                 4.2722                 2.7735
 Frc consts  --      0.3937                 0.3976                 0.2754
 IR Inten    --      3.1948                 5.2287                 3.9150

                     13                     14                     15
                      A                      A                      A
 Frequencies --    466.8546               546.9661               593.1919
 Red. masses --      4.4944                 4.5537                 1.2518
 Frc consts  --      0.5771                 0.8027                 0.2595
 IR Inten    --      8.0833                 3.5720                50.3173

                     16                     17                     18
                      A                      A                      A
 Frequencies --    624.3529               660.6602               728.4486
 Red. masses --      3.0712                 1.2359                 4.1215
 Frc consts  --      0.7054                 0.3178                 1.2885
 IR Inten    --      2.8369                36.0108                11.1486

                     19                     20                     21
                      A                      A                      A
 Frequencies --    822.2587               933.5047               972.8772
 Red. masses --      4.4496                 1.7798                 2.2552
 Frc consts  --      1.7725                 0.9138                 1.2576
 IR Inten    --     16.6779                 2.2912                11.4967

                     22                     23                     24
                      A                      A                      A
 Frequencies --    999.8676              1042.7771              1068.7404
 Red. masses --      2.7718                 2.6150                 1.4734
 Frc consts  --      1.6327                 1.6754                 0.9915
 IR Inten    --     18.2348                43.9335                 4.7129

                     25                     26                     27
                      A                      A                      A
 Frequencies --   1087.4570              1110.0582              1164.6793
 Red. masses --      1.7471                 1.9048                 2.9914
 Frc consts  --      1.2173                 1.3829                 2.3908
 IR Inten    --     13.1762                13.8517               132.6791

                     28                     29                     30
                      A                      A                      A
 Frequencies --   1181.6880              1215.3124              1243.5538
 Red. masses --      1.2836                 2.1384                 2.0131
 Frc consts  --      1.0560                 1.8609                 1.8342
 IR Inten    --      3.3607                90.4536                32.2406

                     31                     32                     33
                      A                      A                      A
 Frequencies --   1277.8170              1314.5790              1378.8408
 Red. masses --      2.0002                 1.2922                 1.3466
 Frc consts  --      1.9242                 1.3156                 1.5083
 IR Inten    --     25.5637                30.0996                30.0288

                     34                     35                     36
                      A                      A                      A
 Frequencies --   1417.7796              1433.2501              1485.7184
 Red. masses --      1.4139                 2.3140                 1.1312
 Frc consts  --      1.6745                 2.8006                 1.4712
 IR Inten    --     11.0691                45.9515                 0.3460

                     37                     38                     39
                      A                      A                      A
 Frequencies --   1486.8922              1487.7987              1499.2642
 Red. masses --      1.0530                 1.1242                 1.1338
 Frc consts  --      1.3716                 1.4662                 1.5016
 IR Inten    --      6.6351                 3.7049                 4.0718

                     40                     41                     42
                      A                      A                      A
 Frequencies --   1506.8334              2223.8809              2993.4957
 Red. masses --      1.0578                 6.0627                 1.0357
 Frc consts  --      1.4151                17.6661                 5.4682
 IR Inten    --      8.5633                21.8867                55.3797

                     43                     44                     45
                      A                      A                      A
 Frequencies --   3039.7719              3049.4289              3099.9798
 Red. masses --      1.0363                 1.1020                 1.0881
 Frc consts  --      5.6419                 6.0378                 6.1605
 IR Inten    --     17.2382                51.3646                13.2255

                     46                     47                     48
                      A                      A                      A
 Frequencies --   3102.8467              3124.7782              3133.0874
 Red. masses --      1.1015                 1.0989                 1.1003
 Frc consts  --      6.2480                 6.3219                 6.3639
 IR Inten    --     19.4381                26.2795                10.7773

                     49                     50                     51
                      A                      A                      A
 Frequencies --   3158.4846              3501.6702              3743.8347
 Red. masses --      1.0866                 1.1586                 1.0664
 Frc consts  --      6.3866                 8.3702                 8.8061
 IR Inten    --      3.1605                92.0562                70.0021

 - Thermochemistry -
 -------------------
 Temperature   298.150 Kelvin.  Pressure   1.00000 Atm.
 Atom     1 has atomic number  6 and mass  12.00000

 Molecular mass:   126.06808 amu.
 Principal axes and moments of inertia in atomic units:
                           1         2         3
     Eigenvalues --   713.936851545.722231900.45560
           X            0.99999   0.00384   0.00265
           Y           -0.00366   0.99769  -0.06779
           Z           -0.00290   0.06778   0.99770
 This molecule is an asymmetric top.
 Rotational symmetry number  1.
 Warning -- assumption of classical behavior for rotation
           may cause significant error
 Rotational temperatures (Kelvin)      0.12132     0.05603     0.04558
 Rotational constants (GHZ):           2.52787     1.16757     0.94964
 Zero-point vibrational energy     405560.7 (Joules/Mol)
                                   96.93134 (Kcal/Mol)
 Warning -- explicit consideration of  15 degrees of freedom as
           vibrations may cause significant error
 Vibrational temperatures:    122.29   178.61   183.91   236.22   249.09
          (Kelvin)            310.62   324.25   349.69   466.70   561.57
                              571.80   590.63   671.70   786.96   853.47
                              898.30   950.54  1048.07  1183.05  1343.10
                             1399.75  1438.58  1500.32  1537.68  1564.61
                             1597.12  1675.71  1700.18  1748.56  1789.19
                             1838.49  1891.38  1983.84  2039.87  2062.12
                             2137.61  2139.30  2140.61  2157.10  2167.99
                             3199.66  4306.97  4373.55  4387.44  4460.17
                             4464.30  4495.85  4507.81  4544.35  5038.12
                             5386.54

 Zero-point correction=                           0.154470 (Hartree/Particle)
 Thermal correction to Energy=                    0.164964
 Thermal correction to Enthalpy=                  0.165908
 Thermal correction to Gibbs Free Energy=         0.119337
 Sum of electronic and zero-point Energies=           -422.965532
 Sum of electronic and thermal Energies=              -422.955038
 Sum of electronic and thermal Enthalpies=            -422.954094
 Sum of electronic and thermal Free Energies=         -423.000665

                     E (Thermal)             CV                S
                      KCal/Mol        Cal/Mol-Kelvin    Cal/Mol-Kelvin
 Total                  103.517             38.026             98.017
 Electronic               0.000              0.000              0.000
 Translational            0.889              2.981             40.409
 Rotational               0.889              2.981             29.130
 Vibrational            101.739             32.065             28.479
 Vibration     1          0.601              1.960              3.772
 Vibration     2          0.610              1.929              3.035
 Vibration     3          0.611              1.925              2.979
 Vibration     4          0.623              1.886              2.501
 Vibration     5          0.627              1.876              2.401
 Vibration     6          0.645              1.817              1.993
 Vibration     7          0.650              1.802              1.916
 Vibration     8          0.659              1.774              1.780
 Vibration     9          0.709              1.627              1.288
 Vibration    10          0.758              1.491              0.999
 Vibration    11          0.764              1.476              0.972
 Vibration    12          0.775              1.447              0.925
 Vibration    13          0.824              1.324              0.746
 Vibration    14          0.902              1.146              0.550
 Vibration    15          0.951              1.046              0.462

 Optimization completed.
    -- Stationary point found.
 Normal termination of Gaussian 09 at Tue Jan 28 13:19:17 2020.
