 Gaussian 09, Revision D.01,
 Gaussian 09:  ES64L-G09RevD.01 24-Apr-2013

 -----------------------------
 # b3lyp 6-31G(2df,p) opt Freq
 -----------------------------

 -----
 titel
 -----
 Symbolic Z-matrix:
 Charge =  0 Multiplicity = 1

 SCF Done:  E(RB3LYP) =  -423.174147245     A.U. after   14 cycles
 Optimization completed.
    -- Stationary point found.
 Normal termination of Gaussian 09 at Mon Jan 27 16:20:39 2020.

 ----------------------------------------------------------------------
 #N Geom=AllCheck Guess=TCheck SCRF=Check GenChk RB3LYP/6-31G(2df,p) Fr
 eq
 ----------------------------------------------------------------------

 Structure from the checkpoint file:  "/scratch/puck/g09_936efafc-d107-4ebd-afa1-5a859b69a6c2/Gau-47219.chk"
 -----
 titel
 -----
 Charge =  0 Multiplicity = 1

                         Standard orientation:
 ---------------------------------------------------------------------
 Center     Atomic      Atomic             Coordinates (Angstroms)
 Number     Number       Type             X           Y           Z
 ---------------------------------------------------------------------
      1          6           0       -1.474666    1.377666   -0.766921
      2          6           0       -1.171254    0.064573   -0.065784
      3          6           0       -2.443653   -0.667882    0.345619
      4          8           0       -0.359240   -0.815580   -0.919972
      5          6           0        0.603060   -1.037137    0.130036
      6          6           0       -0.084310    0.025720    1.043818
      7          6           0        1.128114    0.981808    0.881324
      8          6           0        1.799246   -0.066227   -0.036182
      9          8           0        2.836917   -0.114370   -0.625088
     10          1           0       -2.122836    1.195292   -1.630126
     11          1           0       -1.993738    2.066814   -0.092419
     12          1           0       -0.565331    1.860278   -1.130836
     13          1           0       -2.206826   -1.610652    0.847314
     14          1           0       -3.039159   -0.053404    1.029763
     15          1           0       -3.051492   -0.892881   -0.535836
     16          1           0        0.779194   -2.093486    0.350572
     17          1           0       -0.422458   -0.175793    2.058345
     18          1           0        0.961298    1.977044    0.463743
     19          1           0        1.700708    1.095260    1.808504
 ---------------------------------------------------------------------

 SCF Done:  E(RB3LYP) =  -423.174147245     A.U. after    1 cycles

 The electronic state is 1-A.
 Alpha  occ. eigenvalues --  -19.14454 -19.14275 -10.27142 -10.25181 -10.24103
 Alpha  occ. eigenvalues --  -10.20419 -10.19931 -10.18372 -10.18353  -1.05703
 Alpha  occ. eigenvalues --   -1.04172  -0.82907  -0.78803  -0.70326  -0.66474
 Alpha  occ. eigenvalues --   -0.65161  -0.56385  -0.51425  -0.50482  -0.47868
 Alpha  occ. eigenvalues --   -0.47001  -0.44921  -0.42331  -0.41864  -0.41466
 Alpha  occ. eigenvalues --   -0.40067  -0.38568  -0.37035  -0.36801  -0.35588
 Alpha  occ. eigenvalues --   -0.31334  -0.30199  -0.28274  -0.23149
 Alpha virt. eigenvalues --   -0.03185   0.07536   0.09508   0.10372   0.11485
 Alpha virt. eigenvalues --    0.12316   0.13414   0.14655   0.15749   0.16504
 Alpha virt. eigenvalues --    0.17462   0.18090   0.18806   0.19958   0.21701

 Mulliken charges:
               1
     1  C   -0.435722
     2  C    0.411871
     3  C   -0.422374
     4  O   -0.335433
     5  C   -0.004173
     6  C   -0.130106
     7  C   -0.390731
     8  C    0.409139
     9  O   -0.286188
    10  H    0.129775
    11  H    0.119466
    12  H    0.126651
    13  H    0.120599
    14  H    0.116046
    15  H    0.127463
    16  H    0.091811
    17  H    0.082773
    18  H    0.132398
    19  H    0.136732
 Sum of Mulliken charges =   0.00000

 Dipole moment (field-independent basis, Debye):
    X=             -2.5617    Y=              0.8735    Z=              2.6479  Tot=              3.7863
 Quadrupole moment (field-independent basis, Debye-Ang):
   XX=            -59.6473   YY=            -51.4691   ZZ=            -53.7155
   XY=             -0.3999   XZ=              3.7261   YZ=             -1.7417

  Exact polarizability:  89.340  -0.264  71.675  -0.908   0.683  65.958
 Approx polarizability: 122.627  -2.196 104.753  -5.487   4.785 104.839

                      1                      2                      3
                      A                      A                      A
 Frequencies --     61.4733               156.7113               183.3895
 Red. masses --      4.6972                 3.8282                 1.2343
 Frc consts  --      0.0105                 0.0554                 0.0245
 IR Inten    --      1.7552                 1.7769                 0.2293

                      4                      5                      6
                      A                      A                      A
 Frequencies --    244.1893               259.1659               335.7278
 Red. masses --      1.1356                 1.9436                 2.5136
 Frc consts  --      0.0399                 0.0769                 0.1669
 IR Inten    --      0.3545                 0.6689                 0.3695

                      7                      8                      9
                      A                      A                      A
 Frequencies --    354.8901               377.5146               432.3669
 Red. masses --      2.8181                 2.5386                 4.1109
 Frc consts  --      0.2091                 0.2132                 0.4528
 IR Inten    --      4.4667                 2.1272                 2.8934

                     10                     11                     12
                      A                      A                      A
 Frequencies --    473.0823               518.1320               598.6225
 Red. masses --      2.9564                 2.0729                 4.1130
 Frc consts  --      0.3898                 0.3279                 0.8684
 IR Inten    --      4.1758                 4.5393                 1.3750

                     13                     14                     15
                      A                      A                      A
 Frequencies --    690.2135               771.7809               809.2133
 Red. masses --      3.4912                 2.3823                 2.1769
 Frc consts  --      0.9799                 0.8361                 0.8399
 IR Inten    --      2.0944                 1.6648                10.0732

                     16                     17                     18
                      A                      A                      A
 Frequencies --    871.3859               883.5873               927.3554
 Red. masses --      2.5603                 3.2450                 1.6560
 Frc consts  --      1.1454                 1.4927                 0.8391
 IR Inten    --      0.8936                35.7893                 1.2107

                     19                     20                     21
                      A                      A                      A
 Frequencies --    951.7463               974.5469               991.8175
 Red. masses --      2.3698                 2.4083                 2.6162
 Frc consts  --      1.2647                 1.3476                 1.5163
 IR Inten    --     12.7256                16.1240                26.4455

                     22                     23                     24
                      A                      A                      A
 Frequencies --   1003.8114              1028.2411              1071.1053
 Red. masses --      1.6494                 2.1639                 4.2374
 Frc consts  --      0.9792                 1.3480                 2.8643
 IR Inten    --      6.9322                13.6570                45.5054

                     25                     26                     27
                      A                      A                      A
 Frequencies --   1096.5553              1156.8980              1169.5198
 Red. masses --      1.3583                 1.7707                 2.0023
 Frc consts  --      0.9623                 1.3963                 1.6136
 IR Inten    --      4.3551                 9.3846                12.5173

                     28                     29                     30
                      A                      A                      A
 Frequencies --   1196.7895              1217.6701              1236.0091
 Red. masses --      1.7450                 2.0992                 1.7671
 Frc consts  --      1.4726                 1.8339                 1.5906
 IR Inten    --     12.2519                11.7176                11.2507

                     31                     32                     33
                      A                      A                      A
 Frequencies --   1278.8237              1287.7488              1324.7987
 Red. masses --      1.4795                 2.3436                 1.9518
 Frc consts  --      1.4255                 2.2898                 2.0183
 IR Inten    --      0.5969                 6.6345                11.2878

                     34                     35                     36
                      A                      A                      A
 Frequencies --   1400.3764              1413.9860              1435.5788
 Red. masses --      1.3362                 1.2395                 1.0996
 Frc consts  --      1.5439                 1.4601                 1.3351
 IR Inten    --     11.5094                 6.3376                12.3253

                     37                     38                     39
                      A                      A                      A
 Frequencies --   1471.4844              1483.3877              1493.2042
 Red. masses --      1.0493                 1.0477                 1.0724
 Frc consts  --      1.3386                 1.3584                 1.4088
 IR Inten    --      0.9158                 3.1747                 1.0508

                     40                     41                     42
                      A                      A                      A
 Frequencies --   1508.2090              1897.5223              3033.2515
 Red. masses --      1.0535                12.6839                 1.0352
 Frc consts  --      1.4119                26.9077                 5.6115
 IR Inten    --      5.1096               264.0514                13.2050

                     43                     44                     45
                      A                      A                      A
 Frequencies --   3041.5750              3056.8423              3075.9317
 Red. masses --      1.0366                 1.0630                 1.0888
 Frc consts  --      5.6499                 5.8523                 6.0695
 IR Inten    --     13.4071                 8.4571                40.1555

                     46                     47                     48
                      A                      A                      A
 Frequencies --   3103.7149              3109.5662              3115.7247
 Red. masses --      1.1009                 1.1009                 1.1020
 Frc consts  --      6.2484                 6.2718                 6.3030
 IR Inten    --      2.6990                25.5534                11.8659

                     49                     50                     51
                      A                      A                      A
 Frequencies --   3116.4257              3128.9979              3132.6769
 Red. masses --      1.1007                 1.0987                 1.0915
 Frc consts  --      6.2982                 6.3379                 6.3112
 IR Inten    --     15.1074                13.9807                29.8146

 - Thermochemistry -
 -------------------
 Temperature   298.150 Kelvin.  Pressure   1.00000 Atm.
 Atom     1 has atomic number  6 and mass  12.00000

 Molecular mass:   126.06808 amu.
 Principal axes and moments of inertia in atomic units:
                           1         2         3
     Eigenvalues --   537.469181443.601811521.91431
           X            0.99991   0.00472   0.01241
           Y           -0.00280   0.98863  -0.15036
           Z           -0.01298   0.15032   0.98855
 This molecule is an asymmetric top.
 Rotational symmetry number  1.
 Warning -- assumption of classical behavior for rotation
           may cause significant error
 Rotational temperatures (Kelvin)      0.16115     0.06000     0.05691
 Rotational constants (GHZ):           3.35785     1.25017     1.18584
 Zero-point vibrational energy     412432.6 (Joules/Mol)
                                   98.57375 (Kcal/Mol)
 Warning -- explicit consideration of  12 degrees of freedom as
           vibrations may cause significant error
 Vibrational temperatures:     88.45   225.47   263.86   351.33   372.88
          (Kelvin)            483.04   510.61   543.16   622.08   680.66
                              745.48   861.28   993.06  1110.42  1164.28
                             1253.73  1271.28  1334.26  1369.35  1402.15
                             1427.00  1444.26  1479.41  1541.08  1577.70
                             1664.52  1682.68  1721.91  1751.95  1778.34
                             1839.94  1852.78  1906.09  2014.83  2034.41
                             2065.48  2117.14  2134.26  2148.39  2169.97
                             2730.11  4364.17  4376.14  4398.11  4425.57
                             4465.55  4473.97  4482.83  4483.84  4501.92
                             4507.22

 Zero-point correction=                           0.157087 (Hartree/Particle)
 Thermal correction to Energy=                    0.165733
 Thermal correction to Enthalpy=                  0.166677
 Thermal correction to Gibbs Free Energy=         0.123929
 Sum of electronic and zero-point Energies=           -423.017060
 Sum of electronic and thermal Energies=              -423.008414
 Sum of electronic and thermal Enthalpies=            -423.007470
 Sum of electronic and thermal Free Energies=         -423.050219

                     E (Thermal)             CV                S
                      KCal/Mol        Cal/Mol-Kelvin    Cal/Mol-Kelvin
 Total                  103.999             33.220             89.971
 Electronic               0.000              0.000              0.000
 Translational            0.889              2.981             40.409
 Rotational               0.889              2.981             28.559
 Vibrational            102.221             27.258             21.004
 Vibration     1          0.597              1.973              4.409
 Vibration     2          0.620              1.895              2.589
 Vibration     3          0.631              1.862              2.294
 Vibration     4          0.660              1.772              1.772
 Vibration     5          0.668              1.747              1.667
 Vibration     6          0.717              1.604              1.232
 Vibration     7          0.731              1.565              1.144
 Vibration     8          0.748              1.518              1.049
 Vibration     9          0.793              1.400              0.851
 Vibration    10          0.830              1.310              0.729
 Vibration    11          0.873              1.210              0.614
 Vibration    12          0.957              1.035              0.452

 Optimization completed.
    -- Stationary point found.
 Normal termination of Gaussian 09 at Mon Jan 27 17:04:20 2020.
