 Gaussian 09, Revision D.01,
 Gaussian 09:  ES64L-G09RevD.01 24-Apr-2013

 -----------------------------
 # b3lyp 6-31G(2df,p) opt Freq
 -----------------------------

 -----
 titel
 -----
 Symbolic Z-matrix:
 Charge =  0 Multiplicity = 1

 SCF Done:  E(RB3LYP) =  -423.176080134     A.U. after   13 cycles
 Optimization completed.
    -- Stationary point found.
 Normal termination of Gaussian 09 at Mon Jan 27 12:21:27 2020.

 ----------------------------------------------------------------------
 #N Geom=AllCheck Guess=TCheck SCRF=Check GenChk RB3LYP/6-31G(2df,p) Fr
 eq
 ----------------------------------------------------------------------

 Structure from the checkpoint file:  "/scratch/puck/g09_bdcfbcd8-c329-4fb2-93ec-637019505a8c/Gau-73031.chk"
 -----
 titel
 -----
 Charge =  0 Multiplicity = 1

                         Standard orientation:
 ---------------------------------------------------------------------
 Center     Atomic      Atomic             Coordinates (Angstroms)
 Number     Number       Type             X           Y           Z
 ---------------------------------------------------------------------
      1          6           0        0.587979    1.480404   -0.753475
      2          6           0       -0.871418    1.492123   -0.233797
      3          6           0       -1.287392    0.161919    0.408722
      4          6           0       -1.248285   -1.054285   -0.517817
      5          8           0        0.036775   -1.249701   -1.099189
      6          6           0        1.115363   -0.990292   -0.240874
      7          6           0        1.477439    0.478491   -0.026362
      8          6           0        0.880928   -0.344017    1.096897
      9          8           0       -0.429533   -0.102390    1.524685
     10          1           0        0.596929    1.238890   -1.821771
     11          1           0        1.011150    2.484013   -0.652952
     12          1           0       -0.982681    2.256407    0.542001
     13          1           0       -1.562874    1.752637   -1.042037
     14          1           0       -2.294511    0.246870    0.828944
     15          1           0       -1.543958   -1.937887    0.066824
     16          1           0       -1.945755   -0.938572   -1.353372
     17          1           0        1.902785   -1.729526   -0.352864
     18          1           0        2.531446    0.728897    0.042963
     19          1           0        1.501849   -0.631070    1.938530
 ---------------------------------------------------------------------

 SCF Done:  E(RB3LYP) =  -423.176080134     A.U. after    1 cycles

 The electronic state is 1-A.
 Alpha  occ. eigenvalues --  -19.14490 -19.14440 -10.23409 -10.23295 -10.22821
 Alpha  occ. eigenvalues --  -10.22752 -10.18463 -10.18320 -10.18214  -1.05927
 Alpha  occ. eigenvalues --   -1.02025  -0.84390  -0.79065  -0.71079  -0.67054
 Alpha  occ. eigenvalues --   -0.63296  -0.56390  -0.53621  -0.51237  -0.49085
 Alpha  occ. eigenvalues --   -0.47158  -0.45129  -0.44876  -0.41332  -0.40596
 Alpha  occ. eigenvalues --   -0.38692  -0.36969  -0.36178  -0.35121  -0.32966
 Alpha  occ. eigenvalues --   -0.31621  -0.28795  -0.23465  -0.22306
 Alpha virt. eigenvalues --    0.07261   0.10071   0.10632   0.12479   0.13243
 Alpha virt. eigenvalues --    0.14444   0.15102   0.16479   0.17176   0.17489
 Alpha virt. eigenvalues --    0.18735   0.19579   0.19847   0.21324   0.21569

 Mulliken charges:
               1
     1  C   -0.219594
     2  C   -0.207928
     3  C    0.048419
     4  C   -0.074409
     5  O   -0.258830
     6  C    0.046222
     7  C   -0.126342
     8  C    0.060066
     9  O   -0.263356
    10  H    0.113874
    11  H    0.100167
    12  H    0.109346
    13  H    0.097468
    14  H    0.086773
    15  H    0.101273
    16  H    0.106688
    17  H    0.094419
    18  H    0.083252
    19  H    0.102493
 Sum of Mulliken charges =   0.00000

 Dipole moment (field-independent basis, Debye):
    X=             -0.1084    Y=              0.6709    Z=             -0.1540  Tot=              0.6968
 Quadrupole moment (field-independent basis, Debye-Ang):
   XX=            -47.7588   YY=            -52.9686   ZZ=            -57.2288
   XY=             -0.4654   XZ=              2.2976   YZ=             -1.8989

  Exact polarizability:  79.352   0.288  72.882   1.902  -2.048  65.621
 Approx polarizability: 110.612   0.785 102.720   0.865  -0.460 104.680

                      1                      2                      3
                      A                      A                      A
 Frequencies --    147.6098               229.0236               336.1022
 Red. masses --      2.0110                 3.8057                 1.9756
 Frc consts  --      0.0258                 0.1176                 0.1315
 IR Inten    --      1.0594                 6.1207                 1.1199

                      4                      5                      6
                      A                      A                      A
 Frequencies --    370.2845               451.8046               484.6318
 Red. masses --      5.6060                 3.0803                 7.1682
 Frc consts  --      0.4529                 0.3705                 0.9919
 IR Inten    --      4.0709                 1.0670                 1.7101

                      7                      8                      9
                      A                      A                      A
 Frequencies --    523.9471               652.7223               694.2066
 Red. masses --      3.5255                 6.0305                 2.6954
 Frc consts  --      0.5702                 1.5138                 0.7653
 IR Inten    --      2.1090                 0.2535                 9.1820

                     10                     11                     12
                      A                      A                      A
 Frequencies --    743.5028               754.8395               786.2553
 Red. masses --      2.3087                 2.2653                 3.1487
 Frc consts  --      0.7519                 0.7605                 1.1468
 IR Inten    --     16.6887                20.9367                 1.5592

                     13                     14                     15
                      A                      A                      A
 Frequencies --    835.3112               877.1443               889.5083
 Red. masses --      1.9405                 2.8417                 2.9999
 Frc consts  --      0.7977                 1.2881                 1.3985
 IR Inten    --      9.3012                 9.9322                18.4598

                     16                     17                     18
                      A                      A                      A
 Frequencies --    904.2709               949.3958               977.8331
 Red. masses --      2.6418                 2.3217                 2.1749
 Frc consts  --      1.2728                 1.2330                 1.2252
 IR Inten    --      6.0297                14.4307                 1.9157

                     19                     20                     21
                      A                      A                      A
 Frequencies --   1033.8517              1049.6883              1082.7510
 Red. masses --      2.4627                 1.8789                 1.6229
 Frc consts  --      1.5509                 1.2197                 1.1210
 IR Inten    --     30.7231                10.1789                 6.4001

                     22                     23                     24
                      A                      A                      A
 Frequencies --   1088.6602              1112.7220              1126.7343
 Red. masses --      2.1299                 1.2940                 2.1830
 Frc consts  --      1.4873                 0.9440                 1.6329
 IR Inten    --      7.9252                 2.0916                22.3030

                     25                     26                     27
                      A                      A                      A
 Frequencies --   1141.8199              1176.3062              1222.0594
 Red. masses --      1.7855                 3.9432                 1.2483
 Frc consts  --      1.3715                 3.2147                 1.0984
 IR Inten    --      7.8924                 5.7935                 8.7813

                     28                     29                     30
                      A                      A                      A
 Frequencies --   1236.9674              1259.7410              1281.2237
 Red. masses --      1.8174                 1.6832                 1.1629
 Frc consts  --      1.6384                 1.5738                 1.1247
 IR Inten    --     59.5011                34.1402                19.3286

                     31                     32                     33
                      A                      A                      A
 Frequencies --   1325.8039              1328.7302              1342.1001
 Red. masses --      1.2372                 1.3509                 1.3231
 Frc consts  --      1.2813                 1.4053                 1.4042
 IR Inten    --      0.7667                 2.0093                 1.3425

                     34                     35                     36
                      A                      A                      A
 Frequencies --   1362.8744              1381.3850              1388.7952
 Red. masses --      1.8379                 1.4087                 1.3540
 Frc consts  --      2.0113                 1.5837                 1.5386
 IR Inten    --      8.2831                 7.0731                 2.4460

                     37                     38                     39
                      A                      A                      A
 Frequencies --   1411.7369              1445.1030              1474.5384
 Red. masses --      1.3372                 2.2222                 1.0821
 Frc consts  --      1.5702                 2.7342                 1.3862
 IR Inten    --      5.1470                17.1346                 1.9798

                     40                     41                     42
                      A                      A                      A
 Frequencies --   1493.1372              1496.8515              2996.7872
 Red. masses --      1.1119                 1.0947                 1.0671
 Frc consts  --      1.4606                 1.4451                 5.6462
 IR Inten    --      5.4268                 0.7630                60.5502

                     43                     44                     45
                      A                      A                      A
 Frequencies --   3038.2683              3044.7249              3065.7525
 Red. masses --      1.0605                 1.0639                 1.0865
 Frc consts  --      5.7679                 5.8108                 6.0169
 IR Inten    --     15.6975                32.6299                44.1696

                     46                     47                     48
                      A                      A                      A
 Frequencies --   3073.7983              3080.9851              3093.4420
 Red. masses --      1.1005                 1.0955                 1.1044
 Frc consts  --      6.1262                 6.1269                 6.2267
 IR Inten    --      6.8882                39.1284                38.0856

                     49                     50                     51
                      A                      A                      A
 Frequencies --   3144.3455              3151.6304              3170.4436
 Red. masses --      1.0885                 1.0897                 1.0923
 Frc consts  --      6.3408                 6.3769                 6.4690
 IR Inten    --     15.3824                19.2328                33.7051

 - Thermochemistry -
 -------------------
 Temperature   298.150 Kelvin.  Pressure   1.00000 Atm.
 Atom     1 has atomic number  6 and mass  12.00000

 Molecular mass:   126.06808 amu.
 Principal axes and moments of inertia in atomic units:
                           1         2         3
     Eigenvalues --   814.38681 820.01805 952.87211
           X            0.96984   0.23642   0.05928
           Y           -0.22986   0.96805  -0.10021
           Z           -0.08108   0.08356   0.99320
 This molecule is an asymmetric top.
 Rotational symmetry number  1.
 Warning -- assumption of classical behavior for rotation
           may cause significant error
 Rotational temperatures (Kelvin)      0.10635     0.10562     0.09090
 Rotational constants (GHZ):           2.21607     2.20086     1.89400
 Zero-point vibrational energy     429053.6 (Joules/Mol)
                                  102.54626 (Kcal/Mol)
 Warning -- explicit consideration of   7 degrees of freedom as
           vibrations may cause significant error
 Vibrational temperatures:    212.38   329.51   483.58   532.76   650.05
          (Kelvin)            697.28   753.84   939.12   998.81  1069.73
                             1086.04  1131.24  1201.82  1262.01  1279.80
                             1301.04  1365.97  1406.88  1487.48  1510.27
                             1557.84  1566.34  1600.96  1621.12  1642.82
                             1692.44  1758.27  1779.72  1812.48  1843.39
                             1907.53  1911.74  1930.98  1960.87  1987.50
                             1998.16  2031.17  2079.18  2121.53  2148.29
                             2153.63  4311.70  4371.38  4380.67  4410.93
                             4422.50  4432.84  4450.77  4524.01  4534.49
                             4561.56

 Zero-point correction=                           0.163418 (Hartree/Particle)
 Thermal correction to Energy=                    0.170016
 Thermal correction to Enthalpy=                  0.170960
 Thermal correction to Gibbs Free Energy=         0.132751
 Sum of electronic and zero-point Energies=           -423.012662
 Sum of electronic and thermal Energies=              -423.006064
 Sum of electronic and thermal Enthalpies=            -423.005120
 Sum of electronic and thermal Free Energies=         -423.043329

                     E (Thermal)             CV                S
                      KCal/Mol        Cal/Mol-Kelvin    Cal/Mol-Kelvin
 Total                  106.687             27.640             80.417
 Electronic               0.000              0.000              0.000
 Translational            0.889              2.981             40.409
 Rotational               0.889              2.981             27.944
 Vibrational            104.909             21.678             12.064
 Vibration     1          0.617              1.905              2.703
 Vibration     2          0.652              1.797              1.887
 Vibration     3          0.717              1.603              1.231
 Vibration     4          0.742              1.533              1.079
 Vibration     5          0.810              1.357              0.790
 Vibration     6          0.841              1.284              0.698
 Vibration     7          0.879              1.197              0.601

 Normal termination of Gaussian 09 at Mon Jan 27 13:13:02 2020.
