 Gaussian 09, Revision D.01,
 Gaussian 09:  ES64L-G09RevD.01 24-Apr-2013

 -----------------------------
 # b3lyp 6-31G(2df,p) opt Freq
 -----------------------------

 -----
 titel
 -----
 Symbolic Z-matrix:
 Charge =  0 Multiplicity = 1

 SCF Done:  E(RB3LYP) =  -423.153870820     A.U. after   14 cycles
 Optimization completed.
    -- Stationary point found.
 Normal termination of Gaussian 09 at Tue Jan 28 08:18:13 2020.

 ----------------------------------------------------------------------
 #N Geom=AllCheck Guess=TCheck SCRF=Check GenChk RB3LYP/6-31G(2df,p) Fr
 eq
 ----------------------------------------------------------------------

 Structure from the checkpoint file:  "/scratch/puck/g09_3bb37b0e-c0fa-4a70-9b2c-52ea9178081a/Gau-14784.chk"
 -----
 titel
 -----
 Charge =  0 Multiplicity = 1

                         Standard orientation:
 ---------------------------------------------------------------------
 Center     Atomic      Atomic             Coordinates (Angstroms)
 Number     Number       Type             X           Y           Z
 ---------------------------------------------------------------------
      1          6           0        3.232844   -1.032042    0.626966
      2          8           0        2.737742    0.108507   -0.038316
      3          6           0        1.358689    0.364479    0.157161
      4          6           0        1.132813    1.850177   -0.085906
      5          6           0        0.517988   -0.518064   -0.806233
      6          6           0       -0.912878   -0.430453   -0.574843
      7          6           0       -2.095287   -0.341891   -0.339183
      8          6           0       -3.512804   -0.257128   -0.106109
      9          8           0       -4.018721    0.115956    0.928046
     10          1           0        2.791563   -1.969060    0.254769
     11          1           0        4.309705   -1.065747    0.445594
     12          1           0        3.055671   -0.976269    1.711642
     13          1           0        1.073697    0.110602    1.190095
     14          1           0        0.075814    2.104428    0.028030
     15          1           0        1.716287    2.440143    0.624884
     16          1           0        1.452583    2.119183   -1.097803
     17          1           0        0.754984   -0.234354   -1.839265
     18          1           0        0.822446   -1.566154   -0.695540
     19          1           0       -4.133100   -0.568949   -0.971368
 ---------------------------------------------------------------------

 SCF Done:  E(RB3LYP) =  -423.153870820     A.U. after    1 cycles

 The electronic state is 1-A.
 Alpha  occ. eigenvalues --  -19.15049 -19.14206 -10.28805 -10.25052 -10.23422
 Alpha  occ. eigenvalues --  -10.22166 -10.21388 -10.19271 -10.18090  -1.04777
 Alpha  occ. eigenvalues --   -1.04400  -0.82253  -0.77075  -0.72526  -0.68462
 Alpha  occ. eigenvalues --   -0.65139  -0.59786  -0.52313  -0.50921  -0.48582
 Alpha  occ. eigenvalues --   -0.48247  -0.45067  -0.44331  -0.44058  -0.41887
 Alpha  occ. eigenvalues --   -0.40207  -0.38921  -0.37339  -0.36232  -0.32449
 Alpha  occ. eigenvalues --   -0.29319  -0.28411  -0.26596  -0.26006
 Alpha virt. eigenvalues --   -0.06014   0.02884   0.07369   0.09925   0.10851
 Alpha virt. eigenvalues --    0.12183   0.13277   0.13779   0.14732   0.15226
 Alpha virt. eigenvalues --    0.16803   0.17419   0.17868   0.19587   0.22284

 Mulliken charges:
               1
     1  C   -0.245419
     2  O   -0.234819
     3  C    0.135144
     4  C   -0.396829
     5  C   -0.379444
     6  C    0.105295
     7  C    0.017406
     8  C    0.023227
     9  O   -0.231526
    10  H    0.105755
    11  H    0.133510
    12  H    0.112665
    13  H    0.083468
    14  H    0.134709
    15  H    0.127169
    16  H    0.125181
    17  H    0.144834
    18  H    0.141887
    19  H    0.097786
 Sum of Mulliken charges =   0.00000

 Dipole moment (field-independent basis, Debye):
    X=              2.5126    Y=             -1.2776    Z=             -1.3818  Tot=              3.1392
 Quadrupole moment (field-independent basis, Debye-Ang):
   XX=            -62.4729   YY=            -51.3857   ZZ=            -53.7800
   XY=             -1.0255   XZ=              8.8813   YZ=             -0.3535

  Exact polarizability: 124.171  -4.582  64.943  -4.628   2.511  65.999
 Approx polarizability: 175.157  -9.789  90.593 -22.667   6.374 105.884

                      1                      2                      3
                      A                      A                      A
 Frequencies --     22.6234                51.0714                66.6886
 Red. masses --      3.7438                 3.1705                 4.7076
 Frc consts  --      0.0011                 0.0049                 0.0123
 IR Inten    --      8.0615                 1.6694                 1.3255

                      4                      5                      6
                      A                      A                      A
 Frequencies --     89.7977               172.5497               180.4840
 Red. masses --      1.7574                 2.7593                 1.7945
 Frc consts  --      0.0083                 0.0484                 0.0344
 IR Inten    --      1.6683                 3.0320                 1.7788

                      7                      8                      9
                      A                      A                      A
 Frequencies --    208.5453               219.6984               288.1558
 Red. masses --      2.7669                 1.1845                 2.5426
 Frc consts  --      0.0709                 0.0337                 0.1244
 IR Inten    --      3.5948                 0.1310                 2.5279

                     10                     11                     12
                      A                      A                      A
 Frequencies --    338.8614               398.9004               401.8540
 Red. masses --      2.7371                 3.7375                 4.1494
 Frc consts  --      0.1852                 0.3504                 0.3948
 IR Inten    --      4.6174                 4.6729                 4.4642

                     13                     14                     15
                      A                      A                      A
 Frequencies --    457.6557               503.3963               634.9642
 Red. masses --      4.4029                 2.5931                 8.2037
 Frc consts  --      0.5433                 0.3872                 1.9488
 IR Inten    --      5.8874                 0.9947                 5.0979

                     16                     17                     18
                      A                      A                      A
 Frequencies --    835.8620               839.4158               881.0223
 Red. masses --      2.3108                 4.6895                 1.4971
 Frc consts  --      0.9512                 1.9468                 0.6846
 IR Inten    --      0.2857                71.5299                 4.1393

                     19                     20                     21
                      A                      A                      A
 Frequencies --    905.5130              1022.8358              1070.7245
 Red. masses --      2.2417                 1.7689                 3.0590
 Frc consts  --      1.0830                 1.0903                 2.0663
 IR Inten    --     28.9253                 0.6863                10.2065

                     22                     23                     24
                      A                      A                      A
 Frequencies --   1101.5778              1129.2682              1146.2898
 Red. masses --      1.6888                 1.8253                 4.2818
 Frc consts  --      1.2074                 1.3715                 3.3149
 IR Inten    --      2.4298                68.7076                90.7736

                     25                     26                     27
                      A                      A                      A
 Frequencies --   1159.6923              1182.5186              1226.0621
 Red. masses --      3.3398                 1.3198                 1.5741
 Frc consts  --      2.6464                 1.0873                 1.3941
 IR Inten    --     71.8399                 8.2845                86.1558

                     28                     29                     30
                      A                      A                      A
 Frequencies --   1247.1929              1299.5355              1369.3973
 Red. masses --      1.4161                 1.4314                 1.3066
 Frc consts  --      1.2978                 1.4242                 1.4436
 IR Inten    --      1.5240                 4.8828                14.0830

                     31                     32                     33
                      A                      A                      A
 Frequencies --   1385.7581              1412.3270              1423.2483
 Red. masses --      1.2366                 1.3542                 1.2003
 Frc consts  --      1.3992                 1.5915                 1.4325
 IR Inten    --     15.3153                19.6745                18.4215

                     34                     35                     36
                      A                      A                      A
 Frequencies --   1453.2635              1478.9488              1485.1724
 Red. masses --      1.0898                 1.1087                 1.0453
 Frc consts  --      1.3561                 1.4287                 1.3584
 IR Inten    --      3.2601                 1.2217                 3.0805

                     37                     38                     39
                      A                      A                      A
 Frequencies --   1491.4526              1498.1333              1508.2208
 Red. masses --      1.0650                 1.0582                 1.0710
 Frc consts  --      1.3958                 1.3994                 1.4353
 IR Inten    --      5.8461                 2.0611                 8.9238

                     40                     41                     42
                      A                      A                      A
 Frequencies --   1766.1729              2324.9135              2915.8223
 Red. masses --     10.5327                11.9318                 1.0814
 Frc consts  --     19.3578                37.9986                 5.4172
 IR Inten    --    243.2010               200.1014               106.0522

                     43                     44                     45
                      A                      A                      A
 Frequencies --   2976.2812              2986.5178              3025.0691
 Red. masses --      1.0457                 1.0736                 1.0993
 Frc consts  --      5.4576                 5.6420                 5.9272
 IR Inten    --     31.4165                41.8425                44.5352

                     46                     47                     48
                      A                      A                      A
 Frequencies --   3029.9794              3045.9185              3065.9351
 Red. masses --      1.0615                 1.0358                 1.1009
 Frc consts  --      5.7421                 5.6617                 6.0971
 IR Inten    --     21.7932                10.7937                 9.1587

                     49                     50                     51
                      A                      A                      A
 Frequencies --   3117.0792              3119.8464              3132.8218
 Red. masses --      1.0962                 1.1006                 1.1024
 Frc consts  --      6.2754                 6.3119                 6.3748
 IR Inten    --     29.4827                19.1077                18.6516

 - Thermochemistry -
 -------------------
 Temperature   298.150 Kelvin.  Pressure   1.00000 Atm.
 Atom     1 has atomic number  6 and mass  12.00000

 Molecular mass:   126.06808 amu.
 Principal axes and moments of inertia in atomic units:
                           1         2         3
     Eigenvalues --   465.938973064.117273222.19239
           X            0.99989  -0.00587   0.01382
           Y            0.00626   0.99959  -0.02800
           Z           -0.01365   0.02809   0.99951
 This molecule is an asymmetric top.
 Rotational symmetry number  1.
 Warning -- assumption of classical behavior for rotation
           may cause significant error
 Rotational temperatures (Kelvin)      0.18589     0.02827     0.02688
 Rotational constants (GHZ):           3.87334     0.58899     0.56010
 Zero-point vibrational energy     407298.8 (Joules/Mol)
                                   97.34674 (Kcal/Mol)
 Warning -- explicit consideration of  14 degrees of freedom as
           vibrations may cause significant error
 Vibrational temperatures:     32.55    73.48    95.95   129.20   248.26
          (Kelvin)            259.68   300.05   316.10   414.59   487.55
                              573.93   578.18   658.46   724.27   913.57
                             1202.62  1207.73  1267.59  1302.83  1471.63
                             1540.53  1584.92  1624.76  1649.25  1668.54
                             1701.38  1764.03  1794.43  1869.74  1970.25
                             1993.79  2032.02  2047.73  2090.92  2127.87
                             2136.83  2145.86  2155.48  2169.99  2541.13
                             3345.03  4195.21  4282.20  4296.93  4352.39
                             4359.46  4382.39  4411.19  4484.78  4488.76
                             4507.43

 Zero-point correction=                           0.155132 (Hartree/Particle)
 Thermal correction to Energy=                    0.166086
 Thermal correction to Enthalpy=                  0.167030
 Thermal correction to Gibbs Free Energy=         0.116714
 Sum of electronic and zero-point Energies=           -422.998739
 Sum of electronic and thermal Energies=              -422.987785
 Sum of electronic and thermal Enthalpies=            -422.986841
 Sum of electronic and thermal Free Energies=         -423.037157

                     E (Thermal)             CV                S
                      KCal/Mol        Cal/Mol-Kelvin    Cal/Mol-Kelvin
 Total                  104.220             36.542            105.900
 Electronic               0.000              0.000              0.000
 Translational            0.889              2.981             40.409
 Rotational               0.889              2.981             29.910
 Vibrational            102.443             30.581             35.581
 Vibration     1          0.593              1.985              6.389
 Vibration     2          0.595              1.977              4.775
 Vibration     3          0.598              1.970              4.249
 Vibration     4          0.602              1.956              3.664
 Vibration     5          0.626              1.876              2.408
 Vibration     6          0.629              1.866              2.323
 Vibration     7          0.642              1.828              2.056
 Vibration     8          0.647              1.811              1.962
 Vibration     9          0.685              1.696              1.485
 Vibration    10          0.719              1.598              1.218
 Vibration    11          0.765              1.472              0.967
 Vibration    12          0.767              1.466              0.956
 Vibration    13          0.816              1.344              0.773
 Vibration    14          0.859              1.242              0.650

 Optimization completed on the basis of negligible forces.
    -- Stationary point found.
 Normal termination of Gaussian 09 at Tue Jan 28 08:54:23 2020.
