 Gaussian 09, Revision D.01,
 Gaussian 09:  ES64L-G09RevD.01 24-Apr-2013

 -----------------------------
 # b3lyp 6-31G(2df,p) opt Freq
 -----------------------------

 -----
 titel
 -----
 Symbolic Z-matrix:
 Charge =  0 Multiplicity = 1

 SCF Done:  E(RB3LYP) =  -423.136844324     A.U. after   14 cycles
 Optimization completed.
    -- Stationary point found.
 Normal termination of Gaussian 09 at Tue Jan 28 00:41:26 2020.

 ----------------------------------------------------------------------
 #N Geom=AllCheck Guess=TCheck SCRF=Check GenChk RB3LYP/6-31G(2df,p) Fr
 eq
 ----------------------------------------------------------------------

 Structure from the checkpoint file:  "/scratch/puck/g09_a3751dd9-140a-4135-be09-041d5533d6e4/Gau-71616.chk"
 -----
 titel
 -----
 Charge =  0 Multiplicity = 1

                         Standard orientation:
 ---------------------------------------------------------------------
 Center     Atomic      Atomic             Coordinates (Angstroms)
 Number     Number       Type             X           Y           Z
 ---------------------------------------------------------------------
      1          6           0        2.251674    0.487574   -0.725291
      2          6           0        1.380519   -0.651066   -0.230190
      3          8           0        0.229153   -0.897443   -1.084115
      4          6           0       -0.715939   -0.459010   -0.072937
      5          6           0       -1.798775   -1.499999    0.179154
      6          6           0       -1.278877    0.853129   -0.391239
      7          6           0       -1.701867    1.960198   -0.603111
      8          6           0        0.448288   -0.360781    0.978271
      9          8           0        0.605105    0.806023    1.722327
     10          1           0        2.687062    0.229254   -1.695072
     11          1           0        1.675031    1.408432   -0.847933
     12          1           0        3.065017    0.677608   -0.017848
     13          1           0        1.973621   -1.568169   -0.128323
     14          1           0       -1.335794   -2.457402    0.432596
     15          1           0       -2.447705   -1.185338    1.001965
     16          1           0       -2.412595   -1.634668   -0.715679
     17          1           0       -2.099151    2.921839   -0.819353
     18          1           0        0.412891   -1.189126    1.690058
     19          1           0        0.297421    1.548661    1.185953
 ---------------------------------------------------------------------

 SCF Done:  E(RB3LYP) =  -423.136844324     A.U. after    1 cycles

 The electronic state is 1-A.
 Alpha  occ. eigenvalues --  -19.14515 -19.13724 -10.26295 -10.24083 -10.23138
 Alpha  occ. eigenvalues --  -10.19492 -10.19184 -10.18596 -10.17635  -1.05137
 Alpha  occ. eigenvalues --   -1.02112  -0.79568  -0.75271  -0.74007  -0.69202
 Alpha  occ. eigenvalues --   -0.64043  -0.57703  -0.54496  -0.51369  -0.49693
 Alpha  occ. eigenvalues --   -0.48279  -0.42322  -0.41431  -0.41006  -0.40205
 Alpha  occ. eigenvalues --   -0.39776  -0.38545  -0.37223  -0.35414  -0.30901
 Alpha  occ. eigenvalues --   -0.29095  -0.28158  -0.26113  -0.25760
 Alpha virt. eigenvalues --    0.01966   0.03604   0.08662   0.09610   0.11433
 Alpha virt. eigenvalues --    0.12430   0.12712   0.14818   0.15527   0.16899
 Alpha virt. eigenvalues --    0.17041   0.17607   0.18392   0.19169   0.20675

 Mulliken charges:
               1
     1  C   -0.402307
     2  C    0.104732
     3  O   -0.325068
     4  C    0.170131
     5  C   -0.447471
     6  C    0.320238
     7  C   -0.464495
     8  C    0.034891
     9  O   -0.425683
    10  H    0.126667
    11  H    0.117647
    12  H    0.125240
    13  H    0.078762
    14  H    0.123465
    15  H    0.132615
    16  H    0.137508
    17  H    0.207086
    18  H    0.099744
    19  H    0.286298
 Sum of Mulliken charges =   0.00000

 Dipole moment (field-independent basis, Debye):
    X=             -0.4053    Y=              0.4697    Z=              0.1287  Tot=              0.6335
 Quadrupole moment (field-independent basis, Debye-Ang):
   XX=            -50.1426   YY=            -47.2951   ZZ=            -59.3061
   XY=             -2.2635   XZ=             -0.9381   YZ=             -3.9789

  Exact polarizability:  82.920  -7.087  85.807   1.305  -5.282  62.641
 Approx polarizability: 108.785 -17.212 134.830   5.100  -6.054  95.818

                      1                      2                      3
                      A                      A                      A
 Frequencies --     66.6642               137.5249               178.7762
 Red. masses --      3.7692                 4.2201                 2.7796
 Frc consts  --      0.0099                 0.0470                 0.0523
 IR Inten    --      1.5654                 0.8903                 1.2935

                      4                      5                      6
                      A                      A                      A
 Frequencies --    199.4905               214.8600               240.6553
 Red. masses --      1.3266                 1.4291                 2.1168
 Frc consts  --      0.0311                 0.0389                 0.0722
 IR Inten    --      0.6587                 0.7504                 7.0796

                      7                      8                      9
                      A                      A                      A
 Frequencies --    260.6252               303.5906               359.9459
 Red. masses --      1.7823                 2.5057                 1.4797
 Frc consts  --      0.0713                 0.1361                 0.1130
 IR Inten    --      1.0677                12.1425                64.0406

                     10                     11                     12
                      A                      A                      A
 Frequencies --    390.0229               445.0174               517.6509
 Red. masses --      2.5756                 3.6063                 6.3117
 Frc consts  --      0.2308                 0.4208                 0.9965
 IR Inten    --     26.7619                 9.4784                 2.1919

                     13                     14                     15
                      A                      A                      A
 Frequencies --    560.3609               604.4665               645.2979
 Red. masses --      4.3514                 4.9747                 1.2654
 Frc consts  --      0.8050                 1.0709                 0.3104
 IR Inten    --      8.2719                 5.7052                39.4458

                     16                     17                     18
                      A                      A                      A
 Frequencies --    661.2592               665.7736               794.6844
 Red. masses --      2.3715                 1.5025                 2.7073
 Frc consts  --      0.6110                 0.3924                 1.0074
 IR Inten    --     15.1041                28.4075                 7.4574

                     19                     20                     21
                      A                      A                      A
 Frequencies --    811.8424               878.2451               928.7941
 Red. masses --      2.9251                 2.8916                 2.7144
 Frc consts  --      1.1359                 1.3141                 1.3796
 IR Inten    --      2.5751                 5.9211                73.3637

                     22                     23                     24
                      A                      A                      A
 Frequencies --    945.0498              1023.9631              1065.6257
 Red. masses --      1.8510                 1.4880                 2.2740
 Frc consts  --      0.9740                 0.9192                 1.5214
 IR Inten    --      1.1191                35.0232                75.2802

                     25                     26                     27
                      A                      A                      A
 Frequencies --   1127.5304              1133.3579              1162.7839
 Red. masses --      3.2354                 2.1487                 3.7459
 Frc consts  --      2.4234                 1.6262                 2.9840
 IR Inten    --      5.7414                20.3640                66.5547

                     28                     29                     30
                      A                      A                      A
 Frequencies --   1173.6094              1207.8633              1272.2735
 Red. masses --      1.7684                 3.0115                 1.6895
 Frc consts  --      1.4351                 2.5887                 1.6113
 IR Inten    --     43.5494                44.8139                11.2947

                     31                     32                     33
                      A                      A                      A
 Frequencies --   1302.0218              1330.0978              1383.3884
 Red. masses --      1.6050                 1.5175                 1.3153
 Frc consts  --      1.6031                 1.5817                 1.4831
 IR Inten    --      2.3747                 6.6513                 5.8323

                     34                     35                     36
                      A                      A                      A
 Frequencies --   1402.1712              1408.8856              1446.5294
 Red. masses --      1.2524                 1.3318                 1.2021
 Frc consts  --      1.4507                 1.5576                 1.4820
 IR Inten    --      3.3185                19.5177                44.2857

                     37                     38                     39
                      A                      A                      A
 Frequencies --   1478.3608              1483.1913              1490.3234
 Red. masses --      1.0496                 1.0671                 1.0516
 Frc consts  --      1.3515                 1.3831                 1.3761
 IR Inten    --      3.4049                 8.6477                 6.3666

                     40                     41                     42
                      A                      A                      A
 Frequencies --   1498.3028              2217.3818              3025.9889
 Red. masses --      1.0504                 5.9328                 1.0854
 Frc consts  --      1.3893                17.1865                 5.8555
 IR Inten    --      2.8110                 0.9536                43.1552

                     43                     44                     45
                      A                      A                      A
 Frequencies --   3042.5368              3043.1936              3085.2334
 Red. masses --      1.0351                 1.0339                 1.0874
 Frc consts  --      5.6457                 5.6416                 6.0986
 IR Inten    --     15.7576                 8.5062                29.5952

                     46                     47                     48
                      A                      A                      A
 Frequencies --   3116.0706              3121.7495              3122.3418
 Red. masses --      1.1015                 1.1018                 1.1019
 Frc consts  --      6.3015                 6.3264                 6.3294
 IR Inten    --     13.9625                26.5867                11.4838

                     49                     50                     51
                      A                      A                      A
 Frequencies --   3125.7937              3495.3408              3754.8047
 Red. masses --      1.1029                 1.1611                 1.0654
 Frc consts  --      6.3493                 8.3580                 8.8496
 IR Inten    --     18.8949                68.6294                43.1684

 - Thermochemistry -
 -------------------
 Temperature   298.150 Kelvin.  Pressure   1.00000 Atm.
 Atom     1 has atomic number  6 and mass  12.00000

 Molecular mass:   126.06808 amu.
 Principal axes and moments of inertia in atomic units:
                           1         2         3
     Eigenvalues --   878.101001197.921461355.62856
           X            0.99744   0.05875  -0.04076
           Y           -0.06320   0.99097  -0.11823
           Z            0.03344   0.12050   0.99215
 This molecule is an asymmetric top.
 Rotational symmetry number  1.
 Warning -- assumption of classical behavior for rotation
           may cause significant error
 Rotational temperatures (Kelvin)      0.09864     0.07230     0.06389
 Rotational constants (GHZ):           2.05528     1.50656     1.33129
 Zero-point vibrational energy     408831.6 (Joules/Mol)
                                   97.71311 (Kcal/Mol)
 Warning -- explicit consideration of  14 degrees of freedom as
           vibrations may cause significant error
 Vibrational temperatures:     95.91   197.87   257.22   287.02   309.14
          (Kelvin)            346.25   374.98   436.80   517.88   561.16
                              640.28   744.78   806.23   869.69   928.44
                              951.40   957.90  1143.37  1168.06  1263.60
                             1336.33  1359.71  1473.25  1533.20  1622.26
                             1630.65  1672.98  1688.56  1737.84  1830.52
                             1873.32  1913.71  1990.38  2017.41  2027.07
                             2081.23  2127.03  2133.98  2144.24  2155.72
                             3190.31  4353.72  4377.53  4378.47  4438.96
                             4483.32  4491.50  4492.35  4497.31  5029.01
                             5402.32

 Zero-point correction=                           0.155716 (Hartree/Particle)
 Thermal correction to Energy=                    0.165529
 Thermal correction to Enthalpy=                  0.166474
 Thermal correction to Gibbs Free Energy=         0.121537
 Sum of electronic and zero-point Energies=           -422.981129
 Sum of electronic and thermal Energies=              -422.971315
 Sum of electronic and thermal Enthalpies=            -422.970371
 Sum of electronic and thermal Free Energies=         -423.015308

                     E (Thermal)             CV                S
                      KCal/Mol        Cal/Mol-Kelvin    Cal/Mol-Kelvin
 Total                  103.871             36.795             94.578
 Electronic               0.000              0.000              0.000
 Translational            0.889              2.981             40.409
 Rotational               0.889              2.981             28.746
 Vibrational            102.094             30.833             25.423
 Vibration     1          0.598              1.970              4.250
 Vibration     2          0.614              1.916              2.838
 Vibration     3          0.629              1.868              2.341
 Vibration     4          0.638              1.841              2.138
 Vibration     5          0.645              1.818              2.002
 Vibration     6          0.658              1.778              1.798
 Vibration     7          0.669              1.745              1.658
 Vibration     8          0.695              1.667              1.397
 Vibration     9          0.734              1.555              1.122
 Vibration    10          0.758              1.492              1.000
 Vibration    11          0.804              1.372              0.811
 Vibration    12          0.873              1.211              0.615
 Vibration    13          0.916              1.117              0.523
 Vibration    14          0.963              1.022              0.442

 Normal termination of Gaussian 09 at Tue Jan 28 01:24:03 2020.
