 Gaussian 09, Revision D.01,
 Gaussian 09:  ES64L-G09RevD.01 24-Apr-2013

 -----------------------------
 # b3lyp 6-31G(2df,p) opt Freq
 -----------------------------

 -----
 titel
 -----
 Symbolic Z-matrix:
 Charge =  0 Multiplicity = 1

 SCF Done:  E(RB3LYP) =  -423.125876436     A.U. after   13 cycles
 Optimization completed.
    -- Stationary point found.
 Normal termination of Gaussian 09 at Mon Jan 27 17:28:56 2020.

 ----------------------------------------------------------------------
 #N Geom=AllCheck Guess=TCheck SCRF=Check GenChk RB3LYP/6-31G(2df,p) Fr
 eq
 ----------------------------------------------------------------------

 Structure from the checkpoint file:  "/scratch/puck/g09_8189b7db-62d9-446c-b251-28cda6ed939c/Gau-169185.chk"
 -----
 titel
 -----
 Charge =  0 Multiplicity = 1

                         Standard orientation:
 ---------------------------------------------------------------------
 Center     Atomic      Atomic             Coordinates (Angstroms)
 Number     Number       Type             X           Y           Z
 ---------------------------------------------------------------------
      1          6           0        2.939494   -0.530647   -0.171589
      2          6           0        1.540183   -0.069395    0.069223
      3          6           0        0.481091   -0.656841    1.023631
      4          6           0       -0.625745   -0.096092    0.074572
      5          6           0       -1.799901    0.796253    0.508583
      6          8           0       -2.745906   -0.036772   -0.199764
      7          6           0       -1.723101   -0.997828   -0.522049
      8          6           0        0.487916    0.453777   -0.821273
      9          8           0        1.265023    1.340728   -0.001419
     10          1           0        3.375999    0.002178   -1.020442
     11          1           0        3.566367   -0.342825    0.707532
     12          1           0        2.964972   -1.605433   -0.378100
     13          1           0        0.480196   -1.750765    1.052030
     14          1           0        0.503652   -0.263849    2.043714
     15          1           0       -1.995962    0.808223    1.589046
     16          1           0       -1.787805    1.826601    0.134978
     17          1           0       -1.870517   -1.951237    0.004554
     18          1           0       -1.662816   -1.194669   -1.600672
     19          1           0        0.473351    0.644768   -1.889763
 ---------------------------------------------------------------------

 SCF Done:  E(RB3LYP) =  -423.125876436     A.U. after    1 cycles

 The electronic state is 1-A.
 Alpha  occ. eigenvalues --  -19.15050 -19.13023 -10.24555 -10.23572 -10.23163
 Alpha  occ. eigenvalues --  -10.22612 -10.20446 -10.19267 -10.19114  -1.07766
 Alpha  occ. eigenvalues --   -1.03517  -0.81065  -0.75058  -0.69109  -0.68395
 Alpha  occ. eigenvalues --   -0.64831  -0.56099  -0.54154  -0.50974  -0.49121
 Alpha  occ. eigenvalues --   -0.46215  -0.44723  -0.43992  -0.42500  -0.40811
 Alpha  occ. eigenvalues --   -0.40041  -0.38044  -0.37311  -0.34481  -0.32289
 Alpha  occ. eigenvalues --   -0.30326  -0.28412  -0.25619  -0.24350
 Alpha virt. eigenvalues --    0.07094   0.08613   0.09752   0.10335   0.11341
 Alpha virt. eigenvalues --    0.12133   0.13342   0.14607   0.15210   0.15677
 Alpha virt. eigenvalues --    0.16947   0.17987   0.18563   0.19144   0.19912

 Mulliken charges:
               1
     1  C   -0.500094
     2  C    0.429209
     3  C   -0.391340
     4  C    0.303943
     5  C   -0.128507
     6  O   -0.275370
     7  C   -0.140819
     8  C   -0.128281
     9  O   -0.289508
    10  H    0.136317
    11  H    0.133118
    12  H    0.124942
    13  H    0.106668
    14  H    0.109604
    15  H    0.100184
    16  H    0.111600
    17  H    0.096458
    18  H    0.101129
    19  H    0.100748
 Sum of Mulliken charges =   0.00000

 Dipole moment (field-independent basis, Debye):
    X=              1.7424    Y=             -1.7829    Z=             -0.1657  Tot=              2.4984
 Quadrupole moment (field-independent basis, Debye-Ang):
   XX=            -59.4632   YY=            -53.7959   ZZ=            -50.3822
   XY=             -2.7903   XZ=             -1.2751   YZ=             -0.1247

  Exact polarizability:  85.892  -1.892  70.558   1.127  -0.552  69.525
 Approx polarizability: 109.908  -0.662 109.901   5.353  -0.701 104.846

                      1                      2                      3
                      A                      A                      A
 Frequencies --     72.7037                93.8337               192.9904
 Red. masses --      3.8641                 3.5681                 1.1142
 Frc consts  --      0.0120                 0.0185                 0.0245
 IR Inten    --      4.8395                 1.0795                 0.1756

                      4                      5                      6
                      A                      A                      A
 Frequencies --    217.2297               280.3054               319.5101
 Red. masses --      2.2090                 2.2125                 3.1351
 Frc consts  --      0.0614                 0.1024                 0.1886
 IR Inten    --      1.6659                 0.0544                 4.1603

                      7                      8                      9
                      A                      A                      A
 Frequencies --    374.0703               414.3183               443.6064
 Red. masses --      2.3302                 2.0936                 3.7519
 Frc consts  --      0.1921                 0.2117                 0.4350
 IR Inten    --      0.6982                 2.8542                 1.0081

                     10                     11                     12
                      A                      A                      A
 Frequencies --    556.2157               671.1340               766.4087
 Red. masses --      4.6073                 3.3871                 5.0168
 Frc consts  --      0.8398                 0.8989                 1.7362
 IR Inten    --     10.6924                 0.6459                 7.8398

                     13                     14                     15
                      A                      A                      A
 Frequencies --    840.7530               855.5244               877.8234
 Red. masses --      2.4762                 2.9131                 2.1506
 Frc consts  --      1.0313                 1.2562                 0.9764
 IR Inten    --      3.5961                 4.4374                16.7172

                     16                     17                     18
                      A                      A                      A
 Frequencies --    887.6906               925.0329               974.1838
 Red. masses --      2.1875                 2.2427                 1.5649
 Frc consts  --      1.0156                 1.1307                 0.8750
 IR Inten    --     13.1036                 2.8887                 6.1927

                     19                     20                     21
                      A                      A                      A
 Frequencies --    982.9253              1003.0396              1021.9512
 Red. masses --      3.5572                 1.7710                 1.7314
 Frc consts  --      2.0249                 1.0498                 1.0654
 IR Inten    --     11.1733                 1.1888                 1.1060

                     22                     23                     24
                      A                      A                      A
 Frequencies --   1034.2639              1051.4526              1136.8161
 Red. masses --      9.3207                 1.8013                 2.2981
 Frc consts  --      5.8744                 1.1733                 1.7499
 IR Inten    --     82.8042                17.8643                 4.9244

                     25                     26                     27
                      A                      A                      A
 Frequencies --   1147.2483              1154.9517              1163.8870
 Red. masses --      1.3646                 1.1103                 1.7835
 Frc consts  --      1.0582                 0.8726                 1.4234
 IR Inten    --      2.0859                 0.2285                14.1978

                     28                     29                     30
                      A                      A                      A
 Frequencies --   1188.3637              1202.4930              1225.2154
 Red. masses --      1.5798                 2.0460                 1.7271
 Frc consts  --      1.3145                 1.7431                 1.5276
 IR Inten    --      2.7445                 4.4397                 2.3473

                     31                     32                     33
                      A                      A                      A
 Frequencies --   1265.2885              1304.3816              1312.3039
 Red. masses --      2.5455                 1.3520                 2.0867
 Frc consts  --      2.4011                 1.3553                 2.1173
 IR Inten    --     16.7325                 0.7587                 3.2750

                     34                     35                     36
                      A                      A                      A
 Frequencies --   1382.6306              1403.6086              1454.0488
 Red. masses --      1.7525                 1.2980                 1.8131
 Frc consts  --      1.9738                 1.5066                 2.2585
 IR Inten    --      4.4340                 2.4276                14.0117

                     37                     38                     39
                      A                      A                      A
 Frequencies --   1475.3975              1485.6512              1496.6582
 Red. masses --      1.1987                 1.2009                 1.3068
 Frc consts  --      1.5374                 1.5616                 1.7246
 IR Inten    --      1.7105                 9.3796                 5.1737

                     40                     41                     42
                      A                      A                      A
 Frequencies --   1507.7621              1532.6826              2992.7410
 Red. masses --      1.0793                 1.1105                 1.0545
 Frc consts  --      1.4456                 1.5370                 5.5648
 IR Inten    --      0.9920                 0.1873                94.8629

                     43                     44                     45
                      A                      A                      A
 Frequencies --   3011.1713              3034.3237              3037.3004
 Red. masses --      1.0605                 1.0366                 1.1086
 Frc consts  --      5.6652                 5.6234                 6.0253
 IR Inten    --     29.5229                21.5971                37.0060

                     46                     47                     48
                      A                      A                      A
 Frequencies --   3052.2206              3061.7626              3096.4143
 Red. masses --      1.0579                 1.1067                 1.0998
 Frc consts  --      5.8066                 6.1128                 6.2127
 IR Inten    --     27.9018                37.9481                12.6184

                     49                     50                     51
                      A                      A                      A
 Frequencies --   3109.5598              3122.0137              3169.1991
 Red. masses --      1.1079                 1.1011                 1.0939
 Frc consts  --      6.3119                 6.3236                 6.4733
 IR Inten    --     19.2610                12.6642                16.5373

 - Thermochemistry -
 -------------------
 Temperature   298.150 Kelvin.  Pressure   1.00000 Atm.
 Atom     1 has atomic number  6 and mass  12.00000

 Molecular mass:   126.06808 amu.
 Principal axes and moments of inertia in atomic units:
                           1         2         3
     Eigenvalues --   424.265711623.104681733.77068
           X            0.99983  -0.01769  -0.00590
           Y            0.01773   0.99982   0.00680
           Z            0.00578  -0.00690   0.99996
 This molecule is an asymmetric top.
 Rotational symmetry number  1.
 Rotational temperatures (Kelvin)      0.20415     0.05336     0.04996
 Rotational constants (GHZ):           4.25380     1.11191     1.04093
 Zero-point vibrational energy     415002.9 (Joules/Mol)
                                   99.18807 (Kcal/Mol)
 Warning -- explicit consideration of  10 degrees of freedom as
           vibrations may cause significant error
 Vibrational temperatures:    104.60   135.01   277.67   312.54   403.30
          (Kelvin)            459.70   538.20   596.11   638.25   800.27
                              965.61  1102.69  1209.65  1230.91  1262.99
                             1277.19  1330.91  1401.63  1414.21  1443.15
                             1470.36  1488.07  1512.80  1635.62  1650.63
                             1661.72  1674.57  1709.79  1730.12  1762.81
                             1820.47  1876.71  1888.11  1989.29  2019.48
                             2092.05  2122.77  2137.52  2153.35  2169.33
                             2205.19  4305.88  4332.40  4365.71  4369.99
                             4391.46  4405.19  4455.04  4473.96  4491.88
                             4559.76

 Zero-point correction=                           0.158066 (Hartree/Particle)
 Thermal correction to Energy=                    0.166401
 Thermal correction to Enthalpy=                  0.167345
 Thermal correction to Gibbs Free Energy=         0.124874
 Sum of electronic and zero-point Energies=           -422.967810
 Sum of electronic and thermal Energies=              -422.959476
 Sum of electronic and thermal Enthalpies=            -422.958532
 Sum of electronic and thermal Free Energies=         -423.001003

                     E (Thermal)             CV                S
                      KCal/Mol        Cal/Mol-Kelvin    Cal/Mol-Kelvin
 Total                  104.418             31.510             89.388
 Electronic               0.000              0.000              0.000
 Translational            0.889              2.981             40.409
 Rotational               0.889              2.981             28.570
 Vibrational            102.641             25.549             20.410
 Vibration     1          0.599              1.967              4.079
 Vibration     2          0.603              1.954              3.579
 Vibration     3          0.635              1.850              2.199
 Vibration     4          0.646              1.815              1.982
 Vibration     5          0.680              1.710              1.532
 Vibration     6          0.705              1.636              1.313
 Vibration     7          0.745              1.525              1.063
 Vibration     8          0.778              1.439              0.911
 Vibration     9          0.803              1.375              0.815
 Vibration    10          0.912              1.126              0.531

 Normal termination of Gaussian 09 at Mon Jan 27 18:15:02 2020.
