 Gaussian 09, Revision D.01,
 Gaussian 09:  ES64L-G09RevD.01 24-Apr-2013

 -----------------------------
 # b3lyp 6-31G(2df,p) opt Freq
 -----------------------------

 -----
 titel
 -----
 Symbolic Z-matrix:
 Charge =  0 Multiplicity = 1

 SCF Done:  E(RB3LYP) =  -423.189264515     A.U. after   14 cycles
 Optimization completed.
    -- Stationary point found.
 Normal termination of Gaussian 09 at Mon Jan 27 13:12:10 2020.

 ----------------------------------------------------------------------
 #N Geom=AllCheck Guess=TCheck SCRF=Check GenChk RB3LYP/6-31G(2df,p) Fr
 eq
 ----------------------------------------------------------------------

 Structure from the checkpoint file:  "/scratch/puck/g09_5da2cbe2-51d1-4783-a5cb-ef23a8b1857a/Gau-156236.chk"
 -----
 titel
 -----
 Charge =  0 Multiplicity = 1

                         Standard orientation:
 ---------------------------------------------------------------------
 Center     Atomic      Atomic             Coordinates (Angstroms)
 Number     Number       Type             X           Y           Z
 ---------------------------------------------------------------------
      1          8           0       -1.764428    1.908320   -0.010318
      2          6           0       -2.382342    0.893964   -0.202851
      3          6           0       -1.842110   -0.511432    0.110000
      4          8           0       -2.566299   -1.450717   -0.129620
      5          6           0       -0.444061   -0.608686    0.665113
      6          6           0        0.613907   -0.482806   -0.458508
      7          6           0        2.025601   -0.565490    0.079291
      8          6           0        3.163066    0.076479   -0.672223
      9          6           0        2.696329    0.665244    0.637251
     10          1           0       -3.410128    0.871745   -0.623918
     11          1           0       -0.285310    0.197739    1.388115
     12          1           0       -0.345143   -1.573332    1.170275
     13          1           0        0.444888   -1.274289   -1.199263
     14          1           0        0.477671    0.474061   -0.975168
     15          1           0        2.257139   -1.501502    0.582201
     16          1           0        4.118300   -0.435969   -0.697507
     17          1           0        2.926610    0.617779   -1.582528
     18          1           0        3.334651    0.559887    1.507339
     19          1           0        2.144789    1.599418    0.601519
 ---------------------------------------------------------------------

 SCF Done:  E(RB3LYP) =  -423.189264515     A.U. after    1 cycles

 The electronic state is 1-A.
 Alpha  occ. eigenvalues --  -19.17229 -19.15832 -10.28878 -10.28453 -10.20009
 Alpha  occ. eigenvalues --  -10.19861 -10.19679 -10.18772 -10.18724  -1.07823
 Alpha  occ. eigenvalues --   -1.06054  -0.86348  -0.79066  -0.69681  -0.65455
 Alpha  occ. eigenvalues --   -0.60228  -0.57290  -0.54634  -0.50267  -0.48936
 Alpha  occ. eigenvalues --   -0.47754  -0.46612  -0.44063  -0.43416  -0.42832
 Alpha  occ. eigenvalues --   -0.39957  -0.37188  -0.36623  -0.36370  -0.35273
 Alpha  occ. eigenvalues --   -0.31627  -0.29347  -0.28643  -0.24795
 Alpha virt. eigenvalues --   -0.09458   0.03108   0.09275   0.09949   0.11448
 Alpha virt. eigenvalues --    0.12091   0.13477   0.14391   0.15376   0.15974
 Alpha virt. eigenvalues --    0.16762   0.17445   0.21751   0.21957   0.22817

 Mulliken charges:
               1
     1  O   -0.217187
     2  C    0.080178
     3  C    0.287208
     4  O   -0.276022
     5  C   -0.287932
     6  C   -0.221047
     7  C    0.033909
     8  C   -0.278751
     9  C   -0.257285
    10  H    0.107845
    11  H    0.131488
    12  H    0.122380
    13  H    0.113400
    14  H    0.116025
    15  H    0.084614
    16  H    0.113990
    17  H    0.113701
    18  H    0.113210
    19  H    0.120276
 Sum of Mulliken charges =   0.00000

 Dipole moment (field-independent basis, Debye):
    X=              1.3055    Y=             -0.1612    Z=              0.2200  Tot=              1.3337
 Quadrupole moment (field-independent basis, Debye-Ang):
   XX=            -54.1480   YY=            -60.0173   ZZ=            -51.4482
   XY=             -4.0853   XZ=              0.2280   YZ=             -1.2539

  Exact polarizability:  94.778   4.288  75.528   3.133   0.429  62.145
 Approx polarizability: 119.550  16.181 125.614   5.073   4.051  94.357

                      1                      2                      3
                      A                      A                      A
 Frequencies --     38.5624                48.9238               111.7806
 Red. masses --      4.6465                 3.3262                 2.7602
 Frc consts  --      0.0041                 0.0047                 0.0203
 IR Inten    --      0.0217                 0.0334                 0.3192

                      4                      5                      6
                      A                      A                      A
 Frequencies --    119.9813               130.0549               209.8184
 Red. masses --      4.6488                 2.6353                 4.0436
 Frc consts  --      0.0394                 0.0263                 0.1049
 IR Inten    --     13.6841                 4.1192                 4.8405

                      7                      8                      9
                      A                      A                      A
 Frequencies --    275.1841               354.1689               406.8011
 Red. masses --      2.8696                 2.6320                 2.5765
 Frc consts  --      0.1280                 0.1945                 0.2512
 IR Inten    --      8.8360                 1.1959                 1.2649

                     10                     11                     12
                      A                      A                      A
 Frequencies --    486.0654               563.4064               585.2767
 Red. masses --      4.0164                 3.2831                 3.9165
 Frc consts  --      0.5591                 0.6140                 0.7905
 IR Inten    --     34.0448                 8.7405                 4.1819

                     13                     14                     15
                      A                      A                      A
 Frequencies --    771.3201               774.5257               805.4002
 Red. masses --      1.2194                 1.4647                 2.3211
 Frc consts  --      0.4274                 0.5177                 0.8871
 IR Inten    --      4.4432                 3.3961                16.2254

                     16                     17                     18
                      A                      A                      A
 Frequencies --    824.8402               848.8862               925.1503
 Red. masses --      1.2378                 2.0792                 2.8498
 Frc consts  --      0.4962                 0.8828                 1.4371
 IR Inten    --      2.7767                 5.3945                 6.4107

                     19                     20                     21
                      A                      A                      A
 Frequencies --    951.5423               982.8505              1023.9409
 Red. masses --      2.2319                 1.9295                 2.2774
 Frc consts  --      1.1907                 1.0982                 1.4068
 IR Inten    --      1.8772                13.3319                 7.9949

                     22                     23                     24
                      A                      A                      A
 Frequencies --   1055.3163              1059.5678              1080.8143
 Red. masses --      1.5868                 2.0160                 1.3764
 Frc consts  --      1.0412                 1.3335                 0.9473
 IR Inten    --      3.3146                 2.5608                 1.1414

                     25                     26                     27
                      A                      A                      A
 Frequencies --   1108.6793              1139.1407              1198.0203
 Red. masses --      1.5828                 1.1251                 1.3899
 Frc consts  --      1.1463                 0.8602                 1.1754
 IR Inten    --      2.1239                 0.7861                 0.3909

                     28                     29                     30
                      A                      A                      A
 Frequencies --   1211.9915              1229.5149              1258.6857
 Red. masses --      1.9750                 1.8166                 1.6070
 Frc consts  --      1.7093                 1.6180                 1.5000
 IR Inten    --      2.9323                 1.2132                14.7597

                     31                     32                     33
                      A                      A                      A
 Frequencies --   1282.8298              1320.4468              1351.8337
 Red. masses --      1.7437                 1.1658                 1.3618
 Frc consts  --      1.6907                 1.1977                 1.4663
 IR Inten    --     15.4618                 6.1045                26.0007

                     34                     35                     36
                      A                      A                      A
 Frequencies --   1362.5121              1414.6488              1465.3895
 Red. masses --      1.2051                 1.5645                 1.1130
 Frc consts  --      1.3181                 1.8446                 1.4081
 IR Inten    --      9.7020                 0.3351                 2.5526

                     37                     38                     39
                      A                      A                      A
 Frequencies --   1470.5307              1492.0378              1508.0432
 Red. masses --      1.0904                 1.1265                 1.3457
 Frc consts  --      1.3892                 1.4775                 1.8032
 IR Inten    --      2.9187                 3.7593                 2.4784

                     40                     41                     42
                      A                      A                      A
 Frequencies --   1800.9525              1820.9139              2920.7465
 Red. masses --     11.1717                11.0119                 1.0878
 Frc consts  --     21.3488                21.5125                 5.4676
 IR Inten    --    110.4165                95.2771               106.3602

                     43                     44                     45
                      A                      A                      A
 Frequencies --   3027.1943              3055.5886              3070.5722
 Red. masses --      1.0597                 1.0568                 1.1009
 Frc consts  --      5.7213                 5.8136                 6.1153
 IR Inten    --     16.8417                10.9933                 7.9870

                     46                     47                     48
                      A                      A                      A
 Frequencies --   3115.8993              3129.8228              3132.8032
 Red. masses --      1.1056                 1.0506                 1.0698
 Frc consts  --      6.3245                 6.0637                 6.1862
 IR Inten    --      7.7880                18.9596                22.7697

                     49                     50                     51
                      A                      A                      A
 Frequencies --   3136.4078              3208.4703              3223.2962
 Red. masses --      1.0776                 1.1176                 1.1153
 Frc consts  --      6.2458                 6.7787                 6.8274
 IR Inten    --      7.0755                 0.4261                20.7166

 - Thermochemistry -
 -------------------
 Temperature   298.150 Kelvin.  Pressure   1.00000 Atm.
 Atom     1 has atomic number  8 and mass  15.99491

 Molecular mass:   126.06808 amu.
 Principal axes and moments of inertia in atomic units:
                           1         2         3
     Eigenvalues --   582.965672202.016102561.87620
           X            1.00000  -0.00206   0.00086
           Y            0.00207   0.99997  -0.00775
           Z           -0.00084   0.00775   0.99997
 This molecule is an asymmetric top.
 Rotational symmetry number  1.
 Warning -- assumption of classical behavior for rotation
           may cause significant error
 Rotational temperatures (Kelvin)      0.14857     0.03933     0.03381
 Rotational constants (GHZ):           3.09579     0.81959     0.70446
 Zero-point vibrational energy     412060.6 (Joules/Mol)
                                   98.48484 (Kcal/Mol)
 Warning -- explicit consideration of  12 degrees of freedom as
           vibrations may cause significant error
 Vibrational temperatures:     55.48    70.39   160.83   172.63   187.12
          (Kelvin)            301.88   395.93   509.57   585.30   699.34
                              810.62   842.08  1109.76  1114.37  1158.79
                             1186.76  1221.36  1331.08  1369.06  1414.10
                             1473.22  1518.36  1524.48  1555.05  1595.14
                             1638.97  1723.68  1743.78  1769.00  1810.97
                             1845.70  1899.83  1944.98  1960.35  2035.36
                             2108.37  2115.76  2146.71  2169.74  2591.17
                             2619.89  4202.30  4355.45  4396.30  4417.86
                             4483.08  4503.11  4507.40  4512.59  4616.27
                             4637.60

 Zero-point correction=                           0.156946 (Hartree/Particle)
 Thermal correction to Energy=                    0.166620
 Thermal correction to Enthalpy=                  0.167564
 Thermal correction to Gibbs Free Energy=         0.120555
 Sum of electronic and zero-point Energies=           -423.032319
 Sum of electronic and thermal Energies=              -423.022644
 Sum of electronic and thermal Enthalpies=            -423.021700
 Sum of electronic and thermal Free Energies=         -423.068710

                     E (Thermal)             CV                S
                      KCal/Mol        Cal/Mol-Kelvin    Cal/Mol-Kelvin
 Total                  104.556             33.827             98.940
 Electronic               0.000              0.000              0.000
 Translational            0.889              2.981             40.409
 Rotational               0.889              2.981             29.576
 Vibrational            102.778             27.865             28.955
 Vibration     1          0.594              1.981              5.332
 Vibration     2          0.595              1.978              4.860
 Vibration     3          0.607              1.940              3.238
 Vibration     4          0.609              1.933              3.101
 Vibration     5          0.612              1.923              2.945
 Vibration     6          0.642              1.826              2.045
 Vibration     7          0.677              1.719              1.563
 Vibration     8          0.730              1.567              1.148
 Vibration     9          0.772              1.455              0.938
 Vibration    10          0.842              1.281              0.694
 Vibration    11          0.919              1.110              0.517
 Vibration    12          0.942              1.063              0.476

 Optimization completed.
    -- Stationary point found.
 Normal termination of Gaussian 09 at Mon Jan 27 13:47:59 2020.
