 Gaussian 09, Revision D.01,
 Gaussian 09:  ES64L-G09RevD.01 24-Apr-2013

 -----------------------------
 # b3lyp 6-31G(2df,p) opt Freq
 -----------------------------

 -----
 titel
 -----
 Symbolic Z-matrix:
 Charge =  0 Multiplicity = 1

 SCF Done:  E(RB3LYP) =  -423.174695043     A.U. after   13 cycles
 Optimization completed.
    -- Stationary point found.
 Normal termination of Gaussian 09 at Mon Jan 27 23:53:14 2020.

 ----------------------------------------------------------------------
 #N Geom=AllCheck Guess=TCheck SCRF=Check GenChk RB3LYP/6-31G(2df,p) Fr
 eq
 ----------------------------------------------------------------------

 Structure from the checkpoint file:  "/scratch/puck/g09_5658933e-68cd-4f5a-bcfd-7a0c2eca0a62/Gau-194141.chk"
 -----
 titel
 -----
 Charge =  0 Multiplicity = 1

                         Standard orientation:
 ---------------------------------------------------------------------
 Center     Atomic      Atomic             Coordinates (Angstroms)
 Number     Number       Type             X           Y           Z
 ---------------------------------------------------------------------
      1          6           0        2.739823    0.400928   -0.174642
      2          6           0        1.466101   -0.435771   -0.159879
      3          6           0        0.471717   -0.257318    1.017408
      4          8           0       -0.515683   -1.266381    0.717090
      5          6           0       -0.917857   -0.832962   -0.596951
      6          8           0       -2.063738   -0.031536   -0.483164
      7          6           0       -1.644601    1.091248    0.318054
      8          6           0       -0.118825    1.002982    0.297382
      9          6           0        0.247694    0.125215   -0.945924
     10          1           0        3.446137    0.041112    0.581244
     11          1           0        3.235845    0.327617   -1.148370
     12          1           0        2.555902    1.461437    0.019628
     13          1           0        1.701153   -1.487605   -0.352508
     14          1           0        0.743842   -0.297029    2.071935
     15          1           0       -1.141912   -1.685543   -1.236146
     16          1           0       -2.024771    2.010873   -0.139683
     17          1           0       -2.057272    1.004339    1.330433
     18          1           0        0.421361    1.936035    0.434715
     19          1           0        0.290773    0.506177   -1.965349
 ---------------------------------------------------------------------

 SCF Done:  E(RB3LYP) =  -423.174695043     A.U. after    1 cycles

 The electronic state is 1-A.
 Alpha  occ. eigenvalues --  -19.13717 -19.13540 -10.27124 -10.23722 -10.22696
 Alpha  occ. eigenvalues --  -10.19716 -10.19491 -10.19355 -10.18324  -1.07852
 Alpha  occ. eigenvalues --   -1.00019  -0.84570  -0.74578  -0.72498  -0.66868
 Alpha  occ. eigenvalues --   -0.61957  -0.56877  -0.54544  -0.53068  -0.49717
 Alpha  occ. eigenvalues --   -0.47210  -0.44205  -0.42951  -0.41179  -0.39846
 Alpha  occ. eigenvalues --   -0.38993  -0.36725  -0.35012  -0.34134  -0.32584
 Alpha  occ. eigenvalues --   -0.31565  -0.31321  -0.25822  -0.24158
 Alpha virt. eigenvalues --    0.09079   0.09419   0.11395   0.12193   0.13261
 Alpha virt. eigenvalues --    0.14154   0.14500   0.15198   0.15640   0.16370
 Alpha virt. eigenvalues --    0.17091   0.18225   0.19875   0.20554   0.21582

 Mulliken charges:
               1
     1  C   -0.427318
     2  C    0.016435
     3  C    0.068010
     4  O   -0.286077
     5  C    0.208515
     6  O   -0.255123
     7  C   -0.111638
     8  C   -0.079871
     9  C   -0.111354
    10  H    0.120477
    11  H    0.121769
    12  H    0.116898
    13  H    0.076519
    14  H    0.077124
    15  H    0.091018
    16  H    0.105768
    17  H    0.109471
    18  H    0.084638
    19  H    0.074740
 Sum of Mulliken charges =   0.00000

 Dipole moment (field-independent basis, Debye):
    X=              2.0566    Y=              1.6048    Z=             -0.2580  Tot=              2.6214
 Quadrupole moment (field-independent basis, Debye-Ang):
   XX=            -56.3479   YY=            -52.6344   ZZ=            -51.6917
   XY=             -1.8146   XZ=             -0.2444   YZ=              2.6512

  Exact polarizability:  82.773  -2.538  69.605   0.096   2.367  67.766
 Approx polarizability: 109.496  -1.582 107.302   1.943   2.407 106.005

                      1                      2                      3
                      A                      A                      A
 Frequencies --    198.4137               222.2568               243.1107
 Red. masses --      1.0370                 2.7876                 2.9071
 Frc consts  --      0.0241                 0.0811                 0.1012
 IR Inten    --      0.0079                 0.5196                 0.2024

                      4                      5                      6
                      A                      A                      A
 Frequencies --    272.5484               400.3551               484.5946
 Red. masses --      2.5439                 3.1281                 3.9467
 Frc consts  --      0.1113                 0.2954                 0.5461
 IR Inten    --      3.1926                 0.5576                 1.7478

                      7                      8                      9
                      A                      A                      A
 Frequencies --    531.0660               611.1726               700.5837
 Red. masses --      7.1821                 4.9780                 3.6184
 Frc consts  --      1.1934                 1.0956                 1.0464
 IR Inten    --      6.6691                 1.1313                 4.1330

                     10                     11                     12
                      A                      A                      A
 Frequencies --    758.6212               813.5909               827.1764
 Red. masses --      4.4198                 1.9313                 2.8232
 Frc consts  --      1.4986                 0.7532                 1.1381
 IR Inten    --      3.2540                 7.7837                 6.5102

                     13                     14                     15
                      A                      A                      A
 Frequencies --    873.3409               892.7907               917.3289
 Red. masses --      3.1381                 2.2617                 3.4935
 Frc consts  --      1.4102                 1.0621                 1.7320
 IR Inten    --     21.4037                 3.3756                30.8455

                     16                     17                     18
                      A                      A                      A
 Frequencies --    924.5755               954.0205               962.8999
 Red. masses --      2.6161                 2.9986                 2.1568
 Frc consts  --      1.3176                 1.6080                 1.1782
 IR Inten    --      8.9429                99.9613                 1.8872

                     19                     20                     21
                      A                      A                      A
 Frequencies --    995.6610              1023.6544              1041.3440
 Red. masses --      1.8872                 3.3692                 1.4822
 Frc consts  --      1.1023                 2.0801                 0.9470
 IR Inten    --      3.1254                14.1099                 7.7095

                     22                     23                     24
                      A                      A                      A
 Frequencies --   1076.4081              1080.3037              1101.7780
 Red. masses --      1.9835                 1.7543                 3.7579
 Frc consts  --      1.3541                 1.2063                 2.6877
 IR Inten    --     15.3887                17.1345                59.2793

                     25                     26                     27
                      A                      A                      A
 Frequencies --   1118.1842              1126.9141              1171.5528
 Red. masses --      1.9350                 2.2547                 1.4771
 Frc consts  --      1.4255                 1.6870                 1.1945
 IR Inten    --     10.1109                 7.3351                 7.4710

                     28                     29                     30
                      A                      A                      A
 Frequencies --   1219.7467              1233.1013              1238.2560
 Red. masses --      1.3344                 1.4310                 1.3741
 Frc consts  --      1.1697                 1.2820                 1.2413
 IR Inten    --      2.2553                 3.4427                 6.6668

                     31                     32                     33
                      A                      A                      A
 Frequencies --   1259.8942              1271.3547              1300.9053
 Red. masses --      1.5653                 1.5302                 1.4811
 Frc consts  --      1.4640                 1.4572                 1.4769
 IR Inten    --      0.9536                 3.8902                12.3329

                     34                     35                     36
                      A                      A                      A
 Frequencies --   1318.7142              1335.2243              1379.8267
 Red. masses --      1.8663                 1.2728                 1.5277
 Frc consts  --      1.9122                 1.3370                 1.7138
 IR Inten    --      8.2559                 3.6351                19.1823

                     37                     38                     39
                      A                      A                      A
 Frequencies --   1395.5371              1416.4236              1496.9190
 Red. masses --      1.4917                 1.2342                 1.0486
 Frc consts  --      1.7116                 1.4589                 1.3844
 IR Inten    --      3.6414                 2.6154                 2.8585

                     40                     41                     42
                      A                      A                      A
 Frequencies --   1501.4737              1515.4766              3027.0393
 Red. masses --      1.0483                 1.0925                 1.0578
 Frc consts  --      1.3924                 1.4783                 5.7105
 IR Inten    --      3.9907                 0.3604                62.2067

                     43                     44                     45
                      A                      A                      A
 Frequencies --   3034.4548              3053.8477              3069.2339
 Red. masses --      1.0364                 1.0847                 1.1079
 Frc consts  --      5.6226                 5.9601                 6.1493
 IR Inten    --     27.4258                21.8241                31.4158

                     46                     47                     48
                      A                      A                      A
 Frequencies --   3094.6836              3109.2326              3124.1938
 Red. masses --      1.1011                 1.0997                 1.0904
 Frc consts  --      6.2132                 6.2639                 6.2708
 IR Inten    --     20.3700                29.4396                50.3344

                     49                     50                     51
                      A                      A                      A
 Frequencies --   3127.3132              3141.9112              3155.5219
 Red. masses --      1.0899                 1.0911                 1.0902
 Frc consts  --      6.2801                 6.3459                 6.3961
 IR Inten    --     10.9840                43.8651                14.3622

 - Thermochemistry -
 -------------------
 Temperature   298.150 Kelvin.  Pressure   1.00000 Atm.
 Atom     1 has atomic number  6 and mass  12.00000

 Molecular mass:   126.06808 amu.
 Principal axes and moments of inertia in atomic units:
                           1         2         3
     Eigenvalues --   492.337891186.283411281.35602
           X            0.99994  -0.00324  -0.01007
           Y            0.00419   0.99538   0.09594
           Z            0.00972  -0.09598   0.99534
 This molecule is an asymmetric top.
 Rotational symmetry number  1.
 Warning -- assumption of classical behavior for rotation
           may cause significant error
 Rotational temperatures (Kelvin)      0.17592     0.07301     0.06760
 Rotational constants (GHZ):           3.66566     1.52134     1.40846
 Zero-point vibrational energy     425538.8 (Joules/Mol)
                                  101.70621 (Kcal/Mol)
 Warning -- explicit consideration of   8 degrees of freedom as
           vibrations may cause significant error
 Vibrational temperatures:    285.47   319.78   349.78   392.14   576.02
          (Kelvin)            697.22   764.08   879.34  1007.98  1091.49
                             1170.57  1190.12  1256.54  1284.53  1319.83
                             1330.26  1372.62  1385.40  1432.53  1472.81
                             1498.26  1548.71  1554.31  1585.21  1608.82
                             1621.38  1685.60  1754.94  1774.16  1781.57
                             1812.70  1829.19  1871.71  1897.33  1921.09
                             1985.26  2007.86  2037.92  2153.73  2160.28
                             2180.43  4355.23  4365.90  4393.80  4415.94
                             4452.55  4473.49  4495.01  4499.50  4520.50
                             4540.09

 Zero-point correction=                           0.162079 (Hartree/Particle)
 Thermal correction to Energy=                    0.168889
 Thermal correction to Enthalpy=                  0.169833
 Thermal correction to Gibbs Free Energy=         0.131204
 Sum of electronic and zero-point Energies=           -423.012616
 Sum of electronic and thermal Energies=              -423.005806
 Sum of electronic and thermal Enthalpies=            -423.004862
 Sum of electronic and thermal Free Energies=         -423.043491

                     E (Thermal)             CV                S
                      KCal/Mol        Cal/Mol-Kelvin    Cal/Mol-Kelvin
 Total                  105.980             28.221             81.302
 Electronic               0.000              0.000              0.000
 Translational            0.889              2.981             40.409
 Rotational               0.889              2.981             28.106
 Vibrational            104.202             22.259             12.788
 Vibration     1          0.637              1.842              2.148
 Vibration     2          0.648              1.807              1.941
 Vibration     3          0.659              1.774              1.780
 Vibration     4          0.676              1.724              1.580
 Vibration     5          0.766              1.469              0.961
 Vibration     6          0.841              1.284              0.698
 Vibration     7          0.886              1.181              0.585
 Vibration     8          0.970              1.008              0.431

 Normal termination of Gaussian 09 at Tue Jan 28 00:39:19 2020.
