 Gaussian 09, Revision D.01,
 Gaussian 09:  ES64L-G09RevD.01 24-Apr-2013

 -----------------------------
 # b3lyp 6-31G(2df,p) opt Freq
 -----------------------------

 -----
 titel
 -----
 Symbolic Z-matrix:
 Charge =  0 Multiplicity = 1

 SCF Done:  E(RB3LYP) =  -423.173821040     A.U. after   14 cycles
 Optimization completed.
    -- Stationary point found.
 Normal termination of Gaussian 09 at Mon Jan 27 18:32:45 2020.

 ----------------------------------------------------------------------
 #N Geom=AllCheck Guess=TCheck SCRF=Check GenChk RB3LYP/6-31G(2df,p) Fr
 eq
 ----------------------------------------------------------------------

 Structure from the checkpoint file:  "/scratch/puck/g09_a2ca308b-9e07-4b82-8859-b5d6046f7ce5/Gau-89375.chk"
 -----
 titel
 -----
 Charge =  0 Multiplicity = 1

                         Standard orientation:
 ---------------------------------------------------------------------
 Center     Atomic      Atomic             Coordinates (Angstroms)
 Number     Number       Type             X           Y           Z
 ---------------------------------------------------------------------
      1          8           0        0.913700   -1.082338   -1.509180
      2          6           0        0.842887   -0.435734   -0.285886
      3          6           0        1.750739    0.810990   -0.225461
      4          6           0        0.539869    1.715042    0.144711
      5          6           0       -0.403940    0.497066    0.227722
      6          6           0       -0.356711   -0.298697    1.555350
      7          6           0        0.732402   -1.265323    1.006028
      8          6           0       -1.676276    0.493079   -0.534128
      9          8           0       -2.595240   -0.270015   -0.336401
     10          1           0        0.337219   -1.854699   -1.487105
     11          1           0        2.552164    0.751866    0.515804
     12          1           0        2.190170    1.033448   -1.199405
     13          1           0        0.628387    2.297654    1.065187
     14          1           0        0.265751    2.395721   -0.667424
     15          1           0       -0.053058    0.298797    2.418199
     16          1           0       -1.308344   -0.785097    1.772984
     17          1           0        1.655156   -1.377219    1.583015
     18          1           0        0.329351   -2.264472    0.808038
     19          1           0       -1.718298    1.224291   -1.374659
 ---------------------------------------------------------------------

 SCF Done:  E(RB3LYP) =  -423.173821040     A.U. after    1 cycles

 The electronic state is 1-A.
 Alpha  occ. eigenvalues --  -19.15777 -19.13162 -10.26159 -10.25431 -10.19294
 Alpha  occ. eigenvalues --  -10.19224 -10.19067 -10.18890 -10.18786  -1.04505
 Alpha  occ. eigenvalues --   -1.03624  -0.87336  -0.76422  -0.71003  -0.64625
 Alpha  occ. eigenvalues --   -0.61765  -0.58688  -0.55253  -0.50582  -0.47722
 Alpha  occ. eigenvalues --   -0.47504  -0.43504  -0.42303  -0.41862  -0.40720
 Alpha  occ. eigenvalues --   -0.40050  -0.36954  -0.35587  -0.34628  -0.34221
 Alpha  occ. eigenvalues --   -0.32310  -0.29039  -0.25994  -0.23721
 Alpha virt. eigenvalues --   -0.02699   0.06771   0.08401   0.09536   0.11271
 Alpha virt. eigenvalues --    0.11636   0.12516   0.15247   0.15873   0.16542
 Alpha virt. eigenvalues --    0.17732   0.19460   0.20568   0.22208   0.23856

 Mulliken charges:
               1
     1  O   -0.460620
     2  C    0.382125
     3  C   -0.257344
     4  C   -0.298691
     5  C    0.192198
     6  C   -0.291249
     7  C   -0.288656
     8  C    0.060813
     9  O   -0.271478
    10  H    0.288050
    11  H    0.103903
    12  H    0.120541
    13  H    0.104462
    14  H    0.108295
    15  H    0.102341
    16  H    0.131984
    17  H    0.104969
    18  H    0.101417
    19  H    0.066939
 Sum of Mulliken charges =   0.00000

 Dipole moment (field-independent basis, Debye):
    X=              1.9826    Y=              0.3621    Z=              0.8141  Tot=              2.1736
 Quadrupole moment (field-independent basis, Debye-Ang):
   XX=            -62.0137   YY=            -48.8383   ZZ=            -53.5670
   XY=             -0.8909   XZ=              1.6388   YZ=             -0.0277

  Exact polarizability:  83.170   2.001  75.642   2.082  -3.368  71.133
 Approx polarizability: 126.785   6.000 110.873   0.253  -2.478 104.889

                      1                      2                      3
                      A                      A                      A
 Frequencies --     62.0780                71.5044               200.1839
 Red. masses --      2.6567                 4.1492                 2.5516
 Frc consts  --      0.0060                 0.0125                 0.0602
 IR Inten    --      3.0502                 5.0664                 0.6591

                      4                      5                      6
                      A                      A                      A
 Frequencies --    242.5461               259.8607               347.6054
 Red. masses --      2.8279                 1.8893                 2.5475
 Frc consts  --      0.0980                 0.0752                 0.1814
 IR Inten    --      3.3089                 8.5516                 2.3222

                      7                      8                      9
                      A                      A                      A
 Frequencies --    366.7481               405.7180               466.2618
 Red. masses --      1.3946                 2.2572                 3.1202
 Frc consts  --      0.1105                 0.2189                 0.3997
 IR Inten    --     60.8499                47.1393                 2.0929

                     10                     11                     12
                      A                      A                      A
 Frequencies --    486.7308               586.3019               649.7084
 Red. masses --      4.2715                 3.7042                 3.8949
 Frc consts  --      0.5962                 0.7502                 0.9687
 IR Inten    --      5.9619                 5.0558                 6.2515

                     13                     14                     15
                      A                      A                      A
 Frequencies --    741.2157               747.5371               774.7158
 Red. masses --      1.8286                 1.4454                 1.9719
 Frc consts  --      0.5919                 0.4759                 0.6973
 IR Inten    --      4.5411                 4.8303                 3.4217

                     16                     17                     18
                      A                      A                      A
 Frequencies --    805.1355               904.8439               921.6196
 Red. masses --      2.6027                 2.0089                 2.3219
 Frc consts  --      0.9940                 0.9691                 1.1620
 IR Inten    --     70.2312                 6.4405                27.2460

                     19                     20                     21
                      A                      A                      A
 Frequencies --    949.1901               966.1544              1013.3355
 Red. masses --      2.4496                 2.7823                 2.0656
 Frc consts  --      1.3003                 1.5302                 1.2497
 IR Inten    --      0.8094                 0.1591                10.4416

                     22                     23                     24
                      A                      A                      A
 Frequencies --   1035.3649              1061.4957              1072.1209
 Red. masses --      1.4975                 1.9137                 2.2551
 Frc consts  --      0.9458                 1.2705                 1.5272
 IR Inten    --      3.4539                25.4705                74.9682

                     25                     26                     27
                      A                      A                      A
 Frequencies --   1109.4256              1194.3623              1217.1233
 Red. masses --      1.6384                 2.3115                 1.4863
 Frc consts  --      1.1881                 1.9428                 1.2973
 IR Inten    --     43.5636                14.1559                15.3701

                     28                     29                     30
                      A                      A                      A
 Frequencies --   1233.4046              1241.2526              1259.8930
 Red. masses --      1.3306                 1.4453                 1.4313
 Frc consts  --      1.1926                 1.3120                 1.3386
 IR Inten    --      5.7566                 3.0361                11.3675

                     31                     32                     33
                      A                      A                      A
 Frequencies --   1265.6194              1273.8369              1304.5528
 Red. masses --      1.4767                 1.5790                 2.3845
 Frc consts  --      1.3937                 1.5096                 2.3910
 IR Inten    --      5.5447                 7.9598                76.4346

                     34                     35                     36
                      A                      A                      A
 Frequencies --   1337.6002              1391.2720              1425.1203
 Red. masses --      2.3712                 1.7990                 1.2500
 Frc consts  --      2.4996                 2.0516                 1.4957
 IR Inten    --     53.9900                19.6118                 6.3032

                     37                     38                     39
                      A                      A                      A
 Frequencies --   1466.5718              1476.2702              1480.7700
 Red. masses --      1.0838                 1.0869                 1.1213
 Frc consts  --      1.3735                 1.3956                 1.4485
 IR Inten    --      1.5677                 2.3256                 8.6956

                     40                     41                     42
                      A                      A                      A
 Frequencies --   1495.3243              1790.7207              2857.3678
 Red. masses --      1.1308                10.4870                 1.0821
 Frc consts  --      1.4897                19.8134                 5.2053
 IR Inten    --      2.5927               190.6073               125.1007

                     43                     44                     45
                      A                      A                      A
 Frequencies --   3039.6484              3048.4222              3064.2859
 Red. masses --      1.0594                 1.0590                 1.0622
 Frc consts  --      5.7672                 5.7981                 5.8764
 IR Inten    --     40.9558                31.2688                29.4073

                     46                     47                     48
                      A                      A                      A
 Frequencies --   3069.8430              3092.1852              3098.8635
 Red. masses --      1.0625                 1.1047                 1.1057
 Frc consts  --      5.8997                 6.2231                 6.2558
 IR Inten    --     21.3937                22.9100                13.7524

                     49                     50                     51
                      A                      A                      A
 Frequencies --   3127.5642              3134.9017              3797.0428
 Red. masses --      1.1061                 1.1060                 1.0656
 Frc consts  --      6.3747                 6.4040                 9.0522
 IR Inten    --     19.6084                12.3132                20.9382

 - Thermochemistry -
 -------------------
 Temperature   298.150 Kelvin.  Pressure   1.00000 Atm.
 Atom     1 has atomic number  8 and mass  15.99491

 Molecular mass:   126.06808 amu.
 Principal axes and moments of inertia in atomic units:
                           1         2         3
     Eigenvalues --   792.383891203.028661253.05684
           X            0.99982   0.01680   0.00880
           Y           -0.01395   0.96579  -0.25896
           Z           -0.01285   0.25880   0.96585
 This molecule is an asymmetric top.
 Rotational symmetry number  1.
 Warning -- assumption of classical behavior for rotation
           may cause significant error
 Rotational temperatures (Kelvin)      0.10931     0.07200     0.06912
 Rotational constants (GHZ):           2.27761     1.50016     1.44027
 Zero-point vibrational energy     415290.9 (Joules/Mol)
                                   99.25691 (Kcal/Mol)
 Warning -- explicit consideration of  11 degrees of freedom as
           vibrations may cause significant error
 Vibrational temperatures:     89.32   102.88   288.02   348.97   373.88
          (Kelvin)            500.13   527.67   583.74   670.85   700.30
                              843.56   934.78  1066.44  1075.54  1114.64
                             1158.41  1301.87  1326.00  1365.67  1390.08
                             1457.96  1489.66  1527.25  1542.54  1596.21
                             1718.42  1751.17  1774.59  1785.88  1812.70
                             1820.94  1832.76  1876.96  1924.51  2001.73
                             2050.43  2110.07  2124.02  2130.50  2151.44
                             2576.44  4111.11  4373.37  4385.99  4408.82
                             4416.81  4448.96  4458.57  4499.86  4510.42
                             5463.09

 Zero-point correction=                           0.158176 (Hartree/Particle)
 Thermal correction to Energy=                    0.166787
 Thermal correction to Enthalpy=                  0.167732
 Thermal correction to Gibbs Free Energy=         0.124614
 Sum of electronic and zero-point Energies=           -423.015645
 Sum of electronic and thermal Energies=              -423.007034
 Sum of electronic and thermal Enthalpies=            -423.006090
 Sum of electronic and thermal Free Energies=         -423.049207

                     E (Thermal)             CV                S
                      KCal/Mol        Cal/Mol-Kelvin    Cal/Mol-Kelvin
 Total                  104.661             32.769             90.749
 Electronic               0.000              0.000              0.000
 Translational            0.889              2.981             40.409
 Rotational               0.889              2.981             28.570
 Vibrational            102.883             26.807             21.770
 Vibration     1          0.597              1.972              4.390
 Vibration     2          0.598              1.968              4.112
 Vibration     3          0.638              1.840              2.131
 Vibration     4          0.659              1.775              1.784
 Vibration     5          0.668              1.746              1.663
 Vibration     6          0.725              1.580              1.177
 Vibration     7          0.740              1.541              1.093
 Vibration     8          0.771              1.458              0.942
 Vibration     9          0.824              1.325              0.748
 Vibration    10          0.843              1.279              0.692
 Vibration    11          0.943              1.061              0.474

 Normal termination of Gaussian 09 at Mon Jan 27 19:21:08 2020.
