 Gaussian 09, Revision D.01,
 Gaussian 09:  ES64L-G09RevD.01 24-Apr-2013

 -----------------------------
 # b3lyp 6-31G(2df,p) opt Freq
 -----------------------------

 -----
 titel
 -----
 Symbolic Z-matrix:
 Charge =  0 Multiplicity = 1

 SCF Done:  E(RB3LYP) =  -423.177233152     A.U. after   14 cycles
 Optimization completed.
    -- Stationary point found.
 Normal termination of Gaussian 09 at Tue Jan 28 12:10:48 2020.

 ----------------------------------------------------------------------
 #N Geom=AllCheck Guess=TCheck SCRF=Check GenChk RB3LYP/6-31G(2df,p) Fr
 eq
 ----------------------------------------------------------------------

 Structure from the checkpoint file:  "/scratch/puck/g09_ea255e9f-e49b-45c1-8c64-5a9f69b7f129/Gau-25565.chk"
 -----
 titel
 -----
 Charge =  0 Multiplicity = 1

                         Standard orientation:
 ---------------------------------------------------------------------
 Center     Atomic      Atomic             Coordinates (Angstroms)
 Number     Number       Type             X           Y           Z
 ---------------------------------------------------------------------
      1          8           0       -2.644033   -0.474312   -0.083968
      2          6           0       -1.607987   -0.147336    0.822889
      3          6           0       -0.277661   -0.077841    0.094235
      4          6           0        0.270281   -1.411296   -0.446342
      5          6           0        1.758325   -1.288405   -0.216393
      6          6           0        2.099174   -0.170861    0.427745
      7          6           0        0.909889    0.694281    0.737106
      8          6           0        0.578433    1.786774   -0.308130
      9          8           0       -0.378730    0.925680   -0.964940
     10          1           0       -2.557424    0.157142   -0.809714
     11          1           0       -1.802179    0.814255    1.325942
     12          1           0       -1.589651   -0.928886    1.590307
     13          1           0       -0.157330   -2.279690    0.071141
     14          1           0        0.013293   -1.517751   -1.506101
     15          1           0        2.458391   -2.048464   -0.546855
     16          1           0        3.111564    0.113833    0.693144
     17          1           0        0.830020    0.999374    1.784200
     18          1           0        0.102371    2.685804    0.104247
     19          1           0        1.390320    2.081548   -0.981714
 ---------------------------------------------------------------------

 SCF Done:  E(RB3LYP) =  -423.177233152     A.U. after    1 cycles

 The electronic state is 1-A.
 Alpha  occ. eigenvalues --  -19.13707 -19.12974 -10.23610 -10.23372 -10.22424
 Alpha  occ. eigenvalues --  -10.19667 -10.18749 -10.18485 -10.18375  -1.04420
 Alpha  occ. eigenvalues --   -1.00850  -0.83406  -0.74495  -0.72441  -0.66380
 Alpha  occ. eigenvalues --   -0.64036  -0.55374  -0.52894  -0.52140  -0.48645
 Alpha  occ. eigenvalues --   -0.46957  -0.45733  -0.44578  -0.41832  -0.39162
 Alpha  occ. eigenvalues --   -0.38753  -0.37787  -0.35152  -0.34740  -0.31822
 Alpha  occ. eigenvalues --   -0.30253  -0.27477  -0.24839  -0.24722
 Alpha virt. eigenvalues --    0.01553   0.06984   0.09708   0.11696   0.12448
 Alpha virt. eigenvalues --    0.12818   0.13612   0.14042   0.16052   0.17188
 Alpha virt. eigenvalues --    0.17783   0.17918   0.19316   0.19773   0.21313

 Mulliken charges:
               1
     1  O   -0.423684
     2  C   -0.125417
     3  C    0.413808
     4  C   -0.306153
     5  C   -0.064745
     6  C   -0.085756
     7  C   -0.179556
     8  C   -0.082813
     9  O   -0.338272
    10  H    0.292463
    11  H    0.081039
    12  H    0.106591
    13  H    0.109252
    14  H    0.124899
    15  H    0.096873
    16  H    0.096486
    17  H    0.080366
    18  H    0.098804
    19  H    0.105817
 Sum of Mulliken charges =   0.00000

 Dipole moment (field-independent basis, Debye):
    X=              1.9559    Y=              0.7433    Z=              0.9241  Tot=              2.2874
 Quadrupole moment (field-independent basis, Debye-Ang):
   XX=            -56.6708   YY=            -50.6650   ZZ=            -52.9394
   XY=             -1.9352   XZ=              0.3029   YZ=              1.3899

  Exact polarizability:  80.238   1.618  82.809   0.998   5.709  63.282
 Approx polarizability: 108.247   7.249 125.877   5.950  11.815 101.678

                      1                      2                      3
                      A                      A                      A
 Frequencies --     90.1492               127.7008               187.6305
 Red. masses --      3.9199                 2.6249                 4.0561
 Frc consts  --      0.0188                 0.0252                 0.0841
 IR Inten    --      2.9789                 2.4232                 1.7263

                      4                      5                      6
                      A                      A                      A
 Frequencies --    247.6053               339.9303               367.0201
 Red. masses --      2.7754                 2.6536                 3.2492
 Frc consts  --      0.1003                 0.1807                 0.2579
 IR Inten    --      0.2378                 2.2011                 3.7804

                      7                      8                      9
                      A                      A                      A
 Frequencies --    412.3136               478.6361               493.6559
 Red. masses --      2.4179                 1.9465                 1.2545
 Frc consts  --      0.2422                 0.2627                 0.1801
 IR Inten    --      1.7686                19.6671                96.4778

                     10                     11                     12
                      A                      A                      A
 Frequencies --    661.1579               687.2692               741.8145
 Red. masses --      4.7622                 3.7235                 1.3901
 Frc consts  --      1.2265                 1.0362                 0.4507
 IR Inten    --      5.3128                16.4333                23.4818

                     13                     14                     15
                      A                      A                      A
 Frequencies --    777.3024               859.3327               879.1043
 Red. masses --      3.5098                 2.1331                 3.2153
 Frc consts  --      1.2494                 0.9281                 1.4640
 IR Inten    --      0.1396                 1.0961                12.5414

                     16                     17                     18
                      A                      A                      A
 Frequencies --    904.4635               932.3712               963.5203
 Red. masses --      2.3371                 1.7308                 2.0743
 Frc consts  --      1.1264                 0.8865                 1.1346
 IR Inten    --     29.3093                 1.7083                 5.4209

                     19                     20                     21
                      A                      A                      A
 Frequencies --    975.9488              1003.2545              1038.1736
 Red. masses --      1.2568                 7.1610                 2.8915
 Frc consts  --      0.7053                 4.2467                 1.8362
 IR Inten    --      2.3298                89.3523                28.0159

                     22                     23                     24
                      A                      A                      A
 Frequencies --   1058.2663              1063.1216              1078.8107
 Red. masses --      2.5877                 2.9864                 1.6155
 Frc consts  --      1.7075                 1.9887                 1.1078
 IR Inten    --      5.6778                45.7160                 0.3454

                     25                     26                     27
                      A                      A                      A
 Frequencies --   1103.4805              1147.4553              1160.4701
 Red. masses --      1.7297                 1.2557                 1.8297
 Frc consts  --      1.2410                 0.9741                 1.4518
 IR Inten    --     24.3653                 2.9181                 2.9875

                     28                     29                     30
                      A                      A                      A
 Frequencies --   1164.8748              1207.3620              1243.6344
 Red. masses --      1.1775                 1.5836                 1.7772
 Frc consts  --      0.9414                 1.3601                 1.6195
 IR Inten    --      0.9834                 4.3964                 9.1191

                     31                     32                     33
                      A                      A                      A
 Frequencies --   1249.9763              1301.6172              1336.8852
 Red. masses --      1.5020                 1.5394                 1.4582
 Frc consts  --      1.3827                 1.5366                 1.5356
 IR Inten    --     16.1844                 5.2511                 2.4178

                     34                     35                     36
                      A                      A                      A
 Frequencies --   1352.0141              1368.3766              1386.8067
 Red. masses --      1.8000                 1.5815                 1.4331
 Frc consts  --      1.9386                 1.7448                 1.6239
 IR Inten    --     13.5431                 5.1262                 2.6873

                     37                     38                     39
                      A                      A                      A
 Frequencies --   1433.7355              1464.0979              1501.2481
 Red. masses --      1.3118                 1.0964                 1.0926
 Frc consts  --      1.5888                 1.3847                 1.4509
 IR Inten    --     70.4126                 4.0954                 0.4243

                     40                     41                     42
                      A                      A                      A
 Frequencies --   1518.6770              1677.9945              2967.9841
 Red. masses --      1.0998                 6.2616                 1.0702
 Frc consts  --      1.4945                10.3877                 5.5546
 IR Inten    --      0.2634                 1.7889                48.8892

                     43                     44                     45
                      A                      A                      A
 Frequencies --   3012.2173              3026.2737              3064.8138
 Red. masses --      1.0591                 1.0644                 1.0953
 Frc consts  --      5.6617                 5.7435                 6.0617
 IR Inten    --     83.9841                23.1505                18.6996

                     46                     47                     48
                      A                      A                      A
 Frequencies --   3067.2971              3071.8359              3074.0801
 Red. masses --      1.0940                 1.0951                 1.0975
 Frc consts  --      6.0644                 6.0884                 6.1106
 IR Inten    --      1.8099                32.3571                57.9371

                     49                     50                     51
                      A                      A                      A
 Frequencies --   3179.3178              3203.9364              3774.3504
 Red. masses --      1.0843                 1.1034                 1.0653
 Frc consts  --      6.4576                 6.6733                 8.9413
 IR Inten    --      5.8046                25.3616                27.7618

 - Thermochemistry -
 -------------------
 Temperature   298.150 Kelvin.  Pressure   1.00000 Atm.
 Atom     1 has atomic number  8 and mass  15.99491

 Molecular mass:   126.06808 amu.
 Principal axes and moments of inertia in atomic units:
                           1         2         3
     Eigenvalues --   643.375381178.328861477.72258
           X            0.99996  -0.00442  -0.00822
           Y            0.00469   0.99943   0.03339
           Z            0.00807  -0.03343   0.99941
 This molecule is an asymmetric top.
 Rotational symmetry number  1.
 Warning -- assumption of classical behavior for rotation
           may cause significant error
 Rotational temperatures (Kelvin)      0.13462     0.07351     0.05861
 Rotational constants (GHZ):           2.80511     1.53161     1.22130
 Zero-point vibrational energy     421261.2 (Joules/Mol)
                                  100.68383 (Kcal/Mol)
 Warning -- explicit consideration of   9 degrees of freedom as
           vibrations may cause significant error
 Vibrational temperatures:    129.70   183.73   269.96   356.25   489.08
          (Kelvin)            528.06   593.23   688.65   710.26   951.26
                              988.83  1067.30  1118.36  1236.39  1264.83
                             1301.32  1341.47  1386.29  1404.17  1443.46
                             1493.70  1522.61  1529.59  1552.17  1587.66
                             1650.93  1669.66  1675.99  1737.12  1789.31
                             1798.43  1872.73  1923.48  1945.24  1968.79
                             1995.30  2062.82  2106.51  2159.96  2185.03
                             2414.26  4270.26  4333.90  4354.13  4409.58
                             4413.15  4419.68  4422.91  4574.32  4609.74
                             5430.44

 Zero-point correction=                           0.160450 (Hartree/Particle)
 Thermal correction to Energy=                    0.168358
 Thermal correction to Enthalpy=                  0.169302
 Thermal correction to Gibbs Free Energy=         0.127971
 Sum of electronic and zero-point Energies=           -423.016783
 Sum of electronic and thermal Energies=              -423.008876
 Sum of electronic and thermal Enthalpies=            -423.007931
 Sum of electronic and thermal Free Energies=         -423.049262

                     E (Thermal)             CV                S
                      KCal/Mol        Cal/Mol-Kelvin    Cal/Mol-Kelvin
 Total                  105.646             30.838             86.987
 Electronic               0.000              0.000              0.000
 Translational            0.889              2.981             40.409
 Rotational               0.889              2.981             28.506
 Vibrational            103.869             24.876             18.072
 Vibration     1          0.602              1.956              3.657
 Vibration     2          0.611              1.925              2.980
 Vibration     3          0.632              1.857              2.251
 Vibration     4          0.661              1.767              1.748
 Vibration     5          0.720              1.596              1.212
 Vibration     6          0.740              1.540              1.092
 Vibration     7          0.776              1.444              0.918
 Vibration     8          0.835              1.297              0.714
 Vibration     9          0.849              1.264              0.674

 Optimization completed.
    -- Stationary point found.
 Normal termination of Gaussian 09 at Tue Jan 28 12:59:15 2020.
