 Gaussian 09, Revision D.01,
 Gaussian 09:  ES64L-G09RevD.01 24-Apr-2013

 -----------------------------
 # b3lyp 6-31G(2df,p) opt Freq
 -----------------------------

 -----
 titel
 -----
 Symbolic Z-matrix:
 Charge =  0 Multiplicity = 1

 SCF Done:  E(RB3LYP) =  -423.177685062     A.U. after   14 cycles
 Optimization completed.
    -- Stationary point found.
 Normal termination of Gaussian 09 at Tue Jan 28 09:16:42 2020.

 ----------------------------------------------------------------------
 #N Geom=AllCheck Guess=TCheck SCRF=Check GenChk RB3LYP/6-31G(2df,p) Fr
 eq
 ----------------------------------------------------------------------

 Structure from the checkpoint file:  "/scratch/puck/g09_9aa9b119-b4f9-41a9-b48c-81a74f76668e/Gau-17485.chk"
 -----
 titel
 -----
 Charge =  0 Multiplicity = 1

                         Standard orientation:
 ---------------------------------------------------------------------
 Center     Atomic      Atomic             Coordinates (Angstroms)
 Number     Number       Type             X           Y           Z
 ---------------------------------------------------------------------
      1          6           0        1.321957    1.892682   -0.424297
      2          6           0        0.801802    0.608580    0.156743
      3          6           0       -0.131823    0.555633    1.362878
      4          6           0       -0.591091   -0.105979    0.104825
      5          6           0       -1.817494    0.300862   -0.657241
      6          8           0       -2.992715   -0.336735   -0.175083
      7          6           0        0.076109   -1.489768    0.024287
      8          6           0        1.434296   -0.742815   -0.011007
      9          8           0        2.547359   -1.084807   -0.299288
     10          1           0        2.181563    2.254596    0.149782
     11          1           0        1.650774    1.752981   -1.458606
     12          1           0        0.558483    2.676530   -0.408670
     13          1           0        0.122790   -0.034810    2.239418
     14          1           0       -0.577777    1.519813    1.594489
     15          1           0       -1.919236    1.397958   -0.640909
     16          1           0       -1.732905   -0.003178   -1.706212
     17          1           0       -3.081349   -0.113539    0.757656
     18          1           0       -0.111544   -2.178944    0.852472
     19          1           0       -0.090495   -2.014237   -0.921573
 ---------------------------------------------------------------------

 SCF Done:  E(RB3LYP) =  -423.177685062     A.U. after    1 cycles

 The electronic state is 1-A.
 Alpha  occ. eigenvalues --  -19.14327 -19.12856 -10.26662 -10.24160 -10.21786
 Alpha  occ. eigenvalues --  -10.21412 -10.21027 -10.19451 -10.19220  -1.03931
 Alpha  occ. eigenvalues --   -1.02441  -0.91438  -0.75009  -0.72418  -0.70732
 Alpha  occ. eigenvalues --   -0.62357  -0.57322  -0.51189  -0.50429  -0.48547
 Alpha  occ. eigenvalues --   -0.47028  -0.45758  -0.43630  -0.42208  -0.41019
 Alpha  occ. eigenvalues --   -0.40166  -0.39454  -0.37725  -0.35708  -0.34882
 Alpha  occ. eigenvalues --   -0.30463  -0.28816  -0.26557  -0.24033
 Alpha virt. eigenvalues --   -0.00862   0.06423   0.08209   0.09415   0.10699
 Alpha virt. eigenvalues --    0.12292   0.14075   0.14219   0.14902   0.15932
 Alpha virt. eigenvalues --    0.16709   0.17756   0.19460   0.20274   0.21951

 Mulliken charges:
               1
     1  C   -0.496686
     2  C    0.157845
     3  C   -0.379472
     4  C    0.275304
     5  C   -0.171279
     6  O   -0.408307
     7  C   -0.414647
     8  C    0.377784
     9  O   -0.318830
    10  H    0.139752
    11  H    0.134808
    12  H    0.121018
    13  H    0.121425
    14  H    0.119792
    15  H    0.088977
    16  H    0.116750
    17  H    0.283546
    18  H    0.119339
    19  H    0.132882
 Sum of Mulliken charges =   0.00000

 Dipole moment (field-independent basis, Debye):
    X=             -1.8360    Y=              2.0913    Z=              1.3693  Tot=              3.1015
 Quadrupole moment (field-independent basis, Debye-Ang):
   XX=            -66.4145   YY=            -52.4196   ZZ=            -49.7765
   XY=              1.7896   XZ=             -2.2987   YZ=             -0.6464

  Exact polarizability:  86.456   0.644  77.583  -3.737   1.245  67.357
 Approx polarizability: 130.186  -1.616 110.389  -7.799   4.424 103.430

                      1                      2                      3
                      A                      A                      A
 Frequencies --     82.1944               100.4225               137.4706
 Red. masses --      4.8411                 3.3670                 2.2842
 Frc consts  --      0.0193                 0.0200                 0.0254
 IR Inten    --      5.3071                 1.6882                 0.6812

                      4                      5                      6
                      A                      A                      A
 Frequencies --    153.9706               227.7303               266.0474
 Red. masses --      1.1974                 3.2558                 2.4234
 Frc consts  --      0.0167                 0.0995                 0.1011
 IR Inten    --      0.1911                 3.3415                14.7299

                      7                      8                      9
                      A                      A                      A
 Frequencies --    301.8560               371.7849               397.0264
 Red. masses --      1.5500                 1.6206                 2.8402
 Frc consts  --      0.0832                 0.1320                 0.2638
 IR Inten    --     47.2059                60.3249                 1.0110

                     10                     11                     12
                      A                      A                      A
 Frequencies --    443.5782               493.9082               563.1388
 Red. masses --      2.6903                 3.6488                 3.0267
 Frc consts  --      0.3119                 0.5244                 0.5655
 IR Inten    --      1.0426                 1.2860                 1.5876

                     13                     14                     15
                      A                      A                      A
 Frequencies --    632.3102               672.0797               766.9651
 Red. masses --      2.9979                 3.4711                 3.9737
 Frc consts  --      0.7062                 0.9238                 1.3772
 IR Inten    --      0.9411                 1.1768                 3.2840

                     16                     17                     18
                      A                      A                      A
 Frequencies --    781.9321               861.6285               935.5431
 Red. masses --      3.2462                 3.3980                 1.4153
 Frc consts  --      1.1694                 1.4863                 0.7298
 IR Inten    --     35.2507                 8.6554                20.4087

                     19                     20                     21
                      A                      A                      A
 Frequencies --    970.0169               983.4854               994.1700
 Red. masses --      1.3348                 1.5919                 1.9608
 Frc consts  --      0.7400                 0.9072                 1.1418
 IR Inten    --      0.2173                 7.4025                 3.3455

                     22                     23                     24
                      A                      A                      A
 Frequencies --   1032.0860              1051.0397              1079.4042
 Red. masses --      2.4649                 4.9144                 1.6278
 Frc consts  --      1.5470                 3.1986                 1.1174
 IR Inten    --     20.1336               115.0234                 9.8027

                     25                     26                     27
                      A                      A                      A
 Frequencies --   1095.9155              1109.0886              1150.4254
 Red. masses --      1.3493                 1.5105                 1.7243
 Frc consts  --      0.9548                 1.0947                 1.3445
 IR Inten    --      4.4580                 1.3869                 3.3675

                     28                     29                     30
                      A                      A                      A
 Frequencies --   1205.9695              1207.5599              1287.3907
 Red. masses --      1.7525                 1.6976                 2.1480
 Frc consts  --      1.5017                 1.4585                 2.0975
 IR Inten    --      3.7454                23.9686                16.0023

                     31                     32                     33
                      A                      A                      A
 Frequencies --   1350.5609              1362.6020              1394.1313
 Red. masses --      3.1531                 1.5768                 1.5768
 Frc consts  --      3.3886                 1.7249                 1.8057
 IR Inten    --      5.8398                 1.6563                 2.2113

                     34                     35                     36
                      A                      A                      A
 Frequencies --   1416.4417              1429.9750              1459.1895
 Red. masses --      1.3696                 1.4341                 1.1093
 Frc consts  --      1.6190                 1.7278                 1.3917
 IR Inten    --     10.4831                56.5710                 4.3488

                     37                     38                     39
                      A                      A                      A
 Frequencies --   1481.6587              1495.2661              1498.7536
 Red. masses --      1.0470                 1.0791                 1.1685
 Frc consts  --      1.3542                 1.4215                 1.5465
 IR Inten    --      3.0813                 4.6098                 4.9303

                     40                     41                     42
                      A                      A                      A
 Frequencies --   1508.5029              1873.0569              2974.9641
 Red. masses --      1.2129                12.6574                 1.0699
 Frc consts  --      1.6262                26.1636                 5.5789
 IR Inten    --      0.6067               354.7154                49.7010

                     43                     44                     45
                      A                      A                      A
 Frequencies --   3035.2301              3056.0927              3068.3998
 Red. masses --      1.0351                 1.0583                 1.0920
 Frc consts  --      5.6184                 5.8235                 6.0576
 IR Inten    --     25.8691                16.2346                24.4656

                     46                     47                     48
                      A                      A                      A
 Frequencies --   3099.3301              3104.7247              3108.9746
 Red. masses --      1.1003                 1.0567                 1.1033
 Frc consts  --      6.2272                 6.0015                 6.2834
 IR Inten    --     15.0450                 9.3080                 7.0059

                     49                     50                     51
                      A                      A                      A
 Frequencies --   3109.6009              3187.7386              3809.1838
 Red. masses --      1.1027                 1.1160                 1.0661
 Frc consts  --      6.2820                 6.6818                 9.1137
 IR Inten    --     24.0583                 8.5826                15.8868

 - Thermochemistry -
 -------------------
 Temperature   298.150 Kelvin.  Pressure   1.00000 Atm.
 Atom     1 has atomic number  6 and mass  12.00000

 Molecular mass:   126.06808 amu.
 Principal axes and moments of inertia in atomic units:
                           1         2         3
     Eigenvalues --   649.717311487.637761798.75045
           X            0.99963   0.02691  -0.00391
           Y           -0.02700   0.99939  -0.02217
           Z            0.00331   0.02226   0.99975
 This molecule is an asymmetric top.
 Rotational symmetry number  1.
 Warning -- assumption of classical behavior for rotation
           may cause significant error
 Rotational temperatures (Kelvin)      0.13331     0.05822     0.04815
 Rotational constants (GHZ):           2.77773     1.21316     1.00333
 Zero-point vibrational energy     413791.4 (Joules/Mol)
                                   98.89851 (Kcal/Mol)
 Warning -- explicit consideration of  12 degrees of freedom as
           vibrations may cause significant error
 Vibrational temperatures:    118.26   144.49   197.79   221.53   327.65
          (Kelvin)            382.78   434.30   534.91   571.23   638.21
                              710.62   810.23   909.75   966.97  1103.49
                             1125.02  1239.69  1346.04  1395.64  1415.01
                             1430.39  1484.94  1512.21  1553.02  1576.78
                             1595.73  1655.20  1735.12  1737.41  1852.27
                             1943.15  1960.48  2005.84  2037.94  2057.41
                             2099.45  2131.77  2151.35  2156.37  2170.40
                             2694.91  4280.30  4367.01  4397.03  4414.74
                             4459.24  4467.00  4473.12  4474.02  4586.44
                             5480.56

 Zero-point correction=                           0.157605 (Hartree/Particle)
 Thermal correction to Energy=                    0.166910
 Thermal correction to Enthalpy=                  0.167854
 Thermal correction to Gibbs Free Energy=         0.123418
 Sum of electronic and zero-point Energies=           -423.020080
 Sum of electronic and thermal Energies=              -423.010775
 Sum of electronic and thermal Enthalpies=            -423.009831
 Sum of electronic and thermal Free Energies=         -423.054267

                     E (Thermal)             CV                S
                      KCal/Mol        Cal/Mol-Kelvin    Cal/Mol-Kelvin
 Total                  104.738             34.357             93.524
 Electronic               0.000              0.000              0.000
 Translational            0.889              2.981             40.409
 Rotational               0.889              2.981             28.943
 Vibrational            102.960             28.395             24.173
 Vibration     1          0.600              1.961              3.838
 Vibration     2          0.604              1.949              3.446
 Vibration     3          0.614              1.916              2.839
 Vibration     4          0.619              1.898              2.623
 Vibration     5          0.651              1.799              1.897
 Vibration     6          0.672              1.735              1.622
 Vibration     7          0.694              1.670              1.407
 Vibration     8          0.743              1.530              1.072
 Vibration     9          0.764              1.477              0.974
 Vibration    10          0.803              1.375              0.815
 Vibration    11          0.850              1.264              0.674
 Vibration    12          0.919              1.111              0.518

 Optimization completed.
    -- Stationary point found.
 Normal termination of Gaussian 09 at Tue Jan 28 10:02:31 2020.
