 Gaussian 09, Revision D.01,
 Gaussian 09:  ES64L-G09RevD.01 24-Apr-2013

 -----------------------------
 # b3lyp 6-31G(2df,p) opt Freq
 -----------------------------

 -----
 titel
 -----
 Symbolic Z-matrix:
 Charge =  0 Multiplicity = 1

 SCF Done:  E(RB3LYP) =  -423.150531167     A.U. after   14 cycles
 SCF Done:  E(RB3LYP) =  -423.150530909     A.U. after    7 cycles
 SCF Done:  E(RB3LYP) =  -423.150531187     A.U. after    6 cycles
 Optimization completed.
    -- Stationary point found.
 Normal termination of Gaussian 09 at Tue Jan 28 08:34:23 2020.

 ----------------------------------------------------------------------
 #N Geom=AllCheck Guess=TCheck SCRF=Check GenChk RB3LYP/6-31G(2df,p) Fr
 eq
 ----------------------------------------------------------------------

 Structure from the checkpoint file:  "/scratch/puck/g09_5629fad1-7a15-4c95-bb95-d4080d1f748a/Gau-59901.chk"
 -----
 titel
 -----
 Charge =  0 Multiplicity = 1

                         Standard orientation:
 ---------------------------------------------------------------------
 Center     Atomic      Atomic             Coordinates (Angstroms)
 Number     Number       Type             X           Y           Z
 ---------------------------------------------------------------------
      1          6           0        3.073803    1.502506    0.000338
      2          6           0        1.641933    0.975780    0.000132
      3          6           0        1.562508   -0.536433   -0.000214
      4          8           0        2.533621   -1.256764   -0.000768
      5          6           0        0.172192   -1.177100    0.000283
      6          8           0       -0.841443   -0.200044   -0.000301
      7          6           0       -2.141133   -0.763470    0.000673
      8          6           0       -3.141584    0.294554   -0.000018
      9          6           0       -3.987308    1.146643   -0.000536
     10          1           0        3.620339    1.152210   -0.879150
     11          1           0        3.081437    2.595883    0.000178
     12          1           0        3.620006    1.152511    0.880161
     13          1           0        1.069192    1.336613    0.864501
     14          1           0        1.069448    1.336829   -0.864338
     15          1           0        0.104480   -1.832219   -0.884133
     16          1           0        0.104608   -1.830938    0.885678
     17          1           0       -2.279357   -1.408831   -0.883356
     18          1           0       -2.278756   -1.407127    0.886040
     19          1           0       -4.731281    1.904650   -0.000978
 ---------------------------------------------------------------------

 SCF Done:  E(RB3LYP) =  -423.150531187     A.U. after    1 cycles

 The electronic state is 1-A.
 Alpha  occ. eigenvalues --  -19.16267 -19.13013 -10.27105 -10.26754 -10.24441
 Alpha  occ. eigenvalues --  -10.19250 -10.18917 -10.18646 -10.17344  -1.05971
 Alpha  occ. eigenvalues --   -1.04002  -0.79645  -0.77255  -0.73111  -0.68085
 Alpha  occ. eigenvalues --   -0.64205  -0.54791  -0.52677  -0.51054  -0.50511
 Alpha  occ. eigenvalues --   -0.49141  -0.46020  -0.45248  -0.42877  -0.42269
 Alpha  occ. eigenvalues --   -0.37335  -0.36518  -0.36263  -0.34757  -0.34121
 Alpha  occ. eigenvalues --   -0.28711  -0.28685  -0.26831  -0.24723
 Alpha virt. eigenvalues --   -0.01326   0.02234   0.04709   0.08734   0.10655
 Alpha virt. eigenvalues --    0.11965   0.13654   0.14983   0.15262   0.16015
 Alpha virt. eigenvalues --    0.16476   0.18012   0.18300   0.20286   0.20620

 Mulliken charges:
               1
     1  C   -0.382798
     2  C   -0.269657
     3  C    0.342494
     4  O   -0.303944
     5  C   -0.142808
     6  O   -0.244454
     7  C   -0.205821
     8  C    0.276482
     9  C   -0.406910
    10  H    0.129677
    11  H    0.110417
    12  H    0.129641
    13  H    0.134929
    14  H    0.134974
    15  H    0.122280
    16  H    0.122258
    17  H    0.124412
    18  H    0.124406
    19  H    0.204424
 Sum of Mulliken charges =   0.00000

 Dipole moment (field-independent basis, Debye):
    X=             -2.2750    Y=              0.4428    Z=              0.0024  Tot=              2.3177
 Quadrupole moment (field-independent basis, Debye-Ang):
   XX=            -56.4066   YY=            -51.2339   ZZ=            -52.3859
   XY=              4.0287   XZ=              0.0030   YZ=             -0.0043

  Exact polarizability: 100.703 -11.532  81.157   0.004  -0.005  55.884
 Approx polarizability: 129.003 -29.881 122.547   0.005  -0.012  85.010

                      1                      2                      3
                      A                      A                      A
 Frequencies --     27.5918                67.5051                78.5257
 Red. masses --      3.0460                 2.2807                 4.1806
 Frc consts  --      0.0014                 0.0061                 0.0152
 IR Inten    --      7.4998                 0.6319                 0.5275

                      4                      5                      6
                      A                      A                      A
 Frequencies --     86.4809               107.2061               187.1876
 Red. masses --      3.1989                 2.1987                 4.1381
 Frc consts  --      0.0141                 0.0149                 0.0854
 IR Inten    --      3.6673                 1.1453                 2.4118

                      7                      8                      9
                      A                      A                      A
 Frequencies --    193.8571               272.5472               315.4690
 Red. masses --      1.1409                 4.2082                 4.8765
 Frc consts  --      0.0253                 0.1842                 0.2859
 IR Inten    --      0.2534                10.4470                 0.3460

                     10                     11                     12
                      A                      A                      A
 Frequencies --    333.7933               418.6912               478.0079
 Red. masses --      3.4466                 7.7950                 1.9921
 Frc consts  --      0.2263                 0.8051                 0.2682
 IR Inten    --      2.2792                 1.9932                 0.6768

                     13                     14                     15
                      A                      A                      A
 Frequencies --    584.1569               609.4759               613.7565
 Red. masses --      7.1183                 3.6603                 1.1939
 Frc consts  --      1.4311                 0.8011                 0.2650
 IR Inten    --      1.6701                10.1372                44.0831

                     16                     17                     18
                      A                      A                      A
 Frequencies --    682.3613               747.5268               766.9314
 Red. masses --      1.2414                 1.3017                 3.1433
 Frc consts  --      0.3405                 0.4286                 1.0893
 IR Inten    --     33.1656                 4.6034                 3.2369

                     19                     20                     21
                      A                      A                      A
 Frequencies --    929.4722               975.7954               999.0778
 Red. masses --      1.3330                 3.8048                 1.7273
 Frc consts  --      0.6785                 2.1345                 1.0158
 IR Inten    --      0.9412                12.1135                 1.4337

                     22                     23                     24
                      A                      A                      A
 Frequencies --   1032.8369              1035.7953              1084.9984
 Red. masses --      1.6065                 5.5886                 2.8001
 Frc consts  --      1.0097                 3.5326                 1.9421
 IR Inten    --      3.0191                66.5925                 1.6358

                     25                     26                     27
                      A                      A                      A
 Frequencies --   1115.7119              1144.5260              1180.0256
 Red. masses --      1.9140                 5.7814                 3.2650
 Frc consts  --      1.4037                 4.4621                 2.6786
 IR Inten    --      0.6865               245.3703                57.4562

                     28                     29                     30
                      A                      A                      A
 Frequencies --   1238.5083              1257.1370              1276.8313
 Red. masses --      1.0947                 1.0978                 1.1813
 Frc consts  --      0.9893                 1.0222                 1.1347
 IR Inten    --      1.4137                 6.6697                 0.2975

                     31                     32                     33
                      A                      A                      A
 Frequencies --   1355.9298              1375.6497              1413.5455
 Red. masses --      1.2717                 1.9145                 1.2293
 Frc consts  --      1.3776                 2.1346                 1.4471
 IR Inten    --     61.6043                23.0454                 4.0206

                     34                     35                     36
                      A                      A                      A
 Frequencies --   1424.9081              1437.5368              1478.5256
 Red. masses --      1.4055                 1.0872                 1.1085
 Frc consts  --      1.6813                 1.3237                 1.4277
 IR Inten    --     35.6268                13.7399                 8.0936

                     37                     38                     39
                      A                      A                      A
 Frequencies --   1493.1569              1498.2244              1505.3589
 Red. masses --      1.0382                 1.0514                 1.0788
 Frc consts  --      1.3638                 1.3905                 1.4403
 IR Inten    --      5.0010                 6.8327                 2.8546

                     40                     41                     42
                      A                      A                      A
 Frequencies --   1812.3622              2249.6664              2956.2258
 Red. masses --     11.5904                 5.8886                 1.0544
 Frc consts  --     22.4304                17.5589                 5.4292
 IR Inten    --    147.0364                 3.3489                25.6011

                     43                     44                     45
                      A                      A                      A
 Frequencies --   2968.4598              2977.1566              2997.8328
 Red. masses --      1.0548                 1.1030                 1.1040
 Frc consts  --      5.4765                 5.7599                 5.8457
 IR Inten    --     42.7723                41.3604                18.3908

                     46                     47                     48
                      A                      A                      A
 Frequencies --   3034.7250              3050.9346              3057.2665
 Red. masses --      1.0620                 1.0351                 1.0968
 Frc consts  --      5.7625                 5.6769                 6.0403
 IR Inten    --     13.2929                22.6996                 3.7124

                     49                     50                     51
                      A                      A                      A
 Frequencies --   3122.5133              3125.0050              3505.8798
 Red. masses --      1.1022                 1.1015                 1.1642
 Frc consts  --      6.3315                 6.3376                 8.4311
 IR Inten    --     19.9243                20.4985                62.0138

 - Thermochemistry -
 -------------------
 Temperature   298.150 Kelvin.  Pressure   1.00000 Atm.
 Atom     1 has atomic number  6 and mass  12.00000

 Molecular mass:   126.06808 amu.
 Principal axes and moments of inertia in atomic units:
                           1         2         3
     Eigenvalues --   505.322992612.350213073.23583
           X            0.99962   0.02740   0.00000
           Y           -0.02740   0.99962  -0.00003
           Z            0.00000   0.00003   1.00000
 This molecule is an asymmetric top.
 Rotational symmetry number  1.
 Warning -- assumption of classical behavior for rotation
           may cause significant error
 Rotational temperatures (Kelvin)      0.17140     0.03316     0.02818
 Rotational constants (GHZ):           3.57146     0.69085     0.58724
 Zero-point vibrational energy     404832.2 (Joules/Mol)
                                   96.75721 (Kcal/Mol)
 Warning -- explicit consideration of  15 degrees of freedom as
           vibrations may cause significant error
 Vibrational temperatures:     39.70    97.12   112.98   124.43   154.25
          (Kelvin)            269.32   278.92   392.13   453.89   480.25
                              602.40   687.75   840.47   876.90   883.06
                              981.76  1075.52  1103.44  1337.30  1403.95
                             1437.45  1486.02  1490.28  1561.07  1605.26
                             1646.72  1697.79  1781.94  1808.74  1837.07
                             1950.88  1979.25  2033.77  2050.12  2068.29
                             2127.27  2148.32  2155.61  2165.87  2607.58
                             3236.76  4253.34  4270.95  4283.46  4313.21
                             4366.29  4389.61  4398.72  4492.59  4496.18
                             5044.17

 Zero-point correction=                           0.154192 (Hartree/Particle)
 Thermal correction to Energy=                    0.165043
 Thermal correction to Enthalpy=                  0.165987
 Thermal correction to Gibbs Free Energy=         0.116234
 Sum of electronic and zero-point Energies=           -422.996339
 Sum of electronic and thermal Energies=              -422.985488
 Sum of electronic and thermal Enthalpies=            -422.984544
 Sum of electronic and thermal Free Energies=         -423.034297

                     E (Thermal)             CV                S
                      KCal/Mol        Cal/Mol-Kelvin    Cal/Mol-Kelvin
 Total                  103.566             36.908            104.713
 Electronic               0.000              0.000              0.000
 Translational            0.889              2.981             40.409
 Rotational               0.889              2.981             29.785
 Vibrational            101.789             30.947             34.520
 Vibration     1          0.593              1.984              5.995
 Vibration     2          0.598              1.970              4.225
 Vibration     3          0.600              1.964              3.927
 Vibration     4          0.601              1.959              3.738
 Vibration     5          0.606              1.943              3.319
 Vibration     6          0.632              1.857              2.256
 Vibration     7          0.635              1.848              2.191
 Vibration     8          0.676              1.724              1.580
 Vibration     9          0.703              1.644              1.333
 Vibration    10          0.715              1.608              1.242
 Vibration    11          0.782              1.430              0.896
 Vibration    12          0.835              1.299              0.715
 Vibration    13          0.941              1.066              0.478
 Vibration    14          0.968              1.012              0.434
 Vibration    15          0.973              1.003              0.427

 Optimization completed on the basis of negligible forces.
    -- Stationary point found.
 Normal termination of Gaussian 09 at Tue Jan 28 10:04:31 2020.
