 Gaussian 09, Revision D.01,
 Gaussian 09:  ES64L-G09RevD.01 24-Apr-2013

 -----------------------------
 # b3lyp 6-31G(2df,p) opt Freq
 -----------------------------

 -----
 titel
 -----
 Symbolic Z-matrix:
 Charge =  0 Multiplicity = 1

 SCF Done:  E(RB3LYP) =  -423.130366689     A.U. after   13 cycles
 Optimization completed.
    -- Stationary point found.
 Normal termination of Gaussian 09 at Tue Jan 28 02:58:45 2020.

 ----------------------------------------------------------------------
 #N Geom=AllCheck Guess=TCheck SCRF=Check GenChk RB3LYP/6-31G(2df,p) Fr
 eq
 ----------------------------------------------------------------------

 Structure from the checkpoint file:  "/scratch/puck/g09_fad2e45e-b58e-423d-a4fd-eb9ae2a37a98/Gau-44367.chk"
 -----
 titel
 -----
 Charge =  0 Multiplicity = 1

                         Standard orientation:
 ---------------------------------------------------------------------
 Center     Atomic      Atomic             Coordinates (Angstroms)
 Number     Number       Type             X           Y           Z
 ---------------------------------------------------------------------
      1          6           0       -2.962581   -0.647075    0.115371
      2          6           0       -1.874990    0.334210   -0.269988
      3          6           0       -0.944178    0.873481    0.839310
      4          6           0        0.182625    0.233151    0.005908
      5          6           0        1.379423    1.114326   -0.505897
      6          6           0        2.313723    0.175520    0.266614
      7          8           0        2.138942   -1.121134   -0.306589
      8          6           0        1.196313   -0.694203    0.682425
      9          8           0       -0.753802   -0.309767   -0.929832
     10          1           0       -3.776524   -0.131288    0.637035
     11          1           0       -3.377513   -1.126099   -0.776873
     12          1           0       -2.566727   -1.429166    0.770857
     13          1           0       -2.287448    1.124004   -0.912365
     14          1           0       -0.900344    1.957466    0.955680
     15          1           0       -1.101204    0.411533    1.817872
     16          1           0        1.533032    1.108460   -1.586735
     17          1           0        1.339773    2.140632   -0.132165
     18          1           0        3.252127    0.385969    0.764691
     19          1           0        1.061694   -1.330770    1.550912
 ---------------------------------------------------------------------

 SCF Done:  E(RB3LYP) =  -423.130366689     A.U. after    1 cycles

 The electronic state is 1-A.
 Alpha  occ. eigenvalues --  -19.15072 -19.13033 -10.24427 -10.23922 -10.23678
 Alpha  occ. eigenvalues --  -10.23260 -10.19087 -10.18654 -10.17844  -1.07980
 Alpha  occ. eigenvalues --   -1.03691  -0.79792  -0.76232  -0.71117  -0.66029
 Alpha  occ. eigenvalues --   -0.62079  -0.57803  -0.53796  -0.50941  -0.48842
 Alpha  occ. eigenvalues --   -0.47037  -0.46407  -0.42275  -0.40875  -0.39776
 Alpha  occ. eigenvalues --   -0.39599  -0.37377  -0.36217  -0.35670  -0.31547
 Alpha  occ. eigenvalues --   -0.30261  -0.29633  -0.26559  -0.23562
 Alpha virt. eigenvalues --    0.07291   0.09286   0.09912   0.10931   0.11765
 Alpha virt. eigenvalues --    0.12251   0.14211   0.14940   0.15488   0.16328
 Alpha virt. eigenvalues --    0.16568   0.17552   0.18189   0.19202   0.19964

 Mulliken charges:
               1
     1  C   -0.396952
     2  C    0.161266
     3  C   -0.387130
     4  C    0.455896
     5  C   -0.340057
     6  C    0.033289
     7  O   -0.239213
     8  C   -0.049370
     9  O   -0.326879
    10  H    0.115373
    11  H    0.130524
    12  H    0.118040
    13  H    0.076622
    14  H    0.110438
    15  H    0.108122
    16  H    0.122371
    17  H    0.103755
    18  H    0.106322
    19  H    0.097583
 Sum of Mulliken charges =   0.00000

 Dipole moment (field-independent basis, Debye):
    X=             -0.9812    Y=              2.1289    Z=              2.2605  Tot=              3.2566
 Quadrupole moment (field-independent basis, Debye-Ang):
   XX=            -50.6743   YY=            -53.6008   ZZ=            -53.5511
   XY=              2.9026   XZ=              1.5376   YZ=             -2.4515

  Exact polarizability:  91.959   2.514  69.976  -0.233  -3.175  64.514
 Approx polarizability: 116.060   1.516 107.718  -2.465  -0.741 100.404

                      1                      2                      3
                      A                      A                      A
 Frequencies --     53.3263               118.9532               214.2517
 Red. masses --      3.4646                 3.9858                 2.3506
 Frc consts  --      0.0058                 0.0332                 0.0636
 IR Inten    --      0.5131                 0.7896                 0.4501

                      4                      5                      6
                      A                      A                      A
 Frequencies --    232.4404               337.3562               351.5691
 Red. masses --      1.1620                 2.3823                 3.0445
 Frc consts  --      0.0370                 0.1597                 0.2217
 IR Inten    --      0.2648                 0.4643                 0.0093

                      7                      8                      9
                      A                      A                      A
 Frequencies --    386.5567               432.4902               491.6078
 Red. masses --      3.8037                 2.0800                 2.6944
 Frc consts  --      0.3349                 0.2292                 0.3837
 IR Inten    --      0.7317                 2.5201                 2.6474

                     10                     11                     12
                      A                      A                      A
 Frequencies --    581.7420               764.7516               796.9260
 Red. masses --      4.6796                 3.1843                 3.9104
 Frc consts  --      0.9331                 1.0972                 1.4632
 IR Inten    --     15.1073                 5.0648                 3.1350

                     13                     14                     15
                      A                      A                      A
 Frequencies --    824.6431               855.1229               868.3384
 Red. masses --      2.5316                 1.9548                 1.6067
 Frc consts  --      1.0143                 0.8422                 0.7138
 IR Inten    --      5.2773                24.7675                 9.9356

                     16                     17                     18
                      A                      A                      A
 Frequencies --    895.9896               912.6795               919.6039
 Red. masses --      2.5872                 4.1971                 2.3459
 Frc consts  --      1.2237                 2.0599                 1.1689
 IR Inten    --     10.8453                 4.8089                20.4974

                     19                     20                     21
                      A                      A                      A
 Frequencies --    943.1981               962.5488               984.3536
 Red. masses --      1.3968                 2.4171                 1.8783
 Frc consts  --      0.7321                 1.3195                 1.0723
 IR Inten    --      4.7375                 5.6691                42.0032

                     22                     23                     24
                      A                      A                      A
 Frequencies --   1039.7556              1073.4718              1095.1193
 Red. masses --      1.4031                 2.8781                 2.1822
 Frc consts  --      0.8937                 1.9541                 1.5419
 IR Inten    --      7.2309               130.5946                 1.4041

                     25                     26                     27
                      A                      A                      A
 Frequencies --   1109.6715              1163.2471              1170.3722
 Red. masses --      1.6555                 2.0382                 2.3829
 Frc consts  --      1.2011                 1.6250                 1.9231
 IR Inten    --     13.3776                 9.1337                16.9166

                     28                     29                     30
                      A                      A                      A
 Frequencies --   1185.7181              1208.0572              1221.1134
 Red. masses --      1.7393                 1.4979                 1.3942
 Frc consts  --      1.4407                 1.2879                 1.2248
 IR Inten    --      4.9394                 6.8961                10.6832

                     31                     32                     33
                      A                      A                      A
 Frequencies --   1244.5890              1260.5624              1304.3590
 Red. masses --      1.5623                 1.6233                 2.4482
 Frc consts  --      1.4258                 1.5198                 2.4541
 IR Inten    --      1.5371                 1.8089                39.8011

                     34                     35                     36
                      A                      A                      A
 Frequencies --   1318.1357              1377.0379              1390.9110
 Red. masses --      1.4749                 3.1181                 1.3768
 Frc consts  --      1.5098                 3.4836                 1.5693
 IR Inten    --      7.2639                17.2968                 5.6063

                     37                     38                     39
                      A                      A                      A
 Frequencies --   1411.4246              1461.4600              1481.5198
 Red. masses --      1.4134                 1.1227                 1.0536
 Frc consts  --      1.6590                 1.4129                 1.3625
 IR Inten    --     15.2269                 2.4981                 4.2280

                     40                     41                     42
                      A                      A                      A
 Frequencies --   1488.4360              1495.7758              3007.8844
 Red. masses --      1.1223                 1.0571                 1.0851
 Frc consts  --      1.4649                 1.3935                 5.7842
 IR Inten    --      3.3455                 2.1775                50.1216

                     43                     44                     45
                      A                      A                      A
 Frequencies --   3032.6256              3063.4089              3067.3550
 Red. masses --      1.0353                 1.0606                 1.0581
 Frc consts  --      5.6097                 5.8642                 5.8654
 IR Inten    --     15.8367                21.3957                19.2959

                     46                     47                     48
                      A                      A                      A
 Frequencies --   3104.9455              3112.6132              3123.5843
 Red. masses --      1.1007                 1.1024                 1.1063
 Frc consts  --      6.2523                 6.2928                 6.3598
 IR Inten    --     22.1786                21.4619                21.3042

                     49                     50                     51
                      A                      A                      A
 Frequencies --   3131.5677              3170.1503              3199.5123
 Red. masses --      1.1083                 1.0907                 1.0979
 Frc consts  --      6.4035                 6.4583                 6.6220
 IR Inten    --     13.0318                16.7125                20.1543

 - Thermochemistry -
 -------------------
 Temperature   298.150 Kelvin.  Pressure   1.00000 Atm.
 Atom     1 has atomic number  6 and mass  12.00000

 Molecular mass:   126.06808 amu.
 Principal axes and moments of inertia in atomic units:
                           1         2         3
     Eigenvalues --   434.260151596.423851699.85783
           X            0.99974   0.02222  -0.00505
           Y           -0.02257   0.99613  -0.08500
           Z            0.00314   0.08509   0.99637
 This molecule is an asymmetric top.
 Rotational symmetry number  1.
 Warning -- assumption of classical behavior for rotation
           may cause significant error
 Rotational temperatures (Kelvin)      0.19945     0.05425     0.05095
 Rotational constants (GHZ):           4.15590     1.13049     1.06170
 Zero-point vibrational energy     415360.4 (Joules/Mol)
                                   99.27351 (Kcal/Mol)
 Warning -- explicit consideration of  10 degrees of freedom as
           vibrations may cause significant error
 Vibrational temperatures:     76.72   171.15   308.26   334.43   485.38
          (Kelvin)            505.83   556.17   622.26   707.31   837.00
                             1100.31  1146.60  1186.48  1230.33  1249.34
                             1289.13  1313.14  1323.10  1357.05  1384.89
                             1416.26  1495.97  1544.48  1575.63  1596.57
                             1673.65  1683.90  1705.98  1738.12  1756.91
                             1790.68  1813.67  1876.68  1896.50  1981.25
                             2001.21  2030.72  2102.71  2131.57  2141.52
                             2152.08  4327.67  4363.27  4407.56  4413.23
                             4467.32  4478.35  4494.14  4505.62  4561.13
                             4603.38

 Zero-point correction=                           0.158202 (Hartree/Particle)
 Thermal correction to Energy=                    0.166288
 Thermal correction to Enthalpy=                  0.167232
 Thermal correction to Gibbs Free Energy=         0.125204
 Sum of electronic and zero-point Energies=           -422.972164
 Sum of electronic and thermal Energies=              -422.964079
 Sum of electronic and thermal Enthalpies=            -422.963135
 Sum of electronic and thermal Free Energies=         -423.005163

                     E (Thermal)             CV                S
                      KCal/Mol        Cal/Mol-Kelvin    Cal/Mol-Kelvin
 Total                  104.347             31.233             88.455
 Electronic               0.000              0.000              0.000
 Translational            0.889              2.981             40.409
 Rotational               0.889              2.981             28.557
 Vibrational            102.570             25.272             19.489
 Vibration     1          0.596              1.976              4.690
 Vibration     2          0.609              1.934              3.117
 Vibration     3          0.644              1.819              2.007
 Vibration     4          0.653              1.791              1.860
 Vibration     5          0.718              1.601              1.225
 Vibration     6          0.728              1.572              1.159
 Vibration     7          0.755              1.499              1.013
 Vibration     8          0.793              1.399              0.851
 Vibration     9          0.847              1.269              0.679
 Vibration    10          0.939              1.071              0.482

 Optimization completed.
    -- Stationary point found.
 Normal termination of Gaussian 09 at Tue Jan 28 04:43:41 2020.
