 Gaussian 09, Revision D.01,
 Gaussian 09:  ES64L-G09RevD.01 24-Apr-2013

 -----------------------------
 # b3lyp 6-31G(2df,p) opt Freq
 -----------------------------

 -----
 titel
 -----
 Symbolic Z-matrix:
 Charge =  0 Multiplicity = 1

 SCF Done:  E(RB3LYP) =  -423.121729622     A.U. after   14 cycles
 Optimization completed.
    -- Stationary point found.
 Normal termination of Gaussian 09 at Tue Jan 28 13:26:01 2020.

 ----------------------------------------------------------------------
 #N Geom=AllCheck Guess=TCheck SCRF=Check GenChk RB3LYP/6-31G(2df,p) Fr
 eq
 ----------------------------------------------------------------------

 Structure from the checkpoint file:  "/scratch/puck/g09_0a1d4426-db2d-4c80-9d78-6bf922b28248/Gau-108878.chk"
 -----
 titel
 -----
 Charge =  0 Multiplicity = 1

                         Standard orientation:
 ---------------------------------------------------------------------
 Center     Atomic      Atomic             Coordinates (Angstroms)
 Number     Number       Type             X           Y           Z
 ---------------------------------------------------------------------
      1          6           0       -3.203784    0.492179   -0.358828
      2          8           0       -2.263120   -0.198521    0.432452
      3          6           0       -0.957475    0.288783    0.293059
      4          6           0       -0.154457   -0.086032   -0.986601
      5          6           0        1.068531   -0.413234   -0.058658
      6          8           0        1.720317   -1.651546   -0.267816
      7          6           0        0.078776   -0.471513    1.139619
      8          6           0        2.025051    0.686977    0.018080
      9          6           0        2.828937    1.581362    0.045896
     10          1           0       -2.986975    0.398095   -1.433637
     11          1           0       -4.183281    0.051587   -0.158597
     12          1           0       -3.237491    1.564087   -0.107471
     13          1           0       -0.928853    1.373238    0.476776
     14          1           0       -0.530779   -1.020998   -1.409810
     15          1           0       -0.014793    0.662595   -1.767801
     16          1           0        2.413496   -1.517594   -0.923597
     17          1           0       -0.240893   -1.507137    1.276796
     18          1           0        0.400276   -0.045466    2.089891
     19          1           0        3.538237    2.371009    0.084957
 ---------------------------------------------------------------------

 SCF Done:  E(RB3LYP) =  -423.121729622     A.U. after    1 cycles

 The electronic state is 1-A.
 Alpha  occ. eigenvalues --  -19.14396 -19.14076 -10.26243 -10.23388 -10.22423
 Alpha  occ. eigenvalues --  -10.18602 -10.18214 -10.18168 -10.18156  -1.03634
 Alpha  occ. eigenvalues --   -1.02859  -0.84496  -0.75265  -0.69908  -0.67047
 Alpha  occ. eigenvalues --   -0.63816  -0.58187  -0.54036  -0.51551  -0.49464
 Alpha  occ. eigenvalues --   -0.48772  -0.45548  -0.43516  -0.41014  -0.39932
 Alpha  occ. eigenvalues --   -0.39318  -0.35638  -0.34533  -0.33618  -0.30718
 Alpha  occ. eigenvalues --   -0.28863  -0.27603  -0.26152  -0.24775
 Alpha virt. eigenvalues --    0.02916   0.04794   0.08558   0.09514   0.11928
 Alpha virt. eigenvalues --    0.12623   0.12698   0.15026   0.15427   0.16245
 Alpha virt. eigenvalues --    0.16643   0.17414   0.19365   0.19610   0.21341

 Mulliken charges:
               1
     1  C   -0.240841
     2  O   -0.236860
     3  C    0.169580
     4  C   -0.320504
     5  C    0.237118
     6  O   -0.457510
     7  C   -0.302519
     8  C    0.297860
     9  C   -0.504636
    10  H    0.108307
    11  H    0.128186
    12  H    0.104838
    13  H    0.072107
    14  H    0.117282
    15  H    0.102080
    16  H    0.282261
    17  H    0.129702
    18  H    0.112028
    19  H    0.201522
 Sum of Mulliken charges =   0.00000

 Dipole moment (field-independent basis, Debye):
    X=              0.2315    Y=              1.6325    Z=             -1.3827  Tot=              2.1518
 Quadrupole moment (field-independent basis, Debye-Ang):
   XX=            -47.9535   YY=            -53.4321   ZZ=            -52.4420
   XY=              1.0329   XZ=             -0.1542   YZ=              1.4918

  Exact polarizability:  96.634  10.058  75.838   0.911   0.723  63.426
 Approx polarizability: 122.887  21.860 121.614  -0.239   0.384  93.330

                      1                      2                      3
                      A                      A                      A
 Frequencies --     60.9335                99.6996               148.7766
 Red. masses --      3.7991                 2.8219                 2.5552
 Frc consts  --      0.0083                 0.0165                 0.0333
 IR Inten    --      0.0744                 1.9739                 0.4078

                      4                      5                      6
                      A                      A                      A
 Frequencies --    173.0516               207.2634               248.6345
 Red. masses --      2.7016                 1.3819                 1.7034
 Frc consts  --      0.0477                 0.0350                 0.0620
 IR Inten    --      2.4589                 1.0190                19.8002

                      7                      8                      9
                      A                      A                      A
 Frequencies --    277.7179               344.7428               375.9409
 Red. masses --      1.4974                 3.4702                 4.5055
 Frc consts  --      0.0680                 0.2430                 0.3752
 IR Inten    --     81.6572                 4.1367                 6.0759

                     10                     11                     12
                      A                      A                      A
 Frequencies --    415.0981               452.6437               525.9814
 Red. masses --      4.4682                 2.3839                 3.0643
 Frc consts  --      0.4536                 0.2878                 0.4995
 IR Inten    --      4.0777                 4.9332                10.4571

                     13                     14                     15
                      A                      A                      A
 Frequencies --    569.8101               616.3177               632.5523
 Red. masses --      3.5992                 1.2094                 5.3416
 Frc consts  --      0.6885                 0.2707                 1.2593
 IR Inten    --      2.7892                45.1969                 2.1747

                     16                     17                     18
                      A                      A                      A
 Frequencies --    669.3316               717.9758               831.3867
 Red. masses --      1.2523                 2.9863                 1.4147
 Frc consts  --      0.3306                 0.9070                 0.5761
 IR Inten    --     35.1755                 3.6403                 0.9464

                     19                     20                     21
                      A                      A                      A
 Frequencies --    872.4239               950.7314               972.1151
 Red. masses --      2.5135                 2.9639                 4.1512
 Frc consts  --      1.1272                 1.5784                 2.3113
 IR Inten    --      0.2670                 8.9470                 7.6367

                     22                     23                     24
                      A                      A                      A
 Frequencies --   1008.2252              1021.3399              1072.7964
 Red. masses --      2.4114                 1.7348                 1.6833
 Frc consts  --      1.4443                 1.0662                 1.1414
 IR Inten    --     40.6632                 4.7737                30.4012

                     25                     26                     27
                      A                      A                      A
 Frequencies --   1106.3599              1150.8011              1175.0267
 Red. masses --      4.7494                 2.1525                 2.1684
 Frc consts  --      3.4251                 1.6795                 1.7639
 IR Inten    --    189.4508                 0.2238                52.4692

                     28                     29                     30
                      A                      A                      A
 Frequencies --   1185.4314              1209.1518              1244.1414
 Red. masses --      1.3345                 1.3941                 2.4090
 Frc consts  --      1.1049                 1.2009                 2.1970
 IR Inten    --      6.9927                 8.2132                69.4605

                     31                     32                     33
                      A                      A                      A
 Frequencies --   1260.9364              1271.0325              1294.5890
 Red. masses --      1.4441                 1.8525                 1.4207
 Frc consts  --      1.3528                 1.7633                 1.4029
 IR Inten    --      1.5465                59.8170                 3.5863

                     34                     35                     36
                      A                      A                      A
 Frequencies --   1367.4237              1393.8198              1456.4554
 Red. masses --      1.6109                 1.3013                 1.0917
 Frc consts  --      1.7747                 1.4895                 1.3645
 IR Inten    --     58.0690                53.1555                 4.2889

                     37                     38                     39
                      A                      A                      A
 Frequencies --   1478.8190              1486.3755              1492.1627
 Red. masses --      1.1255                 1.0645                 1.1537
 Frc consts  --      1.4502                 1.3857                 1.5134
 IR Inten    --      0.5698                 6.8088                 2.5972

                     40                     41                     42
                      A                      A                      A
 Frequencies --   1509.3258              2227.4576              2973.4494
 Red. masses --      1.0715                 5.9425                 1.0393
 Frc consts  --      1.4382                17.3716                 5.4139
 IR Inten    --      5.6630                 1.6875                47.9196

                     43                     44                     45
                      A                      A                      A
 Frequencies --   2991.5915              3021.6324              3067.2171
 Red. masses --      1.0818                 1.1022                 1.0566
 Frc consts  --      5.7041                 5.9293                 5.8568
 IR Inten    --     49.6045                48.7855                19.1475

                     46                     47                     48
                      A                      A                      A
 Frequencies --   3081.7491              3115.9896              3137.1403
 Red. masses --      1.0582                 1.0963                 1.1100
 Frc consts  --      5.9213                 6.2712                 6.4364
 IR Inten    --      7.3324                30.9735                16.3536

                     49                     50                     51
                      A                      A                      A
 Frequencies --   3148.9283              3500.3207              3806.1876
 Red. masses --      1.1093                 1.1614                 1.0661
 Frc consts  --      6.4806                 8.3838                 9.1000
 IR Inten    --     13.7113                69.6242                25.4210

 - Thermochemistry -
 -------------------
 Temperature   298.150 Kelvin.  Pressure   1.00000 Atm.
 Atom     1 has atomic number  6 and mass  12.00000

 Molecular mass:   126.06808 amu.
 Principal axes and moments of inertia in atomic units:
                           1         2         3
     Eigenvalues --   547.337011885.400512087.19523
           X            0.99993  -0.00592   0.00993
           Y            0.00597   0.99997  -0.00518
           Z           -0.00990   0.00524   0.99994
 This molecule is an asymmetric top.
 Rotational symmetry number  1.
 Warning -- assumption of classical behavior for rotation
           may cause significant error
 Rotational temperatures (Kelvin)      0.15825     0.04594     0.04150
 Rotational constants (GHZ):           3.29731     0.95722     0.86467
 Zero-point vibrational energy     409236.5 (Joules/Mol)
                                   97.80988 (Kcal/Mol)
 Warning -- explicit consideration of  14 degrees of freedom as
           vibrations may cause significant error
 Vibrational temperatures:     87.67   143.45   214.06   248.98   298.21
          (Kelvin)            357.73   399.57   496.01   540.89   597.23
                              651.25   756.77   819.83   886.74   910.10
                              963.02  1033.01  1196.18  1255.22  1367.89
                             1398.66  1450.61  1469.48  1543.51  1591.80
                             1655.74  1690.60  1705.57  1739.70  1790.04
                             1814.20  1828.73  1862.62  1967.42  2005.39
                             2095.51  2127.69  2138.56  2146.89  2171.58
                             3204.81  4278.13  4304.23  4347.45  4413.04
                             4433.94  4483.21  4513.64  4530.60  5036.17
                             5476.25

 Zero-point correction=                           0.155870 (Hartree/Particle)
 Thermal correction to Energy=                    0.165655
 Thermal correction to Enthalpy=                  0.166599
 Thermal correction to Gibbs Free Energy=         0.121147
 Sum of electronic and zero-point Energies=           -422.965860
 Sum of electronic and thermal Energies=              -422.956074
 Sum of electronic and thermal Enthalpies=            -422.955130
 Sum of electronic and thermal Free Energies=         -423.000582

                     E (Thermal)             CV                S
                      KCal/Mol        Cal/Mol-Kelvin    Cal/Mol-Kelvin
 Total                  103.950             36.253             95.662
 Electronic               0.000              0.000              0.000
 Translational            0.889              2.981             40.409
 Rotational               0.889              2.981             29.156
 Vibrational            102.173             30.292             26.097
 Vibration     1          0.597              1.973              4.427
 Vibration     2          0.604              1.949              3.460
 Vibration     3          0.618              1.904              2.688
 Vibration     4          0.627              1.876              2.402
 Vibration     5          0.641              1.830              2.068
 Vibration     6          0.662              1.765              1.740
 Vibration     7          0.679              1.715              1.548
 Vibration     8          0.723              1.586              1.190
 Vibration     9          0.747              1.521              1.055
 Vibration    10          0.779              1.437              0.909
 Vibration    11          0.811              1.355              0.788
 Vibration    12          0.881              1.192              0.596
 Vibration    13          0.926              1.097              0.505
 Vibration    14          0.976              0.997              0.422

 Optimization completed.
    -- Stationary point found.
 Normal termination of Gaussian 09 at Tue Jan 28 14:05:04 2020.
