 Gaussian 09, Revision D.01,
 Gaussian 09:  ES64L-G09RevD.01 24-Apr-2013

 -----------------------------
 # b3lyp 6-31G(2df,p) opt Freq
 -----------------------------

 -----
 titel
 -----
 Symbolic Z-matrix:
 Charge =  0 Multiplicity = 1

 SCF Done:  E(RB3LYP) =  -423.241116639     A.U. after   14 cycles
 Optimization completed.
    -- Stationary point found.
 Normal termination of Gaussian 09 at Mon Jan 27 22:03:25 2020.

 ----------------------------------------------------------------------
 #N Geom=AllCheck Guess=TCheck SCRF=Check GenChk RB3LYP/6-31G(2df,p) Fr
 eq
 ----------------------------------------------------------------------

 Structure from the checkpoint file:  "/scratch/puck/g09_aa1b792e-b209-4502-acda-6798e7eddefd/Gau-53229.chk"
 -----
 titel
 -----
 Charge =  0 Multiplicity = 1

                         Standard orientation:
 ---------------------------------------------------------------------
 Center     Atomic      Atomic             Coordinates (Angstroms)
 Number     Number       Type             X           Y           Z
 ---------------------------------------------------------------------
      1          6           0       -2.449787   -1.089560   -0.190796
      2          6           0       -1.075646   -0.520605    0.032850
      3          6           0       -0.735232    0.770755    0.074532
      4          6           0       -1.653513    1.943345   -0.126020
      5          6           0        0.701777    1.126244    0.383045
      6          6           0        1.728469    0.092694   -0.045467
      7          8           0        2.863810    0.366953   -0.324249
      8          8           0        1.317707   -1.192130   -0.111935
      9          6           0       -0.012081   -1.564347    0.267638
     10          1           0       -2.496501   -1.646063   -1.135632
     11          1           0       -2.707980   -1.802729    0.603070
     12          1           0       -3.227937   -0.326060   -0.210990
     13          1           0       -1.319168    2.552699   -0.975314
     14          1           0       -2.689296    1.654469   -0.308584
     15          1           0       -1.636793    2.602223    0.751921
     16          1           0        0.997757    2.069158   -0.084552
     17          1           0        0.828260    1.281928    1.465975
     18          1           0       -0.226284   -2.465171   -0.316689
     19          1           0        0.001890   -1.870196    1.325575
 ---------------------------------------------------------------------

 SCF Done:  E(RB3LYP) =  -423.241116639     A.U. after    1 cycles

 The electronic state is 1-A.
 Alpha  occ. eigenvalues --  -19.17754 -19.11078 -10.30077 -10.25054 -10.20279
 Alpha  occ. eigenvalues --  -10.20227 -10.19937 -10.19536 -10.19258  -1.09305
 Alpha  occ. eigenvalues --   -1.00973  -0.84034  -0.77728  -0.72300  -0.71141
 Alpha  occ. eigenvalues --   -0.65260  -0.58056  -0.51916  -0.49997  -0.48388
 Alpha  occ. eigenvalues --   -0.47499  -0.44023  -0.43030  -0.42772  -0.41532
 Alpha  occ. eigenvalues --   -0.40921  -0.39312  -0.38998  -0.37132  -0.36154
 Alpha  occ. eigenvalues --   -0.33032  -0.28737  -0.26300  -0.24118
 Alpha virt. eigenvalues --    0.00949   0.02204   0.07761   0.09691   0.10551
 Alpha virt. eigenvalues --    0.13080   0.13804   0.14702   0.15324   0.15709
 Alpha virt. eigenvalues --    0.17753   0.18856   0.20479   0.21536   0.22388

 Mulliken charges:
               1
     1  C   -0.492183
     2  C    0.187043
     3  C    0.200866
     4  C   -0.487953
     5  C   -0.445155
     6  C    0.416061
     7  O   -0.330056
     8  O   -0.219118
     9  C   -0.147096
    10  H    0.134330
    11  H    0.129244
    12  H    0.130665
    13  H    0.134455
    14  H    0.126580
    15  H    0.130220
    16  H    0.140370
    17  H    0.142989
    18  H    0.127554
    19  H    0.121185
 Sum of Mulliken charges =   0.00000

 Dipole moment (field-independent basis, Debye):
    X=             -4.5315    Y=              0.1036    Z=              1.1470  Tot=              4.6755
 Quadrupole moment (field-independent basis, Debye-Ang):
   XX=            -64.4808   YY=            -49.4875   ZZ=            -52.1670
   XY=              0.8990   XZ=              2.7539   YZ=             -0.2026

  Exact polarizability:  88.653   7.878  92.966   0.375  -0.043  55.870
 Approx polarizability: 121.303  16.700 140.818  -2.354   0.192  87.412

                      1                      2                      3
                      A                      A                      A
 Frequencies --     40.7109               120.1639               139.0743
 Red. masses --      2.8581                 4.6004                 1.0881
 Frc consts  --      0.0028                 0.0391                 0.0124
 IR Inten    --      4.7341                 0.4307                 0.4034

                      4                      5                      6
                      A                      A                      A
 Frequencies --    153.1414               178.2781               287.3985
 Red. masses --      1.1480                 1.8263                 2.2710
 Frc consts  --      0.0159                 0.0342                 0.1105
 IR Inten    --      0.2832                 0.4090                 3.0139

                      7                      8                      9
                      A                      A                      A
 Frequencies --    328.1956               330.2416               424.8180
 Red. masses --      2.7491                 2.5578                 7.0843
 Frc consts  --      0.1745                 0.1644                 0.7533
 IR Inten    --      0.4104                 0.6580                 1.6535

                     10                     11                     12
                      A                      A                      A
 Frequencies --    455.7730               503.0551               553.3952
 Red. masses --      5.0333                 2.4398                 4.0768
 Frc consts  --      0.6160                 0.3638                 0.7356
 IR Inten    --      4.8103                 0.0337                 6.8169

                     13                     14                     15
                      A                      A                      A
 Frequencies --    588.7320               725.6716               745.9173
 Red. masses --      3.5353                 4.4271                 5.3605
 Frc consts  --      0.7219                 1.3736                 1.7573
 IR Inten    --      4.4492                 1.5009                 2.6514

                     16                     17                     18
                      A                      A                      A
 Frequencies --    827.9155               925.2584               937.1294
 Red. masses --      3.5834                 1.7209                 1.9165
 Frc consts  --      1.4472                 0.8680                 0.9917
 IR Inten    --     10.7838                 1.8657                 6.0307

                     19                     20                     21
                      A                      A                      A
 Frequencies --    971.7432              1004.3072              1058.8088
 Red. masses --      1.6421                 1.4181                 1.6093
 Frc consts  --      0.9136                 0.8427                 1.0630
 IR Inten    --      7.5191                 1.7653                 0.8645

                     22                     23                     24
                      A                      A                      A
 Frequencies --   1076.6029              1097.6073              1142.9654
 Red. masses --      1.7494                 6.0427                 2.5300
 Frc consts  --      1.1947                 4.2892                 1.9473
 IR Inten    --      0.9600                70.2804                16.5247

                     25                     26                     27
                      A                      A                      A
 Frequencies --   1173.4646              1196.5182              1227.9616
 Red. masses --      3.3116                 1.9211                 1.7297
 Frc consts  --      2.6867                 1.6205                 1.5367
 IR Inten    --      1.5977                59.0199                46.8688

                     28                     29                     30
                      A                      A                      A
 Frequencies --   1268.1363              1272.6639              1348.3980
 Red. masses --      1.0821                 2.8408                 2.0377
 Frc consts  --      1.0253                 2.7110                 2.1829
 IR Inten    --      6.7396                80.6277                 3.1604

                     31                     32                     33
                      A                      A                      A
 Frequencies --   1407.1810              1420.0145              1431.7982
 Red. masses --      1.3272                 1.2762                 1.4953
 Frc consts  --      1.5484                 1.5161                 1.8061
 IR Inten    --      1.6150                 5.9746                33.9551

                     34                     35                     36
                      A                      A                      A
 Frequencies --   1456.3151              1478.6361              1482.8112
 Red. masses --      1.0805                 1.0468                 1.0476
 Frc consts  --      1.3502                 1.3484                 1.3572
 IR Inten    --      2.6305                 0.2227                 8.1815

                     37                     38                     39
                      A                      A                      A
 Frequencies --   1485.6586              1497.5473              1504.5980
 Red. masses --      1.0469                 1.0655                 1.0918
 Frc consts  --      1.3614                 1.4079                 1.4562
 IR Inten    --      5.9322                 5.8752                 5.4786

                     40                     41                     42
                      A                      A                      A
 Frequencies --   1764.5483              1847.5682              2984.2309
 Red. masses --      7.4726                12.3070                 1.0711
 Frc consts  --     13.7084                24.7516                 5.6200
 IR Inten    --      2.9898               368.2770                42.8648

                     43                     44                     45
                      A                      A                      A
 Frequencies --   2996.5667              3017.9625              3020.7803
 Red. masses --      1.0716                 1.0414                 1.0422
 Frc consts  --      5.6691                 5.5887                 5.6034
 IR Inten    --     10.7304                43.6759                12.4555

                     46                     47                     48
                      A                      A                      A
 Frequencies --   3060.6029              3062.8923              3069.1598
 Red. masses --      1.0987                 1.0984                 1.0907
 Frc consts  --      6.0637                 6.0710                 6.0532
 IR Inten    --     13.5953                20.2491                26.8503

                     49                     50                     51
                      A                      A                      A
 Frequencies --   3092.0800              3130.5237              3143.1036
 Red. masses --      1.0880                 1.0969                 1.0930
 Frc consts  --      6.1289                 6.3335                 6.3619
 IR Inten    --      7.5508                12.1928                27.2260

 - Thermochemistry -
 -------------------
 Temperature   298.150 Kelvin.  Pressure   1.00000 Atm.
 Atom     1 has atomic number  6 and mass  12.00000

 Molecular mass:   126.06808 amu.
 Principal axes and moments of inertia in atomic units:
                           1         2         3
     Eigenvalues --   678.236041339.082171927.59067
           X            0.99991   0.00777   0.01094
           Y           -0.00776   0.99997  -0.00092
           Z           -0.01095   0.00084   0.99994
 This molecule is an asymmetric top.
 Rotational symmetry number  1.
 Warning -- assumption of classical behavior for rotation
           may cause significant error
 Rotational temperatures (Kelvin)      0.12770     0.06468     0.04493
 Rotational constants (GHZ):           2.66093     1.34774     0.93627
 Zero-point vibrational energy     415454.8 (Joules/Mol)
                                   99.29609 (Kcal/Mol)
 Warning -- explicit consideration of  13 degrees of freedom as
           vibrations may cause significant error
 Vibrational temperatures:     58.57   172.89   200.10   220.34   256.50
          (Kelvin)            413.50   472.20   475.14   611.22   655.75
                              723.78   796.21   847.05  1044.08  1073.21
                             1191.18  1331.24  1348.32  1398.12  1444.97
                             1523.39  1548.99  1579.21  1644.47  1688.35
                             1721.52  1766.76  1824.56  1831.08  1940.04
                             2024.62  2043.08  2060.04  2095.31  2127.42
                             2133.43  2137.53  2154.63  2164.78  2538.79
                             2658.24  4293.64  4311.39  4342.17  4346.22
                             4403.52  4406.81  4415.83  4448.81  4504.12
                             4522.22

 Zero-point correction=                           0.158238 (Hartree/Particle)
 Thermal correction to Energy=                    0.167530
 Thermal correction to Enthalpy=                  0.168474
 Thermal correction to Gibbs Free Energy=         0.123543
 Sum of electronic and zero-point Energies=           -423.082878
 Sum of electronic and thermal Energies=              -423.073587
 Sum of electronic and thermal Enthalpies=            -423.072643
 Sum of electronic and thermal Free Energies=         -423.117574

                     E (Thermal)             CV                S
                      KCal/Mol        Cal/Mol-Kelvin    Cal/Mol-Kelvin
 Total                  105.126             33.554             94.566
 Electronic               0.000              0.000              0.000
 Translational            0.889              2.981             40.409
 Rotational               0.889              2.981             28.950
 Vibrational            103.349             27.592             25.207
 Vibration     1          0.594              1.981              5.224
 Vibration     2          0.609              1.932              3.098
 Vibration     3          0.615              1.914              2.817
 Vibration     4          0.619              1.899              2.633
 Vibration     5          0.629              1.869              2.346
 Vibration     6          0.685              1.697              1.489
 Vibration     7          0.711              1.619              1.269
 Vibration     8          0.713              1.615              1.259
 Vibration     9          0.787              1.416              0.876
 Vibration    10          0.814              1.348              0.779
 Vibration    11          0.858              1.243              0.651
 Vibration    12          0.909              1.132              0.537
 Vibration    13          0.946              1.056              0.469

 Normal termination of Gaussian 09 at Mon Jan 27 22:49:39 2020.
