 Gaussian 09, Revision D.01,
 Gaussian 09:  ES64L-G09RevD.01 24-Apr-2013

 -----------------------------
 # b3lyp 6-31G(2df,p) opt Freq
 -----------------------------

 -----
 titel
 -----
 Symbolic Z-matrix:
 Charge =  0 Multiplicity = 1

 SCF Done:  E(RB3LYP) =  -423.160814975     A.U. after   14 cycles
 Optimization completed.
    -- Stationary point found.
 Normal termination of Gaussian 09 at Tue Jan 28 13:28:14 2020.

 ----------------------------------------------------------------------
 #N Geom=AllCheck Guess=TCheck SCRF=Check GenChk RB3LYP/6-31G(2df,p) Fr
 eq
 ----------------------------------------------------------------------

 Structure from the checkpoint file:  "/scratch/puck/g09_262d457a-d0b7-4f1a-9d3a-ac5790bc92ff/Gau-109017.chk"
 -----
 titel
 -----
 Charge =  0 Multiplicity = 1

                         Standard orientation:
 ---------------------------------------------------------------------
 Center     Atomic      Atomic             Coordinates (Angstroms)
 Number     Number       Type             X           Y           Z
 ---------------------------------------------------------------------
      1          6           0       -3.256851   -0.591882   -0.183101
      2          8           0       -1.853851   -0.763550   -0.240057
      3          6           0       -1.160984    0.428947   -0.411039
      4          6           0       -0.847167    1.287765    0.797155
      5          6           0        0.226243    0.465979    0.130619
      6          6           0        0.954190   -0.752886    0.724158
      7          6           0        2.205613   -0.294089   -0.048933
      8          8           0        3.309599   -0.734619   -0.175364
      9          6           0        1.487915    0.956767   -0.602060
     10          1           0       -3.647923   -0.153813   -1.113567
     11          1           0       -3.696365   -1.582412   -0.046184
     12          1           0       -3.552224    0.054711    0.655298
     13          1           0       -1.361896    0.938324   -1.356556
     14          1           0       -0.830430    2.366809    0.678156
     15          1           0       -1.212043    0.937621    1.757809
     16          1           0        1.088797   -0.751930    1.810888
     17          1           0        0.560857   -1.727972    0.422149
     18          1           0        1.916136    1.894338   -0.230847
     19          1           0        1.435358    1.006067   -1.694570
 ---------------------------------------------------------------------

 SCF Done:  E(RB3LYP) =  -423.160814975     A.U. after    1 cycles

 The electronic state is 1-A.
 Alpha  occ. eigenvalues --  -19.15262 -19.13491 -10.26975 -10.24051 -10.23047
 Alpha  occ. eigenvalues --  -10.20648 -10.19338 -10.19096 -10.19003  -1.04749
 Alpha  occ. eigenvalues --   -1.04384  -0.87816  -0.79697  -0.69804  -0.68384
 Alpha  occ. eigenvalues --   -0.59725  -0.56102  -0.52697  -0.51089  -0.49016
 Alpha  occ. eigenvalues --   -0.47142  -0.45452  -0.43720  -0.43010  -0.41318
 Alpha  occ. eigenvalues --   -0.40850  -0.39707  -0.36371  -0.34635  -0.33370
 Alpha  occ. eigenvalues --   -0.31140  -0.28134  -0.25446  -0.24060
 Alpha virt. eigenvalues --   -0.01892   0.08511   0.10063   0.10792   0.11243
 Alpha virt. eigenvalues --    0.11818   0.13382   0.14765   0.15638   0.16498
 Alpha virt. eigenvalues --    0.17244   0.17703   0.18750   0.21417   0.23384

 Mulliken charges:
               1
     1  C   -0.231658
     2  O   -0.238609
     3  C    0.072316
     4  C   -0.390308
     5  C    0.301780
     6  C   -0.410504
     7  C    0.407684
     8  O   -0.286279
     9  C   -0.432531
    10  H    0.108724
    11  H    0.130110
    12  H    0.111163
    13  H    0.084879
    14  H    0.114482
    15  H    0.120993
    16  H    0.129199
    17  H    0.146912
    18  H    0.131041
    19  H    0.130606
 Sum of Mulliken charges =   0.00000

 Dipole moment (field-independent basis, Debye):
    X=             -3.2669    Y=              1.7750    Z=              0.2751  Tot=              3.7281
 Quadrupole moment (field-independent basis, Debye-Ang):
   XX=            -61.0349   YY=            -52.6833   ZZ=            -51.0340
   XY=              3.7365   XZ=              1.0779   YZ=             -1.0667

  Exact polarizability:  95.352  -0.322  72.138  -1.804  -2.553  66.182
 Approx polarizability: 122.908  -4.211 106.909  -3.080  -2.050  99.830

                      1                      2                      3
                      A                      A                      A
 Frequencies --     40.9209                91.7022               137.3350
 Red. masses --      4.5675                 2.9192                 3.2400
 Frc consts  --      0.0045                 0.0145                 0.0360
 IR Inten    --      2.3695                 2.6587                 3.8151

                      4                      5                      6
                      A                      A                      A
 Frequencies --    167.9148               226.7020               292.8033
 Red. masses --      1.2885                 1.8826                 3.1818
 Frc consts  --      0.0214                 0.0570                 0.1607
 IR Inten    --      0.0302                 2.1520                 1.8439

                      7                      8                      9
                      A                      A                      A
 Frequencies --    316.5736               414.5628               440.5239
 Red. masses --      3.2310                 2.4713                 2.4334
 Frc consts  --      0.1908                 0.2502                 0.2782
 IR Inten    --      4.8324                 1.3474                 0.6176

                     10                     11                     12
                      A                      A                      A
 Frequencies --    457.8517               491.2963               587.6126
 Red. masses --      2.3857                 3.4900                 3.4610
 Frc consts  --      0.2947                 0.4963                 0.7041
 IR Inten    --      3.5171                 1.5145                 0.9599

                     13                     14                     15
                      A                      A                      A
 Frequencies --    674.2879               718.9029               822.8404
 Red. masses --      1.3771                 3.0164                 2.1329
 Frc consts  --      0.3689                 0.9185                 0.8508
 IR Inten    --      0.3309                 0.1407                 4.4666

                     16                     17                     18
                      A                      A                      A
 Frequencies --    870.0973               893.2736               904.4955
 Red. masses --      2.2936                 1.5760                 3.5874
 Frc consts  --      1.0231                 0.7409                 1.7292
 IR Inten    --      2.3757                 1.7531                 4.6028

                     19                     20                     21
                      A                      A                      A
 Frequencies --    990.0082              1014.3407              1047.8697
 Red. masses --      1.7829                 2.1085                 1.8442
 Frc consts  --      1.0296                 1.2782                 1.1931
 IR Inten    --      3.5184                23.2731                12.0911

                     22                     23                     24
                      A                      A                      A
 Frequencies --   1055.4073              1061.2493              1085.8463
 Red. masses --      1.6256                 3.7416                 2.9957
 Frc consts  --      1.0669                 2.4828                 2.0810
 IR Inten    --     28.7301                57.8113                 5.7066

                     25                     26                     27
                      A                      A                      A
 Frequencies --   1110.0801              1172.1247              1182.0565
 Red. masses --      1.4438                 2.2300                 1.4225
 Frc consts  --      1.0483                 1.8051                 1.1710
 IR Inten    --     10.0580                85.4470                10.9164

                     28                     29                     30
                      A                      A                      A
 Frequencies --   1186.2244              1193.0233              1215.8172
 Red. masses --      1.5245                 1.4343                 1.5584
 Frc consts  --      1.2639                 1.2028                 1.3573
 IR Inten    --      1.1280                 1.5072                13.1372

                     31                     32                     33
                      A                      A                      A
 Frequencies --   1224.2131              1250.0072              1332.0677
 Red. masses --      2.1183                 2.2655                 1.5483
 Frc consts  --      1.8705                 2.0856                 1.6186
 IR Inten    --     46.8476                25.6091                11.8086

                     34                     35                     36
                      A                      A                      A
 Frequencies --   1411.3445              1428.0475              1446.3291
 Red. masses --      1.5044                 1.0875                 1.1347
 Frc consts  --      1.7655                 1.3067                 1.3985
 IR Inten    --     23.1523                13.1992                 3.5122

                     37                     38                     39
                      A                      A                      A
 Frequencies --   1470.4051              1484.8823              1494.0345
 Red. masses --      1.2667                 1.0512                 1.5233
 Frc consts  --      1.6136                 1.3656                 2.0034
 IR Inten    --     10.2208                 4.1733                17.3821

                     40                     41                     42
                      A                      A                      A
 Frequencies --   1509.2516              1899.2820              2985.6255
 Red. masses --      1.1250                12.8204                 1.0362
 Frc consts  --      1.5098                27.2477                 5.4421
 IR Inten    --      2.6535               307.2920                61.8270

                     43                     44                     45
                      A                      A                      A
 Frequencies --   3038.0107              3043.6421              3053.5249
 Red. masses --      1.1027                 1.0582                 1.0603
 Frc consts  --      5.9964                 5.7755                 5.8246
 IR Inten    --     48.3831                13.9203                12.6229

                     46                     47                     48
                      A                      A                      A
 Frequencies --   3072.2815              3094.8877              3106.2803
 Red. masses --      1.0865                 1.1052                 1.1034
 Frc consts  --      6.0424                 6.2372                 6.2728
 IR Inten    --     30.2108                 8.7386                 3.4379

                     49                     50                     51
                      A                      A                      A
 Frequencies --   3120.6694              3121.2666              3210.3830
 Red. masses --      1.0571                 1.0946                 1.1169
 Frc consts  --      6.0654                 6.2828                 6.7825
 IR Inten    --      6.7494                29.0047                 6.8809

 - Thermochemistry -
 -------------------
 Temperature   298.150 Kelvin.  Pressure   1.00000 Atm.
 Atom     1 has atomic number  6 and mass  12.00000

 Molecular mass:   126.06808 amu.
 Principal axes and moments of inertia in atomic units:
                           1         2         3
     Eigenvalues --   427.278822018.173982189.69329
           X            0.99994   0.01093   0.00026
           Y           -0.01091   0.99913  -0.04025
           Z           -0.00070   0.04025   0.99919
 This molecule is an asymmetric top.
 Rotational symmetry number  1.
 Rotational temperatures (Kelvin)      0.20271     0.04292     0.03956
 Rotational constants (GHZ):           4.22380     0.89424     0.82420
 Zero-point vibrational energy     410679.1 (Joules/Mol)
                                   98.15465 (Kcal/Mol)
 Warning -- explicit consideration of  12 degrees of freedom as
           vibrations may cause significant error
 Vibrational temperatures:     58.88   131.94   197.59   241.59   326.17
          (Kelvin)            421.28   455.48   596.46   633.81   658.75
                              706.86   845.44   970.15  1034.34  1183.88
                             1251.87  1285.22  1301.37  1424.40  1459.41
                             1507.65  1518.49  1526.90  1562.29  1597.16
                             1686.42  1700.71  1706.71  1716.49  1749.29
                             1761.37  1798.48  1916.55  2030.61  2054.64
                             2080.94  2115.58  2136.41  2149.58  2171.47
                             2732.64  4295.64  4371.01  4379.12  4393.34
                             4420.32  4452.85  4469.24  4489.94  4490.80
                             4619.02

 Zero-point correction=                           0.156419 (Hartree/Particle)
 Thermal correction to Energy=                    0.165556
 Thermal correction to Enthalpy=                  0.166500
 Thermal correction to Gibbs Free Energy=         0.121782
 Sum of electronic and zero-point Energies=           -423.004396
 Sum of electronic and thermal Energies=              -422.995259
 Sum of electronic and thermal Enthalpies=            -422.994315
 Sum of electronic and thermal Free Energies=         -423.039033

                     E (Thermal)             CV                S
                      KCal/Mol        Cal/Mol-Kelvin    Cal/Mol-Kelvin
 Total                  103.888             33.599             94.117
 Electronic               0.000              0.000              0.000
 Translational            0.889              2.981             40.409
 Rotational               0.889              2.981             29.025
 Vibrational            102.111             27.638             24.683
 Vibration     1          0.594              1.981              5.214
 Vibration     2          0.602              1.955              3.623
 Vibration     3          0.614              1.916              2.841
 Vibration     4          0.625              1.882              2.459
 Vibration     5          0.650              1.800              1.905
 Vibration     6          0.688              1.687              1.458
 Vibration     7          0.703              1.642              1.328
 Vibration     8          0.778              1.439              0.911
 Vibration     9          0.800              1.382              0.825
 Vibration    10          0.816              1.344              0.772
 Vibration    11          0.847              1.269              0.680
 Vibration    12          0.945              1.058              0.471

 Optimization completed.
    -- Stationary point found.
 Normal termination of Gaussian 09 at Tue Jan 28 14:08:05 2020.
