 Gaussian 09, Revision D.01,
 Gaussian 09:  ES64L-G09RevD.01 24-Apr-2013

 -----------------------------
 # b3lyp 6-31G(2df,p) opt Freq
 -----------------------------

 -----
 titel
 -----
 Symbolic Z-matrix:
 Charge =  0 Multiplicity = 1

 SCF Done:  E(RB3LYP) =  -423.120121351     A.U. after   13 cycles
 Optimization completed.
    -- Stationary point found.
 Normal termination of Gaussian 09 at Mon Jan 27 22:12:03 2020.

 ----------------------------------------------------------------------
 #N Geom=AllCheck Guess=TCheck SCRF=Check GenChk RB3LYP/6-31G(2df,p) Fr
 eq
 ----------------------------------------------------------------------

 Structure from the checkpoint file:  "/scratch/puck/g09_0c1ec0c7-e2ac-4aaf-a42b-9a556c7423de/Gau-28983.chk"
 -----
 titel
 -----
 Charge =  0 Multiplicity = 1

                         Standard orientation:
 ---------------------------------------------------------------------
 Center     Atomic      Atomic             Coordinates (Angstroms)
 Number     Number       Type             X           Y           Z
 ---------------------------------------------------------------------
      1          6           0       -1.529660    1.925402   -0.067396
      2          6           0       -0.539380    0.935333    0.535887
      3          6           0        0.858706    0.933849   -0.116889
      4          6           0        1.695176   -0.191828    0.405891
      5          8           0        3.040722   -0.277380    0.037218
      6          6           0        0.640790   -0.514521   -0.626924
      7          6           0       -0.721918   -0.515426    0.022267
      8          6           0       -1.540224   -1.621494    0.522203
      9          8           0       -1.890706   -0.905314   -0.676451
     10          1           0       -1.257300    2.951837    0.198761
     11          1           0       -1.550754    1.845537   -1.158311
     12          1           0       -2.542357    1.733562    0.297922
     13          1           0       -0.522078    1.035078    1.628510
     14          1           0        1.304114    1.779678   -0.629837
     15          1           0        1.585106   -0.533471    1.432923
     16          1           0        3.135170    0.035245   -0.869048
     17          1           0        0.894388   -0.978128   -1.573691
     18          1           0       -1.215538   -2.650082    0.370574
     19          1           0       -2.211831   -1.465583    1.365820
 ---------------------------------------------------------------------

 SCF Done:  E(RB3LYP) =  -423.120121351     A.U. after    1 cycles

 The electronic state is 1-A.
 Alpha  occ. eigenvalues --  -19.15031 -19.14914 -10.24375 -10.24332 -10.22981
 Alpha  occ. eigenvalues --  -10.19721 -10.19557 -10.19382 -10.17669  -1.07053
 Alpha  occ. eigenvalues --   -1.03529  -0.89061  -0.75523  -0.67483  -0.65305
 Alpha  occ. eigenvalues --   -0.62605  -0.60730  -0.53093  -0.51722  -0.50486
 Alpha  occ. eigenvalues --   -0.48984  -0.44275  -0.42681  -0.41470  -0.39675
 Alpha  occ. eigenvalues --   -0.37924  -0.37802  -0.36494  -0.34452  -0.33517
 Alpha  occ. eigenvalues --   -0.30586  -0.27009  -0.25838  -0.23986
 Alpha virt. eigenvalues --    0.06965   0.08490   0.09753   0.10093   0.11200
 Alpha virt. eigenvalues --    0.12351   0.13696   0.15792   0.15860   0.16552
 Alpha virt. eigenvalues --    0.16822   0.17922   0.18720   0.20035   0.21866

 Mulliken charges:
               1
     1  C   -0.392746
     2  C   -0.107389
     3  C   -0.118674
     4  C    0.136189
     5  O   -0.440503
     6  C   -0.221374
     7  C    0.452604
     8  C   -0.270234
     9  O   -0.276549
    10  H    0.112312
    11  H    0.125795
    12  H    0.124467
    13  H    0.074116
    14  H    0.086801
    15  H    0.104355
    16  H    0.285554
    17  H    0.095798
    18  H    0.116015
    19  H    0.113464
 Sum of Mulliken charges =   0.00000

 Dipole moment (field-independent basis, Debye):
    X=              0.2589    Y=              0.6089    Z=              0.1502  Tot=              0.6785
 Quadrupole moment (field-independent basis, Debye-Ang):
   XX=            -59.3911   YY=            -51.2735   ZZ=            -51.1141
   XY=              1.3188   XZ=             -7.6541   YZ=             -1.7703

  Exact polarizability:  84.098   1.730  78.456  -4.590  -1.765  64.817
 Approx polarizability: 114.155   4.025 110.729  -1.675  -1.864 104.020

                      1                      2                      3
                      A                      A                      A
 Frequencies --    107.5822               159.9357               177.9235
 Red. masses --      2.9922                 2.3338                 1.2646
 Frc consts  --      0.0204                 0.0352                 0.0236
 IR Inten    --      3.0745                16.3989                65.3336

                      4                      5                      6
                      A                      A                      A
 Frequencies --    210.0124               224.1619               257.6891
 Red. masses --      1.4228                 1.8955                 5.9542
 Frc consts  --      0.0370                 0.0561                 0.2330
 IR Inten    --      0.3212                 1.3690                17.5276

                      7                      8                      9
                      A                      A                      A
 Frequencies --    279.4415               394.5734               412.6382
 Red. masses --      2.3558                 3.2640                 3.4286
 Frc consts  --      0.1084                 0.2994                 0.3440
 IR Inten    --      1.0159                 6.0892                 2.9076

                     10                     11                     12
                      A                      A                      A
 Frequencies --    439.2210               541.4969               595.0477
 Red. masses --      4.7464                 4.0683                 3.2456
 Frc consts  --      0.5395                 0.7028                 0.6771
 IR Inten    --      1.5696                 4.4602                 3.3495

                     13                     14                     15
                      A                      A                      A
 Frequencies --    787.3311               801.6171               867.3731
 Red. masses --      2.1817                 1.8699                 3.5385
 Frc consts  --      0.7968                 0.7079                 1.5685
 IR Inten    --      0.1465                10.5671                24.7119

                     16                     17                     18
                      A                      A                      A
 Frequencies --    875.0623               884.1585               919.0789
 Red. masses --      2.0646                 1.9721                 2.0621
 Frc consts  --      0.9315                 0.9083                 1.0263
 IR Inten    --     11.9936                 8.0534                 9.9825

                     19                     20                     21
                      A                      A                      A
 Frequencies --    938.9600               976.1607              1000.9162
 Red. masses --      2.7976                 3.3644                 1.5734
 Frc consts  --      1.4532                 1.8889                 0.9287
 IR Inten    --     28.4165                31.3801                 7.1534

                     22                     23                     24
                      A                      A                      A
 Frequencies --   1049.8493              1083.0063              1095.7310
 Red. masses --      1.5199                 1.5957                 1.5069
 Frc consts  --      0.9870                 1.1027                 1.0659
 IR Inten    --      1.9212                11.1412                 3.4142

                     25                     26                     27
                      A                      A                      A
 Frequencies --   1110.9397              1121.3691              1122.7618
 Red. masses --      1.9538                 1.4664                 1.4396
 Frc consts  --      1.4207                 1.0864                 1.0692
 IR Inten    --     37.7281                 2.5076                 3.2651

                     28                     29                     30
                      A                      A                      A
 Frequencies --   1145.4437              1162.6590              1179.7542
 Red. masses --      1.9881                 1.6858                 1.9563
 Frc consts  --      1.5369                 1.3427                 1.6042
 IR Inten    --     52.7295                 2.5226                17.9840

                     31                     32                     33
                      A                      A                      A
 Frequencies --   1244.2918              1258.5791              1275.4913
 Red. masses --      1.8062                 1.5835                 1.5968
 Frc consts  --      1.6477                 1.4778                 1.5306
 IR Inten    --      4.1867                15.3980                 3.0720

                     34                     35                     36
                      A                      A                      A
 Frequencies --   1331.9791              1357.6489              1408.9924
 Red. masses --      1.7745                 1.7277                 1.2694
 Frc consts  --      1.8549                 1.8763                 1.4848
 IR Inten    --      2.5935                 4.1103                 5.5645

                     37                     38                     39
                      A                      A                      A
 Frequencies --   1437.3402              1445.3707              1491.4686
 Red. masses --      2.0599                 1.7732                 1.0499
 Frc consts  --      2.5073                 2.1826                 1.3761
 IR Inten    --     10.7076               123.3089                 5.3347

                     40                     41                     42
                      A                      A                      A
 Frequencies --   1494.7032              1533.2455              3022.6453
 Red. masses --      1.0493                 1.6040                 1.0839
 Frc consts  --      1.3812                 2.2216                 5.8344
 IR Inten    --      3.2872                13.2162                31.6954

                     43                     44                     45
                      A                      A                      A
 Frequencies --   3039.2309              3079.1476              3108.9109
 Red. masses --      1.0353                 1.0503                 1.1016
 Frc consts  --      5.6341                 5.8669                 6.2731
 IR Inten    --     23.7566                25.9672                22.5902

                     46                     47                     48
                      A                      A                      A
 Frequencies --   3117.0645              3130.7510              3165.3149
 Red. masses --      1.1015                 1.0896                 1.0933
 Frc consts  --      6.3058                 6.2925                 6.4538
 IR Inten    --     20.4034                20.5143                10.7969

                     49                     50                     51
                      A                      A                      A
 Frequencies --   3166.1146              3180.4665              3809.7905
 Red. masses --      1.1157                 1.0955                 1.0658
 Frc consts  --      6.5893                 6.5288                 9.1143
 IR Inten    --     22.4112                11.6845                21.3077

 - Thermochemistry -
 -------------------
 Temperature   298.150 Kelvin.  Pressure   1.00000 Atm.
 Atom     1 has atomic number  6 and mass  12.00000

 Molecular mass:   126.06808 amu.
 Principal axes and moments of inertia in atomic units:
                           1         2         3
     Eigenvalues --   645.284411373.658581785.46212
           X            0.99957  -0.02214  -0.01905
           Y            0.02171   0.99952  -0.02227
           Z            0.01954   0.02185   0.99957
 This molecule is an asymmetric top.
 Rotational symmetry number  1.
 Warning -- assumption of classical behavior for rotation
           may cause significant error
 Rotational temperatures (Kelvin)      0.13423     0.06305     0.04851
 Rotational constants (GHZ):           2.79682     1.31382     1.01080
 Zero-point vibrational energy     412833.9 (Joules/Mol)
                                   98.66968 (Kcal/Mol)
 Warning -- explicit consideration of  12 degrees of freedom as
           vibrations may cause significant error
 Vibrational temperatures:    154.79   230.11   255.99   302.16   322.52
          (Kelvin)            370.76   402.05   567.70   593.69   631.94
                              779.09   856.14  1132.79  1153.35  1247.95
                             1259.02  1272.11  1322.35  1350.95  1404.48
                             1440.09  1510.50  1558.20  1576.51  1598.39
                             1613.40  1615.40  1648.04  1672.80  1697.40
                             1790.26  1810.81  1835.15  1916.42  1953.35
                             2027.22  2068.01  2079.56  2145.89  2150.54
                             2206.00  4348.91  4372.77  4430.20  4473.02
                             4484.75  4504.45  4554.18  4555.33  4575.98
                             5481.43

 Zero-point correction=                           0.157240 (Hartree/Particle)
 Thermal correction to Energy=                    0.166064
 Thermal correction to Enthalpy=                  0.167008
 Thermal correction to Gibbs Free Energy=         0.124016
 Sum of electronic and zero-point Energies=           -422.962881
 Sum of electronic and thermal Energies=              -422.954057
 Sum of electronic and thermal Enthalpies=            -422.953113
 Sum of electronic and thermal Free Energies=         -422.996105

                     E (Thermal)             CV                S
                      KCal/Mol        Cal/Mol-Kelvin    Cal/Mol-Kelvin
 Total                  104.207             33.555             90.484
 Electronic               0.000              0.000              0.000
 Translational            0.889              2.981             40.409
 Rotational               0.889              2.981             28.850
 Vibrational            102.429             27.593             21.226
 Vibration     1          0.606              1.943              3.312
 Vibration     2          0.622              1.891              2.551
 Vibration     3          0.628              1.869              2.350
 Vibration     4          0.642              1.826              2.044
 Vibration     5          0.649              1.804              1.925
 Vibration     6          0.667              1.750              1.677
 Vibration     7          0.680              1.712              1.537
 Vibration     8          0.762              1.482              0.983
 Vibration     9          0.776              1.443              0.917
 Vibration    10          0.799              1.385              0.829
 Vibration    11          0.897              1.158              0.562
 Vibration    12          0.953              1.042              0.458

 Normal termination of Gaussian 09 at Tue Jan 28 00:23:18 2020.
