 Gaussian 09, Revision D.01,
 Gaussian 09:  ES64L-G09RevD.01 24-Apr-2013

 -----------------------------
 # b3lyp 6-31G(2df,p) opt Freq
 -----------------------------

 -----
 titel
 -----
 Symbolic Z-matrix:
 Charge =  0 Multiplicity = 1

 SCF Done:  E(RB3LYP) =  -423.193294179     A.U. after   13 cycles
 Optimization completed.
    -- Stationary point found.
 Normal termination of Gaussian 09 at Mon Jan 27 17:17:08 2020.

 ----------------------------------------------------------------------
 #N Geom=AllCheck Guess=TCheck SCRF=Check GenChk RB3LYP/6-31G(2df,p) Fr
 eq
 ----------------------------------------------------------------------

 Structure from the checkpoint file:  "/scratch/puck/g09_604a68ee-5aee-4964-9142-066deeda7334/Gau-179404.chk"
 -----
 titel
 -----
 Charge =  0 Multiplicity = 1

                         Standard orientation:
 ---------------------------------------------------------------------
 Center     Atomic      Atomic             Coordinates (Angstroms)
 Number     Number       Type             X           Y           Z
 ---------------------------------------------------------------------
      1          8           0       -2.375470    0.253310    0.175393
      2          6           0       -0.982860    0.070114    0.030039
      3          6           0       -0.249673   -0.563845    1.233037
      4          6           0        1.093003   -0.877766    0.552279
      5          8           0        1.821222    0.351173    0.395799
      6          6           0        1.175989    1.307678   -0.442192
      7          6           0       -0.341373    1.453248   -0.191001
      8          6           0        0.619370   -1.436248   -0.788533
      9          6           0       -0.555003   -0.881617   -1.090126
     10          1           0       -2.765255   -0.602312    0.386337
     11          1           0       -0.140914    0.108541    2.087033
     12          1           0       -0.753558   -1.484037    1.548195
     13          1           0        1.758632   -1.532171    1.117645
     14          1           0        1.690208    2.254529   -0.255891
     15          1           0        1.336185    1.045299   -1.496683
     16          1           0       -0.540207    2.063540    0.696219
     17          1           0       -0.800765    1.958083   -1.047801
     18          1           0        1.214951   -2.086868   -1.417526
     19          1           0       -1.122020   -0.989864   -2.008082
 ---------------------------------------------------------------------

 SCF Done:  E(RB3LYP) =  -423.193294179     A.U. after    1 cycles

 The electronic state is 1-A.
 Alpha  occ. eigenvalues --  -19.13812 -19.13366 -10.24057 -10.23394 -10.22269
 Alpha  occ. eigenvalues --  -10.18577 -10.18442 -10.18001 -10.17738  -1.02839
 Alpha  occ. eigenvalues --   -1.01927  -0.84027  -0.76802  -0.71906  -0.64914
 Alpha  occ. eigenvalues --   -0.64005  -0.55043  -0.54706  -0.52708  -0.47409
 Alpha  occ. eigenvalues --   -0.46054  -0.45041  -0.43832  -0.40962  -0.40757
 Alpha  occ. eigenvalues --   -0.38365  -0.37124  -0.36425  -0.34188  -0.31560
 Alpha  occ. eigenvalues --   -0.29961  -0.27412  -0.25597  -0.24287
 Alpha virt. eigenvalues --   -0.00149   0.08554   0.10127   0.12361   0.13185
 Alpha virt. eigenvalues --    0.14308   0.14830   0.16093   0.16283   0.17588
 Alpha virt. eigenvalues --    0.17832   0.18722   0.20762   0.22293   0.23300

 Mulliken charges:
               1
     1  O   -0.501033
     2  C    0.380512
     3  C   -0.271869
     4  C    0.073235
     5  O   -0.276552
     6  C   -0.071839
     7  C   -0.240551
     8  C   -0.098842
     9  C   -0.149457
    10  H    0.272435
    11  H    0.101413
    12  H    0.084806
    13  H    0.077254
    14  H    0.107174
    15  H    0.095512
    16  H    0.109864
    17  H    0.103617
    18  H    0.101612
    19  H    0.102709
 Sum of Mulliken charges =   0.00000

 Dipole moment (field-independent basis, Debye):
    X=             -0.5790    Y=             -1.3053    Z=             -0.4460  Tot=              1.4960
 Quadrupole moment (field-independent basis, Debye-Ang):
   XX=            -57.2552   YY=            -50.1339   ZZ=            -51.6086
   XY=              2.6578   XZ=             -1.3307   YZ=             -0.9345

  Exact polarizability:  78.695  -2.653  75.353   1.158   0.048  69.203
 Approx polarizability: 124.142  -8.299 110.188   6.369  -0.325 103.363

                      1                      2                      3
                      A                      A                      A
 Frequencies --    226.4680               276.2142               299.8923
 Red. masses --      2.7775                 2.1951                 1.1769
 Frc consts  --      0.0839                 0.0987                 0.0624
 IR Inten    --      0.0838                 0.7114                81.3202

                      4                      5                      6
                      A                      A                      A
 Frequencies --    310.2745               363.4736               400.3079
 Red. masses --      3.2299                 4.6554                 2.9118
 Frc consts  --      0.1832                 0.3624                 0.2749
 IR Inten    --     11.0593                 4.3916                 4.2278

                      7                      8                      9
                      A                      A                      A
 Frequencies --    426.0672               474.5585               564.9078
 Red. masses --      3.2436                 2.2157                 3.2069
 Frc consts  --      0.3469                 0.2940                 0.6030
 IR Inten    --      5.3623                 1.8030                 2.4523

                     10                     11                     12
                      A                      A                      A
 Frequencies --    602.5052               646.0085               755.7524
 Red. masses --      3.2399                 3.8256                 2.2379
 Frc consts  --      0.6930                 0.9406                 0.7531
 IR Inten    --      3.4910                10.7752                11.4788

                     13                     14                     15
                      A                      A                      A
 Frequencies --    779.4797               796.2260               833.1686
 Red. masses --      1.8664                 2.9545                 2.9167
 Frc consts  --      0.6681                 1.1036                 1.1929
 IR Inten    --      5.2879                 3.3096                18.8947

                     16                     17                     18
                      A                      A                      A
 Frequencies --    897.0244               908.6795               934.6311
 Red. masses --      2.2190                 2.4494                 2.0788
 Frc consts  --      1.0520                 1.1916                 1.0699
 IR Inten    --     11.3231                 5.6456                 2.6713

                     19                     20                     21
                      A                      A                      A
 Frequencies --    967.0518               982.6239              1006.8816
 Red. masses --      1.4464                 2.3014                 1.8741
 Frc consts  --      0.7970                 1.3092                 1.1194
 IR Inten    --      4.8759                 6.2673                13.8400

                     22                     23                     24
                      A                      A                      A
 Frequencies --   1011.9959              1064.5446              1088.0386
 Red. masses --      1.9620                 2.1129                 1.4272
 Frc consts  --      1.1839                 1.4108                 0.9955
 IR Inten    --     36.6207                17.2282                18.3664

                     25                     26                     27
                      A                      A                      A
 Frequencies --   1097.7320              1141.1175              1172.0339
 Red. masses --      2.4331                 1.7748                 1.5921
 Frc consts  --      1.7275                 1.3616                 1.2886
 IR Inten    --    114.8469                11.8755                37.9875

                     28                     29                     30
                      A                      A                      A
 Frequencies --   1202.7897              1244.2628              1256.2530
 Red. masses --      2.9132                 1.6763                 1.4738
 Frc consts  --      2.4831                 1.5290                 1.3704
 IR Inten    --     15.0993                23.4092                 2.8924

                     31                     32                     33
                      A                      A                      A
 Frequencies --   1290.4000              1304.9187              1323.9478
 Red. masses --      1.3916                 1.5146                 1.3444
 Frc consts  --      1.3652                 1.5196                 1.3884
 IR Inten    --     18.4476                 2.9329                 3.9700

                     34                     35                     36
                      A                      A                      A
 Frequencies --   1365.1328              1367.0620              1371.8503
 Red. masses --      1.3730                 1.4790                 1.6545
 Frc consts  --      1.5075                 1.6285                 1.8345
 IR Inten    --      1.7940                10.9746                70.3633

                     37                     38                     39
                      A                      A                      A
 Frequencies --   1416.9528              1476.2910              1493.3572
 Red. masses --      1.3121                 1.0960                 1.1035
 Frc consts  --      1.5521                 1.4074                 1.4500
 IR Inten    --     20.1008                 1.9817                 1.7955

                     40                     41                     42
                      A                      A                      A
 Frequencies --   1505.9970              1654.5033              3010.0999
 Red. masses --      1.0863                 6.3789                 1.0694
 Frc consts  --      1.4516                10.2880                 5.7091
 IR Inten    --      1.0533                 0.1850                47.3180

                     43                     44                     45
                      A                      A                      A
 Frequencies --   3041.9039              3046.5444              3083.0116
 Red. masses --      1.0590                 1.0623                 1.0960
 Frc consts  --      5.7735                 5.8092                 6.1375
 IR Inten    --     24.7160                23.6204                33.4436

                     46                     47                     48
                      A                      A                      A
 Frequencies --   3093.4254              3098.6642              3114.2927
 Red. masses --      1.1022                 1.0890                 1.1028
 Frc consts  --      6.2144                 6.1608                 6.3020
 IR Inten    --     26.0689                42.2162                29.7954

                     49                     50                     51
                      A                      A                      A
 Frequencies --   3187.7942              3213.9184              3799.8303
 Red. masses --      1.0854                 1.1061                 1.0659
 Frc consts  --      6.4986                 6.7314                 9.0676
 IR Inten    --      6.0434                13.0577                12.1911

 - Thermochemistry -
 -------------------
 Temperature   298.150 Kelvin.  Pressure   1.00000 Atm.
 Atom     1 has atomic number  8 and mass  15.99491

 Molecular mass:   126.06808 amu.
 Principal axes and moments of inertia in atomic units:
                           1         2         3
     Eigenvalues --   672.710081012.974471203.22473
           X            0.99984   0.01150  -0.01362
           Y           -0.01196   0.99934  -0.03435
           Z            0.01322   0.03451   0.99932
 This molecule is an asymmetric top.
 Rotational symmetry number  1.
 Warning -- assumption of classical behavior for rotation
           may cause significant error
 Rotational temperatures (Kelvin)      0.12875     0.08550     0.07198
 Rotational constants (GHZ):           2.68279     1.78163     1.49992
 Zero-point vibrational energy     424619.7 (Joules/Mol)
                                  101.48653 (Kcal/Mol)
 Warning -- explicit consideration of  10 degrees of freedom as
           vibrations may cause significant error
 Vibrational temperatures:    325.84   397.41   431.48   446.42   522.96
          (Kelvin)            575.95   613.01   682.78   812.78   866.87
                              929.46  1087.36  1121.50  1145.59  1198.74
                             1290.62  1307.39  1344.72  1391.37  1413.77
                             1448.68  1456.03  1531.64  1565.44  1579.39
                             1641.81  1686.29  1730.54  1790.21  1807.47
                             1856.60  1877.48  1904.86  1964.12  1966.89
                             1973.78  2038.68  2124.05  2148.61  2166.79
                             2380.46  4330.86  4376.62  4383.29  4435.76
                             4450.74  4458.28  4480.77  4586.52  4624.11
                             5467.10

 Zero-point correction=                           0.161729 (Hartree/Particle)
 Thermal correction to Energy=                    0.168899
 Thermal correction to Enthalpy=                  0.169843
 Thermal correction to Gibbs Free Energy=         0.130832
 Sum of electronic and zero-point Energies=           -423.031565
 Sum of electronic and thermal Energies=              -423.024395
 Sum of electronic and thermal Enthalpies=            -423.023451
 Sum of electronic and thermal Free Energies=         -423.062462

                     E (Thermal)             CV                S
                      KCal/Mol        Cal/Mol-Kelvin    Cal/Mol-Kelvin
 Total                  105.986             30.344             82.106
 Electronic               0.000              0.000              0.000
 Translational            0.889              2.981             40.409
 Rotational               0.889              2.981             28.196
 Vibrational            104.208             24.382             13.501
 Vibration     1          0.650              1.801              1.907
 Vibration     2          0.678              1.717              1.557
 Vibration     3          0.692              1.674              1.418
 Vibration     4          0.699              1.654              1.361
 Vibration     5          0.737              1.547              1.107
 Vibration     6          0.766              1.469              0.962
 Vibration     7          0.788              1.414              0.872
 Vibration     8          0.831              1.306              0.725
 Vibration     9          0.921              1.107              0.514
 Vibration    10          0.961              1.026              0.445

 Optimization completed.
    -- Stationary point found.
 Normal termination of Gaussian 09 at Mon Jan 27 18:05:10 2020.
