 Gaussian 09, Revision D.01,
 Gaussian 09:  ES64L-G09RevD.01 24-Apr-2013

 -----------------------------
 # b3lyp 6-31G(2df,p) opt Freq
 -----------------------------

 -----
 titel
 -----
 Symbolic Z-matrix:
 Charge =  0 Multiplicity = 1

 SCF Done:  E(RB3LYP) =  -423.172776937     A.U. after   14 cycles
 Optimization completed.
    -- Stationary point found.
 Normal termination of Gaussian 09 at Mon Jan 27 14:09:06 2020.

 ----------------------------------------------------------------------
 #N Geom=AllCheck Guess=TCheck SCRF=Check GenChk RB3LYP/6-31G(2df,p) Fr
 eq
 ----------------------------------------------------------------------

 Structure from the checkpoint file:  "/scratch/puck/g09_5215e8a6-c52b-4a89-8eec-b117c3587a7c/Gau-171949.chk"
 -----
 titel
 -----
 Charge =  0 Multiplicity = 1

                         Standard orientation:
 ---------------------------------------------------------------------
 Center     Atomic      Atomic             Coordinates (Angstroms)
 Number     Number       Type             X           Y           Z
 ---------------------------------------------------------------------
      1          6           0        3.042217   -0.822925    0.078025
      2          6           0        1.918900    0.194238    0.002042
      3          8           0        2.082530    1.298257   -0.466048
      4          6           0        0.564079   -0.263457    0.509677
      5          6           0       -0.507704    0.832416    0.765522
      6          6           0       -1.499857   -0.032168   -0.008550
      7          6           0       -2.849702   -0.450655    0.370726
      8          8           0       -2.615036    0.440861   -0.731626
      9          6           0       -0.373949   -0.886131   -0.594231
     10          1           0        2.730760   -1.777418   -0.360999
     11          1           0        3.927168   -0.445885   -0.435669
     12          1           0        3.287531   -1.023602    1.127797
     13          1           0        0.679077   -0.955332    1.347980
     14          1           0       -0.742509    1.078457    1.803054
     15          1           0       -0.245714    1.742648    0.219633
     16          1           0       -3.210216   -1.442347    0.098668
     17          1           0       -3.334048   -0.001704    1.237381
     18          1           0       -0.497650   -1.971016   -0.599288
     19          1           0       -0.098258   -0.544661   -1.596429
 ---------------------------------------------------------------------

 SCF Done:  E(RB3LYP) =  -423.172776937     A.U. after    1 cycles

 The electronic state is 1-A.
 Alpha  occ. eigenvalues --  -19.15048 -19.13092 -10.27152 -10.24510 -10.23381
 Alpha  occ. eigenvalues --  -10.20381 -10.19906 -10.19267 -10.18626  -1.07269
 Alpha  occ. eigenvalues --   -1.04130  -0.85087  -0.75340  -0.67825  -0.67173
 Alpha  occ. eigenvalues --   -0.65299  -0.55243  -0.52893  -0.50079  -0.48687
 Alpha  occ. eigenvalues --   -0.48237  -0.44641  -0.43989  -0.42004  -0.41321
 Alpha  occ. eigenvalues --   -0.40025  -0.37628  -0.37376  -0.34918  -0.33312
 Alpha  occ. eigenvalues --   -0.32625  -0.29471  -0.26405  -0.24738
 Alpha virt. eigenvalues --   -0.01580   0.06874   0.08719   0.10435   0.11911
 Alpha virt. eigenvalues --    0.12839   0.13342   0.14766   0.14933   0.15369
 Alpha virt. eigenvalues --    0.16681   0.17254   0.19268   0.20667   0.22017

 Mulliken charges:
               1
     1  C   -0.482264
     2  C    0.377132
     3  O   -0.299244
     4  C   -0.089620
     5  C   -0.333380
     6  C    0.469556
     7  C   -0.269129
     8  O   -0.266801
     9  C   -0.332329
    10  H    0.139274
    11  H    0.143607
    12  H    0.142008
    13  H    0.080044
    14  H    0.106067
    15  H    0.142359
    16  H    0.114547
    17  H    0.116662
    18  H    0.110814
    19  H    0.130699
 Sum of Mulliken charges =   0.00000

 Dipole moment (field-independent basis, Debye):
    X=              0.4300    Y=             -3.2759    Z=              2.1390  Tot=              3.9359
 Quadrupole moment (field-independent basis, Debye-Ang):
   XX=            -55.0138   YY=            -54.8088   ZZ=            -52.6427
   XY=             -2.2286   XZ=             -2.0905   YZ=              2.1231

  Exact polarizability:  95.711   1.291  71.932  -3.628   0.035  63.464
 Approx polarizability: 116.280   4.412 115.084  -3.111  -7.161 100.177

                      1                      2                      3
                      A                      A                      A
 Frequencies --     32.9797                60.7920               137.7587
 Red. masses --      3.5664                 4.3968                 1.0586
 Frc consts  --      0.0023                 0.0096                 0.0118
 IR Inten    --      0.8709                 0.4621                 0.1145

                      4                      5                      6
                      A                      A                      A
 Frequencies --    165.0739               242.9250               313.2434
 Red. masses --      3.3292                 4.4022                 2.3833
 Frc consts  --      0.0535                 0.1531                 0.1378
 IR Inten    --      1.4715                 8.4759                 1.5001

                      7                      8                      9
                      A                      A                      A
 Frequencies --    319.4179               384.5046               397.7666
 Red. masses --      3.1854                 2.3781                 2.6475
 Frc consts  --      0.1915                 0.2071                 0.2468
 IR Inten    --      3.9395                 1.7368                 0.3109

                     10                     11                     12
                      A                      A                      A
 Frequencies --    538.6169               585.3702               605.8536
 Red. masses --      3.7821                 3.4440                 2.3746
 Frc consts  --      0.6465                 0.6953                 0.5135
 IR Inten    --     18.3249                 9.3754                 0.0773

                     13                     14                     15
                      A                      A                      A
 Frequencies --    693.5826               822.6474               837.9828
 Red. masses --      2.7173                 1.3421                 2.8659
 Frc consts  --      0.7702                 0.5351                 1.1857
 IR Inten    --      2.0763                 2.6263                20.0517

                     16                     17                     18
                      A                      A                      A
 Frequencies --    874.1769               888.5737               927.3092
 Red. masses --      4.8805                 1.6412                 2.7958
 Frc consts  --      2.1974                 0.7635                 1.4165
 IR Inten    --     16.1664                 2.4113                15.4573

                     19                     20                     21
                      A                      A                      A
 Frequencies --    936.7607               965.2236              1001.9231
 Red. masses --      2.4634                 2.1879                 2.3650
 Frc consts  --      1.2736                 1.2010                 1.3988
 IR Inten    --      3.0675                13.5168                 2.9247

                     22                     23                     24
                      A                      A                      A
 Frequencies --   1032.7630              1068.0520              1113.1211
 Red. masses --      1.2401                 1.8761                 2.6236
 Frc consts  --      0.7793                 1.2610                 1.9153
 IR Inten    --      1.8144                 2.8095                11.3753

                     25                     26                     27
                      A                      A                      A
 Frequencies --   1125.8975              1158.7364              1182.1494
 Red. masses --      1.2765                 1.3318                 2.0416
 Frc consts  --      0.9534                 1.0536                 1.6810
 IR Inten    --      2.6653                 1.7668                41.5910

                     28                     29                     30
                      A                      A                      A
 Frequencies --   1193.7607              1207.5196              1227.2066
 Red. masses --      2.2488                 1.5666                 1.3993
 Frc consts  --      1.8882                 1.3458                 1.2416
 IR Inten    --      5.7458                69.2507                 2.6155

                     31                     32                     33
                      A                      A                      A
 Frequencies --   1251.5070              1256.3965              1360.3876
 Red. masses --      1.4681                 1.4432                 1.5743
 Frc consts  --      1.3548                 1.3422                 1.7166
 IR Inten    --      5.6151                 5.1338                12.4557

                     34                     35                     36
                      A                      A                      A
 Frequencies --   1383.3376              1437.8728              1462.4899
 Red. masses --      1.4628                 1.9214                 1.0561
 Frc consts  --      1.6492                 2.3405                 1.3309
 IR Inten    --     36.9913                40.4189                10.0616

                     37                     38                     39
                      A                      A                      A
 Frequencies --   1465.5051              1475.8344              1489.8548
 Red. masses --      1.0925                 1.0510                 1.1594
 Frc consts  --      1.3824                 1.3488                 1.5162
 IR Inten    --      4.1373                 8.1913                 6.5971

                     40                     41                     42
                      A                      A                      A
 Frequencies --   1538.8231              1808.1916              3033.2880
 Red. masses --      1.6984                10.5520                 1.0374
 Frc consts  --      2.3695                20.3271                 5.6238
 IR Inten    --     15.4389               128.4885                 2.0823

                     43                     44                     45
                      A                      A                      A
 Frequencies --   3059.5720              3068.8065              3074.9674
 Red. masses --      1.0573                 1.0583                 1.0853
 Frc consts  --      5.8313                 5.8723                 6.0464
 IR Inten    --     22.7814                10.2039                11.6257

                     46                     47                     48
                      A                      A                      A
 Frequencies --   3076.7310              3093.3501              3120.9006
 Red. masses --      1.0504                 1.0978                 1.1080
 Frc consts  --      5.8585                 6.1890                 6.3585
 IR Inten    --     28.3018                 8.7734                16.2083

                     49                     50                     51
                      A                      A                      A
 Frequencies --   3128.3405              3152.7028              3163.2273
 Red. masses --      1.1078                 1.1017                 1.1194
 Frc consts  --      6.3874                 6.4519                 6.5995
 IR Inten    --     12.4551                11.2321                23.5860

 - Thermochemistry -
 -------------------
 Temperature   298.150 Kelvin.  Pressure   1.00000 Atm.
 Atom     1 has atomic number  6 and mass  12.00000

 Molecular mass:   126.06808 amu.
 Principal axes and moments of inertia in atomic units:
                           1         2         3
     Eigenvalues --   409.125782010.860682140.53467
           X            0.99988  -0.01332  -0.00782
           Y            0.01384   0.99747   0.06975
           Z            0.00687  -0.06985   0.99753
 This molecule is an asymmetric top.
 Rotational symmetry number  1.
 Rotational temperatures (Kelvin)      0.21170     0.04307     0.04046
 Rotational constants (GHZ):           4.41121     0.89750     0.84313
 Zero-point vibrational energy     412375.3 (Joules/Mol)
                                   98.56007 (Kcal/Mol)
 Warning -- explicit consideration of  12 degrees of freedom as
           vibrations may cause significant error
 Vibrational temperatures:     47.45    87.47   198.20   237.50   349.51
          (Kelvin)            450.69   459.57   553.22   572.30   774.95
                              842.22   871.69   997.91  1183.60  1205.67
                             1257.74  1278.46  1334.19  1347.79  1388.74
                             1441.54  1485.91  1536.69  1601.53  1619.91
                             1667.16  1700.85  1717.55  1737.35  1765.67
                             1800.64  1807.67  1957.29  1990.31  2068.78
                             2104.19  2108.53  2123.39  2143.57  2214.02
                             2601.58  4364.22  4402.04  4415.32  4424.19
                             4426.72  4450.64  4490.27  4500.98  4536.03
                             4551.17

 Zero-point correction=                           0.157065 (Hartree/Particle)
 Thermal correction to Energy=                    0.166135
 Thermal correction to Enthalpy=                  0.167080
 Thermal correction to Gibbs Free Energy=         0.122048
 Sum of electronic and zero-point Energies=           -423.015711
 Sum of electronic and thermal Energies=              -423.006641
 Sum of electronic and thermal Enthalpies=            -423.005697
 Sum of electronic and thermal Free Energies=         -423.050729

                     E (Thermal)             CV                S
                      KCal/Mol        Cal/Mol-Kelvin    Cal/Mol-Kelvin
 Total                  104.252             33.125             94.776
 Electronic               0.000              0.000              0.000
 Translational            0.889              2.981             40.409
 Rotational               0.889              2.981             28.956
 Vibrational            102.474             27.163             25.412
 Vibration     1          0.594              1.983              5.642
 Vibration     2          0.597              1.973              4.431
 Vibration     3          0.614              1.916              2.835
 Vibration     4          0.623              1.885              2.491
 Vibration     5          0.659              1.774              1.781
 Vibration     6          0.701              1.648              1.345
 Vibration     7          0.705              1.636              1.313
 Vibration     8          0.753              1.503              1.021
 Vibration     9          0.764              1.475              0.971
 Vibration    10          0.894              1.165              0.568
 Vibration    11          0.942              1.063              0.476
 Vibration    12          0.964              1.019              0.440

 Optimization completed.
    -- Stationary point found.
 Normal termination of Gaussian 09 at Mon Jan 27 14:48:52 2020.
