 Gaussian 09, Revision D.01,
 Gaussian 09:  ES64L-G09RevD.01 24-Apr-2013

 -----------------------------
 # b3lyp 6-31G(2df,p) opt Freq
 -----------------------------

 -----
 titel
 -----
 Symbolic Z-matrix:
 Charge =  0 Multiplicity = 1

 SCF Done:  E(RB3LYP) =  -423.195762847     A.U. after   14 cycles
 Optimization completed.
    -- Stationary point found.
 Normal termination of Gaussian 09 at Mon Jan 27 13:06:27 2020.

 ----------------------------------------------------------------------
 #N Geom=AllCheck Guess=TCheck SCRF=Check GenChk RB3LYP/6-31G(2df,p) Fr
 eq
 ----------------------------------------------------------------------

 Structure from the checkpoint file:  "/scratch/puck/g09_d3ac4478-6499-44f0-807f-f8b0471a89e2/Gau-155931.chk"
 -----
 titel
 -----
 Charge =  0 Multiplicity = 1

                         Standard orientation:
 ---------------------------------------------------------------------
 Center     Atomic      Atomic             Coordinates (Angstroms)
 Number     Number       Type             X           Y           Z
 ---------------------------------------------------------------------
      1          8           0       -2.949538   -0.137045   -0.011148
      2          6           0       -1.749612   -0.039532    0.086006
      3          6           0       -1.029889    1.290146    0.251799
      4          6           0        0.330192    1.314141   -0.472096
      5          6           0        1.087866    0.035562   -0.191521
      6          6           0        2.564670   -0.067299   -0.375128
      7          6           0        1.976158   -0.099177    1.024846
      8          8           0        0.369640   -1.104812   -0.591256
      9          6           0       -0.847144   -1.274999    0.122143
     10          1           0       -1.696232    2.095953   -0.065017
     11          1           0       -0.860659    1.410596    1.331961
     12          1           0        0.172468    1.397212   -1.554147
     13          1           0        0.913091    2.186451   -0.160209
     14          1           0        2.937920   -1.002049   -0.776930
     15          1           0        3.107211    0.816630   -0.692230
     16          1           0        1.976588   -1.055199    1.536245
     17          1           0        2.119056    0.762767    1.668091
     18          1           0       -1.375676   -2.117514   -0.327189
     19          1           0       -0.648032   -1.513038    1.182356
 ---------------------------------------------------------------------

 SCF Done:  E(RB3LYP) =  -423.195762847     A.U. after    1 cycles

 The electronic state is 1-A.
 Alpha  occ. eigenvalues --  -19.15417 -19.13277 -10.27046 -10.24721 -10.23688
 Alpha  occ. eigenvalues --  -10.19871 -10.19728 -10.19262 -10.19163  -1.05457
 Alpha  occ. eigenvalues --   -1.03895  -0.86078  -0.79446  -0.72538  -0.65997
 Alpha  occ. eigenvalues --   -0.61355  -0.59190  -0.52922  -0.50913  -0.48920
 Alpha  occ. eigenvalues --   -0.46694  -0.45832  -0.45195  -0.42563  -0.41739
 Alpha  occ. eigenvalues --   -0.39422  -0.38481  -0.37312  -0.34950  -0.34177
 Alpha  occ. eigenvalues --   -0.32715  -0.29063  -0.26675  -0.23246
 Alpha virt. eigenvalues --   -0.02087   0.08317   0.09767   0.10996   0.11289
 Alpha virt. eigenvalues --    0.12762   0.14018   0.15167   0.16492   0.16902
 Alpha virt. eigenvalues --    0.17188   0.17991   0.19851   0.21205   0.22138

 Mulliken charges:
               1
     1  O   -0.299107
     2  C    0.378770
     3  C   -0.314058
     4  C   -0.275664
     5  C    0.454075
     6  C   -0.333454
     7  C   -0.327976
     8  O   -0.288897
     9  C   -0.189011
    10  H    0.124185
    11  H    0.128236
    12  H    0.117250
    13  H    0.103468
    14  H    0.129410
    15  H    0.115658
    16  H    0.121908
    17  H    0.113403
    18  H    0.133708
    19  H    0.108097
 Sum of Mulliken charges =   0.00000

 Dipole moment (field-independent basis, Debye):
    X=              2.4627    Y=              1.1236    Z=              1.0054  Tot=              2.8876
 Quadrupole moment (field-independent basis, Debye-Ang):
   XX=            -62.9696   YY=            -50.4930   ZZ=            -52.3490
   XY=              0.7597   XZ=             -0.3217   YZ=             -1.2107

  Exact polarizability:  90.674   1.953  72.708   0.329  -1.018  63.586
 Approx polarizability: 124.533   4.140 102.810   1.497   0.523 100.586

                      1                      2                      3
                      A                      A                      A
 Frequencies --     72.4382               151.9680               182.7903
 Red. masses --      5.1565                 2.3486                 3.3094
 Frc consts  --      0.0159                 0.0320                 0.0651
 IR Inten    --      2.9786                 0.6257                 3.8974

                      4                      5                      6
                      A                      A                      A
 Frequencies --    276.7130               339.4655               379.2499
 Red. masses --      2.1673                 2.1447                 3.2341
 Frc consts  --      0.0978                 0.1456                 0.2741
 IR Inten    --      0.0253                 2.0121                 6.2270

                      7                      8                      9
                      A                      A                      A
 Frequencies --    427.6678               436.9455               488.7884
 Red. masses --      3.7279                 3.0041                 3.6384
 Frc consts  --      0.4017                 0.3379                 0.5122
 IR Inten    --     15.5666                 4.0098                 3.0060

                     10                     11                     12
                      A                      A                      A
 Frequencies --    522.7968               671.5366               696.3107
 Red. masses --      2.7948                 4.3772                 3.1688
 Frc consts  --      0.4501                 1.1630                 0.9052
 IR Inten    --      1.9706                 2.1471                 2.1178

                     13                     14                     15
                      A                      A                      A
 Frequencies --    758.7657               778.4352               827.5106
 Red. masses --      2.1636                 1.0551                 2.0413
 Frc consts  --      0.7339                 0.3767                 0.8236
 IR Inten    --      5.3277                 0.1729                 3.2991

                     16                     17                     18
                      A                      A                      A
 Frequencies --    886.7432               906.1780               941.6325
 Red. masses --      1.8154                 1.7960                 1.9196
 Frc consts  --      0.8410                 0.8689                 1.0028
 IR Inten    --     16.3916                 0.4967                 6.1179

                     19                     20                     21
                      A                      A                      A
 Frequencies --    951.0687              1001.8625              1004.7928
 Red. masses --      1.9071                 2.3661                 2.0706
 Frc consts  --      1.0164                 1.3993                 1.2317
 IR Inten    --      9.0242                 5.8873                 3.5508

                     22                     23                     24
                      A                      A                      A
 Frequencies --   1047.8510              1081.0059              1098.5980
 Red. masses --      1.3937                 1.5002                 2.6939
 Frc consts  --      0.9016                 1.0329                 1.9156
 IR Inten    --      6.2322                 3.5220                14.2390

                     25                     26                     27
                      A                      A                      A
 Frequencies --   1103.9035              1174.1254              1179.0800
 Red. masses --      5.0172                 1.4757                 1.9044
 Frc consts  --      3.6023                 1.1986                 1.5599
 IR Inten    --     67.0422                17.2323                28.1156

                     28                     29                     30
                      A                      A                      A
 Frequencies --   1191.9536              1235.8496              1267.2038
 Red. masses --      1.3886                 1.8552                 1.2314
 Frc consts  --      1.1623                 1.6694                 1.1650
 IR Inten    --      3.4595                 4.6642                 3.7885

                     31                     32                     33
                      A                      A                      A
 Frequencies --   1299.1444              1322.5655              1336.4863
 Red. masses --      1.9850                 1.7820                 1.3544
 Frc consts  --      1.9739                 1.8365                 1.4253
 IR Inten    --     44.9349                 7.4782                36.0942

                     34                     35                     36
                      A                      A                      A
 Frequencies --   1373.8199              1392.7545              1453.6726
 Red. masses --      1.4664                 1.9572                 1.0904
 Frc consts  --      1.6307                 2.2369                 1.3576
 IR Inten    --      1.5560                 0.1531                 3.4475

                     37                     38                     39
                      A                      A                      A
 Frequencies --   1455.7622              1467.5742              1484.9545
 Red. masses --      1.0876                 1.0871                 1.0997
 Frc consts  --      1.3580                 1.3795                 1.4287
 IR Inten    --      6.9591                 7.7376                 2.9143

                     40                     41                     42
                      A                      A                      A
 Frequencies --   1500.3433              1824.1965              2952.8643
 Red. masses --      1.5329                11.7420                 1.0697
 Frc consts  --      2.0330                23.0215                 5.4955
 IR Inten    --      9.6866               184.3189                29.7084

                     43                     44                     45
                      A                      A                      A
 Frequencies --   3013.8592              3035.4288              3083.1155
 Red. masses --      1.0681                 1.0607                 1.1018
 Frc consts  --      5.7162                 5.7583                 6.1708
 IR Inten    --      7.0929                26.8808                21.2631

                     46                     47                     48
                      A                      A                      A
 Frequencies --   3106.2709              3121.7225              3132.6960
 Red. masses --      1.0942                 1.0915                 1.0522
 Frc consts  --      6.2206                 6.2669                 6.0842
 IR Inten    --     16.5112                13.6765                10.8017

                     49                     50                     51
                      A                      A                      A
 Frequencies --   3139.1160              3218.2163              3233.0329
 Red. masses --      1.0569                 1.1182                 1.1159
 Frc consts  --      6.1360                 6.8233                 6.8720
 IR Inten    --      7.7791                 1.1394                 9.3791

 - Thermochemistry -
 -------------------
 Temperature   298.150 Kelvin.  Pressure   1.00000 Atm.
 Atom     1 has atomic number  8 and mass  15.99491

 Molecular mass:   126.06808 amu.
 Principal axes and moments of inertia in atomic units:
                           1         2         3
     Eigenvalues --   498.654301464.464981706.14307
           X            1.00000   0.00240   0.00136
           Y           -0.00236   0.99959  -0.02869
           Z           -0.00143   0.02869   0.99959
 This molecule is an asymmetric top.
 Rotational symmetry number  1.
 Warning -- assumption of classical behavior for rotation
           may cause significant error
 Rotational temperatures (Kelvin)      0.17370     0.05914     0.05077
 Rotational constants (GHZ):           3.61922     1.23236     1.05779
 Zero-point vibrational energy     418877.4 (Joules/Mol)
                                  100.11409 (Kcal/Mol)
 Warning -- explicit consideration of  10 degrees of freedom as
           vibrations may cause significant error
 Vibrational temperatures:    104.22   218.65   262.99   398.13   488.41
          (Kelvin)            545.66   615.32   628.67   703.26   752.19
                              966.19  1001.83  1091.69  1119.99  1190.60
                             1275.82  1303.79  1354.80  1368.37  1441.45
                             1445.67  1507.62  1555.32  1580.64  1588.27
                             1689.30  1696.43  1714.95  1778.11  1823.22
                             1869.18  1902.87  1922.90  1976.62  2003.86
                             2091.51  2094.51  2111.51  2136.52  2158.66
                             2624.61  4248.51  4336.27  4367.30  4435.91
                             4469.23  4491.46  4507.25  4516.48  4630.29
                             4651.61

 Zero-point correction=                           0.159542 (Hartree/Particle)
 Thermal correction to Energy=                    0.167566
 Thermal correction to Enthalpy=                  0.168511
 Thermal correction to Gibbs Free Energy=         0.126928
 Sum of electronic and zero-point Energies=           -423.036221
 Sum of electronic and thermal Energies=              -423.028196
 Sum of electronic and thermal Enthalpies=            -423.027252
 Sum of electronic and thermal Free Energies=         -423.068835

                     E (Thermal)             CV                S
                      KCal/Mol        Cal/Mol-Kelvin    Cal/Mol-Kelvin
 Total                  105.150             31.426             87.518
 Electronic               0.000              0.000              0.000
 Translational            0.889              2.981             40.409
 Rotational               0.889              2.981             28.612
 Vibrational            103.372             25.465             18.497
 Vibration     1          0.599              1.967              4.086
 Vibration     2          0.619              1.900              2.647
 Vibration     3          0.630              1.863              2.300
 Vibration     4          0.678              1.716              1.554
 Vibration     5          0.719              1.597              1.215
 Vibration     6          0.749              1.514              1.042
 Vibration     7          0.789              1.410              0.866
 Vibration     8          0.797              1.390              0.836
 Vibration     9          0.845              1.275              0.687
 Vibration    10          0.878              1.200              0.604

 Optimization completed.
    -- Stationary point found.
 Normal termination of Gaussian 09 at Mon Jan 27 13:49:10 2020.
