 Gaussian 09, Revision D.01,
 Gaussian 09:  ES64L-G09RevD.01 24-Apr-2013

 -----------------------------
 # b3lyp 6-31G(2df,p) opt Freq
 -----------------------------

 -----
 titel
 -----
 Symbolic Z-matrix:
 Charge =  0 Multiplicity = 1

 SCF Done:  E(RB3LYP) =  -423.181218352     A.U. after   14 cycles
 Optimization completed.
    -- Stationary point found.
 Normal termination of Gaussian 09 at Mon Jan 27 16:18:40 2020.

 ----------------------------------------------------------------------
 #N Geom=AllCheck Guess=TCheck SCRF=Check GenChk RB3LYP/6-31G(2df,p) Fr
 eq
 ----------------------------------------------------------------------

 Structure from the checkpoint file:  "/scratch/puck/g09_c6d25433-536d-4121-854d-ecbfda7748eb/Gau-36882.chk"
 -----
 titel
 -----
 Charge =  0 Multiplicity = 1

                         Standard orientation:
 ---------------------------------------------------------------------
 Center     Atomic      Atomic             Coordinates (Angstroms)
 Number     Number       Type             X           Y           Z
 ---------------------------------------------------------------------
      1          6           0        1.185306    1.699035    0.098916
      2          6           0        0.947072    0.194383   -0.035263
      3          6           0        2.257251   -0.531886   -0.327155
      4          8           0        0.387188   -0.314794    1.230002
      5          6           0       -0.916589   -0.776991    0.860039
      6          6           0       -0.659905   -1.566198   -0.454559
      7          6           0       -0.228356   -0.154885   -0.987982
      8          6           0       -1.406177    0.330668   -0.104711
      9          8           0       -2.333035    1.072999   -0.214156
     10          1           0        0.265258    2.226976    0.361907
     11          1           0        1.924777    1.891651    0.881609
     12          1           0        1.564165    2.116610   -0.839814
     13          1           0        2.113910   -1.603372   -0.480069
     14          1           0        2.735665   -0.115978   -1.219736
     15          1           0        2.940178   -0.403002    0.518255
     16          1           0       -1.459638   -1.154379    1.722614
     17          1           0        0.107060   -2.338189   -0.396146
     18          1           0       -1.567721   -1.943804   -0.929121
     19          1           0       -0.128492    0.093099   -2.041973
 ---------------------------------------------------------------------

 SCF Done:  E(RB3LYP) =  -423.181218352     A.U. after    1 cycles

 The electronic state is 1-A.
 Alpha  occ. eigenvalues --  -19.14635 -19.14615 -10.27555 -10.25285 -10.24632
 Alpha  occ. eigenvalues --  -10.20799 -10.20552 -10.18235 -10.17981  -1.06307
 Alpha  occ. eigenvalues --   -1.04187  -0.84242  -0.79587  -0.70086  -0.67048
 Alpha  occ. eigenvalues --   -0.63806  -0.56479  -0.54740  -0.50849  -0.47389
 Alpha  occ. eigenvalues --   -0.45498  -0.44694  -0.43520  -0.41702  -0.39453
 Alpha  occ. eigenvalues --   -0.38913  -0.37789  -0.37500  -0.36620  -0.35819
 Alpha  occ. eigenvalues --   -0.34219  -0.32651  -0.28058  -0.22579
 Alpha virt. eigenvalues --   -0.01656   0.08584   0.10288   0.11176   0.13029
 Alpha virt. eigenvalues --    0.13522   0.13928   0.14668   0.15506   0.16728
 Alpha virt. eigenvalues --    0.17148   0.17499   0.19557   0.20791   0.21360

 Mulliken charges:
               1
     1  C   -0.432485
     2  C    0.393892
     3  C   -0.436905
     4  O   -0.322980
     5  C   -0.014218
     6  C   -0.272281
     7  C   -0.211744
     8  C    0.436824
     9  O   -0.322381
    10  H    0.136863
    11  H    0.126661
    12  H    0.116933
    13  H    0.117705
    14  H    0.116921
    15  H    0.131013
    16  H    0.100256
    17  H    0.120772
    18  H    0.123050
    19  H    0.092103
 Sum of Mulliken charges =   0.00000

 Dipole moment (field-independent basis, Debye):
    X=              1.7762    Y=             -1.5764    Z=             -1.1467  Tot=              2.6372
 Quadrupole moment (field-independent basis, Debye-Ang):
   XX=            -57.1595   YY=            -52.8396   ZZ=            -53.6221
   XY=              5.5740   XZ=             -2.1277   YZ=              0.5070

  Exact polarizability:  84.088   0.426  75.305  -1.897  -0.718  65.881
 Approx polarizability: 120.002  -6.122 111.588  -0.969  -2.581 105.380

                      1                      2                      3
                      A                      A                      A
 Frequencies --    136.9547               164.3726               183.7676
 Red. masses --      6.0892                 1.4752                 1.6533
 Frc consts  --      0.0673                 0.0235                 0.0329
 IR Inten    --      3.0727                 0.8355                 0.3841

                      4                      5                      6
                      A                      A                      A
 Frequencies --    224.3639               265.1540               357.0085
 Red. masses --      1.1055                 2.9844                 2.5089
 Frc consts  --      0.0328                 0.1236                 0.1884
 IR Inten    --      0.4032                 1.6259                 0.0733

                      7                      8                      9
                      A                      A                      A
 Frequencies --    368.8061               436.9818               473.5378
 Red. masses --      2.5660                 3.2559                 2.6655
 Frc consts  --      0.2056                 0.3663                 0.3522
 IR Inten    --      0.4807                 4.2744                 1.4849

                     10                     11                     12
                      A                      A                      A
 Frequencies --    509.4954               578.7183               625.5373
 Red. masses --      3.4948                 3.9038                 3.7401
 Frc consts  --      0.5345                 0.7703                 0.8623
 IR Inten    --      6.5761                 2.4324                 0.9321

                     13                     14                     15
                      A                      A                      A
 Frequencies --    729.1376               789.8348               819.8533
 Red. masses --      3.2668                 3.8313                 3.0923
 Frc consts  --      1.0233                 1.4082                 1.2246
 IR Inten    --     12.2795                 6.7300                14.3938

                     16                     17                     18
                      A                      A                      A
 Frequencies --    837.2490               873.6008               936.1950
 Red. masses --      4.7454                 2.5901                 1.5415
 Frc consts  --      1.9599                 1.1647                 0.7960
 IR Inten    --      3.0050                 6.3715                 0.3352

                     19                     20                     21
                      A                      A                      A
 Frequencies --    950.7712               963.1851               985.8053
 Red. masses --      1.8919                 3.2997                 1.5456
 Frc consts  --      1.0076                 1.8036                 0.8850
 IR Inten    --      3.9402                33.9509                11.9102

                     22                     23                     24
                      A                      A                      A
 Frequencies --   1009.0155              1021.8409              1059.5030
 Red. masses --      1.4123                 1.8571                 1.9625
 Frc consts  --      0.8472                 1.1425                 1.2979
 IR Inten    --      5.7475                 8.6157                11.3088

                     25                     26                     27
                      A                      A                      A
 Frequencies --   1082.7282              1110.9814              1151.5564
 Red. masses --      1.7609                 1.7657                 1.7871
 Frc consts  --      1.2162                 1.2840                 1.3962
 IR Inten    --     29.9968                17.6036                12.0533

                     28                     29                     30
                      A                      A                      A
 Frequencies --   1190.8565              1212.1298              1228.3544
 Red. masses --      1.6338                 1.6617                 2.0446
 Frc consts  --      1.3651                 1.4384                 1.8176
 IR Inten    --      1.0699                 0.6928                 7.7240

                     31                     32                     33
                      A                      A                      A
 Frequencies --   1237.8352              1291.2515              1299.2308
 Red. masses --      2.9218                 2.0428                 1.7962
 Frc consts  --      2.6377                 2.0068                 1.7864
 IR Inten    --     16.9112                23.8000                25.0051

                     34                     35                     36
                      A                      A                      A
 Frequencies --   1403.3699              1419.9501              1471.2269
 Red. masses --      1.2827                 1.2268                 1.0706
 Frc consts  --      1.4884                 1.4573                 1.3654
 IR Inten    --     13.4211                 7.4131                 1.3842

                     37                     38                     39
                      A                      A                      A
 Frequencies --   1478.1932              1487.2675              1499.3154
 Red. masses --      1.0551                 1.0719                 1.0725
 Frc consts  --      1.3584                 1.3970                 1.4205
 IR Inten    --      0.3577                 6.1941                 1.6623

                     40                     41                     42
                      A                      A                      A
 Frequencies --   1504.2035              1906.7344              3038.4998
 Red. masses --      1.0518                12.2465                 1.0358
 Frc consts  --      1.4022                26.2326                 5.6344
 IR Inten    --      5.3232               289.4543                10.6709

                     43                     44                     45
                      A                      A                      A
 Frequencies --   3044.4622              3083.3238              3107.2724
 Red. masses --      1.0362                 1.0569                 1.1010
 Frc consts  --      5.6585                 5.9202                 6.2633
 IR Inten    --     16.3323                 9.8604                 0.4219

                     46                     47                     48
                      A                      A                      A
 Frequencies --   3114.4684              3124.1867              3126.3106
 Red. masses --      1.1007                 1.1020                 1.1012
 Frc consts  --      6.2905                 6.3373                 6.3414
 IR Inten    --     26.7493                12.3457                29.7573

                     49                     50                     51
                      A                      A                      A
 Frequencies --   3153.9130              3155.9133              3165.4027
 Red. masses --      1.1084                 1.0907                 1.0933
 Frc consts  --      6.4961                 6.4003                 6.4542
 IR Inten    --     11.6958                16.3477                18.5278

 - Thermochemistry -
 -------------------
 Temperature   298.150 Kelvin.  Pressure   1.00000 Atm.
 Atom     1 has atomic number  6 and mass  12.00000

 Molecular mass:   126.06808 amu.
 Principal axes and moments of inertia in atomic units:
                           1         2         3
     Eigenvalues --   657.865031109.501051329.97951
           X            0.99830   0.05596  -0.01655
           Y           -0.05545   0.99802   0.02965
           Z            0.01818  -0.02868   0.99942
 This molecule is an asymmetric top.
 Rotational symmetry number  1.
 Warning -- assumption of classical behavior for rotation
           may cause significant error
 Rotational temperatures (Kelvin)      0.13166     0.07807     0.06512
 Rotational constants (GHZ):           2.74333     1.62662     1.35697
 Zero-point vibrational energy     415042.1 (Joules/Mol)
                                   99.19745 (Kcal/Mol)
 Warning -- explicit consideration of  11 degrees of freedom as
           vibrations may cause significant error
 Vibrational temperatures:    197.05   236.50   264.40   322.81   381.50
          (Kelvin)            513.66   530.63   628.72   681.31   733.05
                              832.65   900.01  1049.07  1136.39  1179.58
                             1204.61  1256.92  1346.97  1367.95  1385.81
                             1418.35  1451.75  1470.20  1524.39  1557.80
                             1598.45  1656.83  1713.37  1743.98  1767.33
                             1780.97  1857.82  1869.30  2019.13  2042.99
                             2116.76  2126.79  2139.84  2157.18  2164.21
                             2743.36  4371.72  4380.30  4436.21  4470.67
                             4481.02  4495.00  4498.06  4537.77  4540.65
                             4554.30

 Zero-point correction=                           0.158081 (Hartree/Particle)
 Thermal correction to Energy=                    0.166377
 Thermal correction to Enthalpy=                  0.167321
 Thermal correction to Gibbs Free Energy=         0.125764
 Sum of electronic and zero-point Energies=           -423.023137
 Sum of electronic and thermal Energies=              -423.014841
 Sum of electronic and thermal Enthalpies=            -423.013897
 Sum of electronic and thermal Free Energies=         -423.055455

                     E (Thermal)             CV                S
                      KCal/Mol        Cal/Mol-Kelvin    Cal/Mol-Kelvin
 Total                  104.403             32.667             87.465
 Electronic               0.000              0.000              0.000
 Translational            0.889              2.981             40.409
 Rotational               0.889              2.981             28.364
 Vibrational            102.626             26.706             18.692
 Vibration     1          0.614              1.916              2.846
 Vibration     2          0.623              1.886              2.499
 Vibration     3          0.631              1.862              2.290
 Vibration     4          0.649              1.804              1.924
 Vibration     5          0.671              1.737              1.628
 Vibration     6          0.732              1.561              1.135
 Vibration     7          0.741              1.536              1.085
 Vibration     8          0.797              1.390              0.836
 Vibration     9          0.830              1.309              0.728
 Vibration    10          0.865              1.229              0.635
 Vibration    11          0.935              1.077              0.488

 Optimization completed.
    -- Stationary point found.
 Normal termination of Gaussian 09 at Mon Jan 27 17:15:55 2020.
