 Gaussian 09, Revision D.01,
 Gaussian 09:  ES64L-G09RevD.01 24-Apr-2013

 -----------------------------
 # b3lyp 6-31G(2df,p) opt Freq
 -----------------------------

 -----
 titel
 -----
 Symbolic Z-matrix:
 Charge =  0 Multiplicity = 1

 SCF Done:  E(RB3LYP) =  -423.235030535     A.U. after   14 cycles
 Optimization completed.
    -- Stationary point found.
 Normal termination of Gaussian 09 at Mon Jan 27 13:33:08 2020.

 ----------------------------------------------------------------------
 #N Geom=AllCheck Guess=TCheck SCRF=Check GenChk RB3LYP/6-31G(2df,p) Fr
 eq
 ----------------------------------------------------------------------

 Structure from the checkpoint file:  "/scratch/puck/g09_3a33a85b-ee14-45be-a449-5cc28fbdf739/Gau-2061.chk"
 -----
 titel
 -----
 Charge =  0 Multiplicity = 1

                         Standard orientation:
 ---------------------------------------------------------------------
 Center     Atomic      Atomic             Coordinates (Angstroms)
 Number     Number       Type             X           Y           Z
 ---------------------------------------------------------------------
      1          8           0       -3.430351   -0.000398    0.212161
      2          6           0       -2.391620    0.000323   -0.394746
      3          6           0       -1.012323    0.000260    0.232276
      4          6           0       -0.242550    1.266056   -0.196636
      5          6           0        1.191611    1.281900    0.367799
      6          6           0        1.946894   -0.000146    0.043709
      7          8           0        3.059215   -0.000277   -0.427795
      8          6           0        1.191263   -1.282018    0.367684
      9          6           0       -0.242891   -1.265743   -0.196749
     10          1           0       -2.379093    0.001018   -1.511696
     11          1           0       -1.152564    0.000188    1.319611
     12          1           0       -0.200295    1.307515   -1.293354
     13          1           0       -0.777687    2.163586    0.130461
     14          1           0        1.764696    2.131537   -0.010556
     15          1           0        1.143466    1.371359    1.462317
     16          1           0        1.764121   -2.131775   -0.010745
     17          1           0        1.143088   -1.371560    1.462194
     18          1           0       -0.200651   -1.307129   -1.293470
     19          1           0       -0.778296   -2.163128    0.130295
 ---------------------------------------------------------------------

 SCF Done:  E(RB3LYP) =  -423.235030535     A.U. after    1 cycles

 The electronic state is 1-A.
 Alpha  occ. eigenvalues --  -19.14731 -19.13409 -10.27729 -10.27360 -10.21122
 Alpha  occ. eigenvalues --  -10.21120 -10.21051 -10.20174 -10.20173  -1.05433
 Alpha  occ. eigenvalues --   -1.04438  -0.85304  -0.77050  -0.75654  -0.64416
 Alpha  occ. eigenvalues --   -0.63263  -0.58403  -0.54503  -0.49072  -0.47252
 Alpha  occ. eigenvalues --   -0.46157  -0.45829  -0.44392  -0.44110  -0.41458
 Alpha  occ. eigenvalues --   -0.40505  -0.38943  -0.38234  -0.37244  -0.35334
 Alpha  occ. eigenvalues --   -0.34624  -0.33900  -0.25636  -0.24573
 Alpha virt. eigenvalues --   -0.02989  -0.02187   0.08200   0.08904   0.11325
 Alpha virt. eigenvalues --    0.12510   0.13239   0.14481   0.15409   0.15739
 Alpha virt. eigenvalues --    0.16405   0.16615   0.17661   0.20067   0.22526

 Mulliken charges:
               1
     1  O   -0.245373
     2  C    0.147856
     3  C   -0.057341
     4  C   -0.227378
     5  C   -0.305628
     6  C    0.396205
     7  O   -0.301774
     8  C   -0.305635
     9  C   -0.227356
    10  H    0.072467
    11  H    0.094047
    12  H    0.113586
    13  H    0.119278
    14  H    0.124755
    15  H    0.122325
    16  H    0.124756
    17  H    0.122327
    18  H    0.113585
    19  H    0.119297
 Sum of Mulliken charges =   0.00000

 Dipole moment (field-independent basis, Debye):
    X=             -0.0578    Y=              0.0013    Z=              0.2535  Tot=              0.2600
 Quadrupole moment (field-independent basis, Debye-Ang):
   XX=            -77.0445   YY=            -49.8162   ZZ=            -51.2852
   XY=             -0.0022   XZ=              5.5484   YZ=              0.0000

  Exact polarizability:  93.142   0.001  71.265  -2.916  -0.003  65.244
 Approx polarizability: 132.083   0.005  99.217 -13.498  -0.007 106.543

                      1                      2                      3
                      A                      A                      A
 Frequencies --     52.2287                65.3925               159.7041
 Red. masses --      5.1888                 6.9744                 3.3794
 Frc consts  --      0.0083                 0.0176                 0.0508
 IR Inten    --      8.8181                 7.8196                 0.4240

                      4                      5                      6
                      A                      A                      A
 Frequencies --    172.1541               279.2454               335.6048
 Red. masses --      1.9757                 2.1362                 4.9396
 Frc consts  --      0.0345                 0.0981                 0.3278
 IR Inten    --      0.4389                 0.2499                 0.3179

                      7                      8                      9
                      A                      A                      A
 Frequencies --    367.8886               419.9215               457.8859
 Red. masses --      2.0891                 3.6211                 2.1863
 Frc consts  --      0.1666                 0.3762                 0.2701
 IR Inten    --      6.9365                 2.7574                 0.1848

                     10                     11                     12
                      A                      A                      A
 Frequencies --    496.0239               554.0617               680.8849
 Red. masses --      3.3337                 3.0732                 3.5340
 Frc consts  --      0.4833                 0.5558                 0.9653
 IR Inten    --      8.7401                11.0635                 2.3210

                     13                     14                     15
                      A                      A                      A
 Frequencies --    752.6849               762.2930               868.6780
 Red. masses --      2.8731                 1.5520                 2.3103
 Frc consts  --      0.9590                 0.5313                 1.0271
 IR Inten    --      4.4048                 3.9475                 2.7533

                     16                     17                     18
                      A                      A                      A
 Frequencies --    899.3694               917.8561               942.0524
 Red. masses --      2.3971                 1.3721                 2.0874
 Frc consts  --      1.1424                 0.6811                 1.0914
 IR Inten    --      3.0719                 1.2742                15.2218

                     19                     20                     21
                      A                      A                      A
 Frequencies --   1014.6783              1017.9338              1070.3463
 Red. masses --      2.3033                 1.8565                 1.3628
 Frc consts  --      1.3972                 1.1334                 0.9199
 IR Inten    --      1.6951                 4.9467                 2.8268

                     22                     23                     24
                      A                      A                      A
 Frequencies --   1077.0225              1117.3169              1137.4019
 Red. masses --      2.9445                 1.7917                 2.5029
 Frc consts  --      2.0124                 1.3178                 1.9078
 IR Inten    --     24.6738                 2.6148                12.0567

                     25                     26                     27
                      A                      A                      A
 Frequencies --   1176.9615              1216.2878              1257.8102
 Red. masses --      2.2836                 1.3079                 1.5284
 Frc consts  --      1.8638                 1.1400                 1.4247
 IR Inten    --     37.8308                 3.9732                 9.1501

                     28                     29                     30
                      A                      A                      A
 Frequencies --   1271.2109              1286.5690              1310.4693
 Red. masses --      1.3777                 1.3161                 1.3477
 Frc consts  --      1.3117                 1.2835                 1.3637
 IR Inten    --      1.0844                 2.6895                 0.7589

                     31                     32                     33
                      A                      A                      A
 Frequencies --   1347.2507              1351.5427              1371.4270
 Red. masses --      1.3392                 1.4618                 1.4139
 Frc consts  --      1.4322                 1.5732                 1.5668
 IR Inten    --      1.8793                15.1179                 1.9915

                     34                     35                     36
                      A                      A                      A
 Frequencies --   1385.8826              1427.5435              1460.3987
 Red. masses --      1.4730                 1.1952                 1.0931
 Frc consts  --      1.6669                 1.4350                 1.3735
 IR Inten    --     10.8197                 2.8499                 5.8229

                     37                     38                     39
                      A                      A                      A
 Frequencies --   1470.4778              1488.3248              1502.6691
 Red. masses --      1.0851                 1.0877                 1.0876
 Frc consts  --      1.3824                 1.4196                 1.4469
 IR Inten    --      7.9309                 2.3843                 4.0277

                     40                     41                     42
                      A                      A                      A
 Frequencies --   1822.0941              1836.9230              2840.2031
 Red. masses --     11.2104                10.4485                 1.0810
 Frc consts  --     21.9287                20.7724                 5.1377
 IR Inten    --    217.2693               170.1988                96.3957

                     43                     44                     45
                      A                      A                      A
 Frequencies --   3013.4754              3019.1708              3022.4609
 Red. masses --      1.0677                 1.0683                 1.0619
 Frc consts  --      5.7127                 5.7376                 5.7156
 IR Inten    --      4.6178                 0.2094                 9.2067

                     46                     47                     48
                      A                      A                      A
 Frequencies --   3025.6978              3048.2524              3074.1284
 Red. masses --      1.0636                 1.0819                 1.0989
 Frc consts  --      5.7371                 5.9228                 6.1189
 IR Inten    --     39.0538                15.4756                25.3356

                     49                     50                     51
                      A                      A                      A
 Frequencies --   3078.3829              3107.8132              3109.1751
 Red. masses --      1.0997                 1.0949                 1.0960
 Frc consts  --      6.1399                 6.2307                 6.2424
 IR Inten    --     30.8558                15.8655                13.6917

 - Thermochemistry -
 -------------------
 Temperature   298.150 Kelvin.  Pressure   1.00000 Atm.
 Atom     1 has atomic number  8 and mass  15.99491

 Molecular mass:   126.06808 amu.
 Principal axes and moments of inertia in atomic units:
                           1         2         3
     Eigenvalues --   449.244451925.521702217.13571
           X            0.99994   0.00000   0.01140
           Y            0.00000   1.00000  -0.00001
           Z           -0.01140   0.00001   0.99994
 This molecule is an asymmetric top.
 Rotational symmetry number  1.
 Warning -- assumption of classical behavior for rotation
           may cause significant error
 Rotational temperatures (Kelvin)      0.19280     0.04498     0.03907
 Rotational constants (GHZ):           4.01728     0.93727     0.81400
 Zero-point vibrational energy     418341.5 (Joules/Mol)
                                   99.98601 (Kcal/Mol)
 Warning -- explicit consideration of  11 degrees of freedom as
           vibrations may cause significant error
 Vibrational temperatures:     75.15    94.09   229.78   247.69   401.77
          (Kelvin)            482.86   529.31   604.17   658.79   713.67
                              797.17   979.64  1082.94  1096.77  1249.83
                             1293.99  1320.59  1355.40  1459.89  1464.58
                             1539.99  1549.59  1607.57  1636.47  1693.38
                             1749.96  1809.71  1828.99  1851.08  1885.47
                             1938.39  1944.57  1973.18  1993.97  2053.91
                             2101.19  2115.69  2141.36  2162.00  2621.58
                             2642.92  4086.41  4335.71  4343.91  4348.64
                             4353.30  4385.75  4422.98  4429.10  4471.44
                             4473.40

 Zero-point correction=                           0.159338 (Hartree/Particle)
 Thermal correction to Energy=                    0.167996
 Thermal correction to Enthalpy=                  0.168940
 Thermal correction to Gibbs Free Energy=         0.125080
 Sum of electronic and zero-point Energies=           -423.075693
 Sum of electronic and thermal Energies=              -423.067035
 Sum of electronic and thermal Enthalpies=            -423.066090
 Sum of electronic and thermal Free Energies=         -423.109951

                     E (Thermal)             CV                S
                      KCal/Mol        Cal/Mol-Kelvin    Cal/Mol-Kelvin
 Total                  105.419             31.802             92.312
 Electronic               0.000              0.000              0.000
 Translational            0.889              2.981             40.409
 Rotational               0.889              2.981             29.041
 Vibrational            103.642             25.840             22.863
 Vibration     1          0.596              1.977              4.731
 Vibration     2          0.597              1.971              4.287
 Vibration     3          0.622              1.892              2.553
 Vibration     4          0.626              1.877              2.412
 Vibration     5          0.680              1.712              1.538
 Vibration     6          0.717              1.604              1.233
 Vibration     7          0.740              1.538              1.089
 Vibration     8          0.783              1.427              0.892
 Vibration     9          0.816              1.343              0.772
 Vibration    10          0.852              1.259              0.668
 Vibration    11          0.909              1.131              0.536

 Optimization completed.
    -- Stationary point found.
 Normal termination of Gaussian 09 at Mon Jan 27 15:18:07 2020.
