 Gaussian 09, Revision D.01,
 Gaussian 09:  ES64L-G09RevD.01 24-Apr-2013

 -----------------------------
 # b3lyp 6-31G(2df,p) opt Freq
 -----------------------------

 -----
 titel
 -----
 Symbolic Z-matrix:
 Charge =  0 Multiplicity = 1

 SCF Done:  E(RB3LYP) =  -423.151258566     A.U. after   13 cycles
 Optimization completed.
    -- Stationary point found.
 Normal termination of Gaussian 09 at Mon Jan 27 22:05:38 2020.

 ----------------------------------------------------------------------
 #N Geom=AllCheck Guess=TCheck SCRF=Check GenChk RB3LYP/6-31G(2df,p) Fr
 eq
 ----------------------------------------------------------------------

 Structure from the checkpoint file:  "/scratch/puck/g09_f453eb27-91d6-4c51-9086-2d6ce67bd340/Gau-111379.chk"
 -----
 titel
 -----
 Charge =  0 Multiplicity = 1

                         Standard orientation:
 ---------------------------------------------------------------------
 Center     Atomic      Atomic             Coordinates (Angstroms)
 Number     Number       Type             X           Y           Z
 ---------------------------------------------------------------------
      1          6           0        2.311037   -1.026575    0.032011
      2          6           0        0.985254   -0.403120   -0.407134
      3          6           0       -0.204701   -1.342912   -0.235623
      4          6           0       -1.579477   -0.785246   -0.543693
      5          8           0       -1.551315    0.647300   -0.596469
      6          6           0       -0.893780    0.646649    0.721762
      7          6           0       -1.124024   -0.865604    0.879966
      8          6           0        0.593408    0.859456    0.438262
      9          8           0        0.843780    2.090318   -0.203369
     10          1           0        2.584282   -1.878430   -0.599646
     11          1           0        3.119731   -0.290771   -0.027635
     12          1           0        2.255382   -1.382739    1.067151
     13          1           0        1.074815   -0.081559   -1.451092
     14          1           0       -0.078745   -2.411906   -0.374989
     15          1           0       -2.356612   -1.296084   -1.099684
     16          1           0       -1.365507    1.356738    1.401749
     17          1           0       -1.482711   -1.419006    1.735653
     18          1           0        1.162537    0.879321    1.375667
     19          1           0        0.220813    2.127597   -0.941770
 ---------------------------------------------------------------------

 SCF Done:  E(RB3LYP) =  -423.151258566     A.U. after    1 cycles

 The electronic state is 1-A.
 Alpha  occ. eigenvalues --  -19.14344 -19.12993 -10.24339 -10.23767 -10.22810
 Alpha  occ. eigenvalues --  -10.19604 -10.19572 -10.18779 -10.17569  -1.06008
 Alpha  occ. eigenvalues --   -1.01157  -0.85341  -0.77120  -0.72622  -0.65381
 Alpha  occ. eigenvalues --   -0.61271  -0.56481  -0.54129  -0.53408  -0.49548
 Alpha  occ. eigenvalues --   -0.47976  -0.44742  -0.42181  -0.40448  -0.39934
 Alpha  occ. eigenvalues --   -0.37715  -0.36932  -0.36683  -0.33891  -0.33351
 Alpha  occ. eigenvalues --   -0.31515  -0.27410  -0.25482  -0.23582
 Alpha virt. eigenvalues --    0.06737   0.09709   0.10723   0.11241   0.12429
 Alpha virt. eigenvalues --    0.13342   0.14754   0.15283   0.16009   0.16412
 Alpha virt. eigenvalues --    0.16979   0.17424   0.18940   0.21592   0.22429

 Mulliken charges:
               1
     1  C   -0.418038
     2  C   -0.006113
     3  C   -0.086041
     4  C    0.085486
     5  O   -0.326838
     6  C    0.045728
     7  C   -0.168775
     8  C    0.144707
     9  O   -0.445643
    10  H    0.111911
    11  H    0.125048
    12  H    0.113284
    13  H    0.077542
    14  H    0.086781
    15  H    0.106128
    16  H    0.086268
    17  H    0.099607
    18  H    0.082505
    19  H    0.286453
 Sum of Mulliken charges =   0.00000

 Dipole moment (field-independent basis, Debye):
    X=             -0.4805    Y=             -2.2221    Z=              0.5707  Tot=              2.3440
 Quadrupole moment (field-independent basis, Debye-Ang):
   XX=            -54.8171   YY=            -54.7933   ZZ=            -50.6367
   XY=             -0.3201   XZ=             -1.0382   YZ=              0.3578

  Exact polarizability:  77.984   0.020  74.677   0.100   1.692  66.572
 Approx polarizability: 105.743  -0.383 109.401   3.050   0.644 107.971

                      1                      2                      3
                      A                      A                      A
 Frequencies --     89.4447               223.5692               246.9498
 Red. masses --      3.6529                 3.2468                 1.2988
 Frc consts  --      0.0172                 0.0956                 0.0467
 IR Inten    --      1.4606                 3.7515                 0.3409

                      4                      5                      6
                      A                      A                      A
 Frequencies --    255.9316               350.6251               405.6009
 Red. masses --      2.1831                 3.6570                 3.7763
 Frc consts  --      0.0843                 0.2649                 0.3660
 IR Inten    --      0.5281                 2.3922                 1.5970

                      7                      8                      9
                      A                      A                      A
 Frequencies --    492.9842               531.4336               542.5652
 Red. masses --      1.2188                 3.3463                 3.6648
 Frc consts  --      0.1745                 0.5568                 0.6356
 IR Inten    --     67.9593                12.9160                10.8201

                     10                     11                     12
                      A                      A                      A
 Frequencies --    667.2177               721.0296               764.6862
 Red. masses --      4.3278                 4.8785                 1.8264
 Frc consts  --      1.1351                 1.4943                 0.6292
 IR Inten    --      4.2675                13.9001                 6.1785

                     13                     14                     15
                      A                      A                      A
 Frequencies --    794.1921               807.2695               842.6759
 Red. masses --      2.0339                 2.5041                 2.5113
 Frc consts  --      0.7558                 0.9615                 1.0507
 IR Inten    --     14.3862                 3.2230                12.9421

                     16                     17                     18
                      A                      A                      A
 Frequencies --    887.9652               918.0124               967.1379
 Red. masses --      2.0218                 1.7539                 2.1437
 Frc consts  --      0.9392                 0.8709                 1.1814
 IR Inten    --      8.6336                 0.6068                13.3431

                     19                     20                     21
                      A                      A                      A
 Frequencies --    988.6793              1017.3541              1021.6886
 Red. masses --      2.4190                 1.7975                 4.0478
 Frc consts  --      1.3931                 1.0961                 2.4895
 IR Inten    --      4.9994                 7.1985                77.7694

                     22                     23                     24
                      A                      A                      A
 Frequencies --   1038.1734              1047.2299              1074.3799
 Red. masses --      1.9658                 1.5545                 1.5070
 Frc consts  --      1.2483                 1.0044                 1.0249
 IR Inten    --      8.3106                 3.9626                 2.1488

                     25                     26                     27
                      A                      A                      A
 Frequencies --   1094.0923              1113.3530              1125.1554
 Red. masses --      3.3594                 2.2266                 2.6929
 Frc consts  --      2.3693                 1.6261                 2.0086
 IR Inten    --     54.3385                48.9409                 1.3169

                     28                     29                     30
                      A                      A                      A
 Frequencies --   1147.8092              1216.4172              1248.2529
 Red. masses --      1.6278                 1.2464                 1.5920
 Frc consts  --      1.2635                 1.0866                 1.4615
 IR Inten    --      1.6772                 2.0386                 5.7870

                     31                     32                     33
                      A                      A                      A
 Frequencies --   1263.1526              1271.0492              1289.7677
 Red. masses --      1.8329                 1.4006                 1.5104
 Frc consts  --      1.7230                 1.3332                 1.4803
 IR Inten    --      2.3243                 2.7301                 6.1176

                     34                     35                     36
                      A                      A                      A
 Frequencies --   1324.4895              1326.9689              1364.6809
 Red. masses --      1.5108                 1.4974                 1.6260
 Frc consts  --      1.5615                 1.5535                 1.7841
 IR Inten    --      2.8369                11.4857                 4.7421

                     37                     38                     39
                      A                      A                      A
 Frequencies --   1401.9594              1410.5494              1438.3512
 Red. masses --      2.0825                 1.3412                 1.2689
 Frc consts  --      2.4117                 1.5722                 1.5466
 IR Inten    --      6.0779                 4.4584                73.8647

                     40                     41                     42
                      A                      A                      A
 Frequencies --   1498.2137              1500.2277              3025.9681
 Red. masses --      1.0460                 1.0496                 1.0358
 Frc consts  --      1.3833                 1.3918                 5.5878
 IR Inten    --      4.0528                 5.0037                22.7204

                     43                     44                     45
                      A                      A                      A
 Frequencies --   3035.7939              3044.1073              3094.1134
 Red. masses --      1.0833                 1.0849                 1.1010
 Frc consts  --      5.8823                 5.9235                 6.2102
 IR Inten    --      8.8152                38.8219                35.8233

                     46                     47                     48
                      A                      A                      A
 Frequencies --   3100.6302              3114.7050              3165.7149
 Red. masses --      1.1017                 1.0906                 1.0891
 Frc consts  --      6.2402                 6.2335                 6.4305
 IR Inten    --     21.6496                35.5277                 8.8473

                     49                     50                     51
                      A                      A                      A
 Frequencies --   3185.3557              3217.4810              3760.1200
 Red. masses --      1.0923                 1.0988                 1.0650
 Frc consts  --      6.5298                 6.7022                 8.8713
 IR Inten    --     25.3464                10.0510                23.4872

 - Thermochemistry -
 -------------------
 Temperature   298.150 Kelvin.  Pressure   1.00000 Atm.
 Atom     1 has atomic number  6 and mass  12.00000

 Molecular mass:   126.06808 amu.
 Principal axes and moments of inertia in atomic units:
                           1         2         3
     Eigenvalues --   743.49776 936.672031371.59856
           X            0.99706  -0.07626  -0.00701
           Y            0.07630   0.99707   0.00601
           Z            0.00654  -0.00653   0.99996
 This molecule is an asymmetric top.
 Rotational symmetry number  1.
 Warning -- assumption of classical behavior for rotation
           may cause significant error
 Rotational temperatures (Kelvin)      0.11650     0.09247     0.06315
 Rotational constants (GHZ):           2.42737     1.92676     1.31579
 Zero-point vibrational energy     421535.8 (Joules/Mol)
                                  100.74946 (Kcal/Mol)
 Warning -- explicit consideration of   9 degrees of freedom as
           vibrations may cause significant error
 Vibrational temperatures:    128.69   321.67   355.31   368.23   504.47
          (Kelvin)            583.57   709.29   764.61   780.63   959.98
                             1037.40  1100.21  1142.66  1161.48  1212.42
                             1277.58  1320.81  1391.49  1422.49  1463.74
                             1469.98  1493.70  1506.73  1545.79  1574.15
                             1601.86  1618.85  1651.44  1750.15  1795.96
                             1817.39  1828.75  1855.69  1905.64  1909.21
                             1963.47  2017.10  2029.46  2069.46  2155.59
                             2158.49  4353.69  4367.82  4379.79  4451.73
                             4461.11  4481.36  4554.75  4583.01  4629.23
                             5409.97

 Zero-point correction=                           0.160554 (Hartree/Particle)
 Thermal correction to Energy=                    0.168034
 Thermal correction to Enthalpy=                  0.168978
 Thermal correction to Gibbs Free Energy=         0.128781
 Sum of electronic and zero-point Energies=           -422.990704
 Sum of electronic and thermal Energies=              -422.983225
 Sum of electronic and thermal Enthalpies=            -422.982281
 Sum of electronic and thermal Free Energies=         -423.022477

                     E (Thermal)             CV                S
                      KCal/Mol        Cal/Mol-Kelvin    Cal/Mol-Kelvin
 Total                  105.443             30.381             84.601
 Electronic               0.000              0.000              0.000
 Translational            0.889              2.981             40.409
 Rotational               0.889              2.981             28.348
 Vibrational            103.665             24.420             15.844
 Vibration     1          0.602              1.957              3.672
 Vibration     2          0.649              1.805              1.930
 Vibration     3          0.661              1.768              1.752
 Vibration     4          0.666              1.753              1.689
 Vibration     5          0.728              1.574              1.163
 Vibration     6          0.771              1.458              0.942
 Vibration     7          0.849              1.266              0.676
 Vibration     8          0.886              1.180              0.584
 Vibration     9          0.898              1.156              0.560

 Optimization completed.
    -- Stationary point found.
 Normal termination of Gaussian 09 at Mon Jan 27 23:02:58 2020.
