 Gaussian 09, Revision D.01,
 Gaussian 09:  ES64L-G09RevD.01 24-Apr-2013

 -----------------------------
 # b3lyp 6-31G(2df,p) opt Freq
 -----------------------------

 -----
 titel
 -----
 Symbolic Z-matrix:
 Charge =  0 Multiplicity = 1

 SCF Done:  E(RB3LYP) =  -423.134410899     A.U. after   13 cycles
 Optimization completed.
    -- Stationary point found.
 Normal termination of Gaussian 09 at Tue Jan 28 13:33:57 2020.

 ----------------------------------------------------------------------
 #N Geom=AllCheck Guess=TCheck SCRF=Check GenChk RB3LYP/6-31G(2df,p) Fr
 eq
 ----------------------------------------------------------------------

 Structure from the checkpoint file:  "/scratch/puck/g09_26b48f5c-86cd-4fb9-85a3-5c80c3c43332/Gau-119035.chk"
 -----
 titel
 -----
 Charge =  0 Multiplicity = 1

                         Standard orientation:
 ---------------------------------------------------------------------
 Center     Atomic      Atomic             Coordinates (Angstroms)
 Number     Number       Type             X           Y           Z
 ---------------------------------------------------------------------
      1          6           0       -2.989640    0.124317   -0.097285
      2          8           0       -1.789922   -0.613153   -0.131570
      3          6           0       -0.706772    0.033737    0.484533
      4          6           0       -0.130066    1.268974   -0.277678
      5          6           0        1.376683    1.145285   -0.068414
      6          6           0        2.011476   -0.141956   -0.556857
      7          8           0        1.006386   -1.127819   -0.793867
      8          6           0        0.498147   -0.899325    0.561883
      9          6           0        1.696264    0.008169    0.897407
     10          1           0       -2.918164    1.063097   -0.666216
     11          1           0       -3.765616   -0.498870   -0.548208
     12          1           0       -3.286533    0.369272    0.935445
     13          1           0       -0.979541    0.329794    1.514324
     14          1           0       -0.404714    1.198096   -1.334626
     15          1           0       -0.512793    2.214665    0.114392
     16          1           0        2.007958    2.026747   -0.052262
     17          1           0        2.942816   -0.217306   -1.105833
     18          1           0        0.342614   -1.837021    1.095986
     19          1           0        2.305711    0.044095    1.788956
 ---------------------------------------------------------------------

 SCF Done:  E(RB3LYP) =  -423.134410899     A.U. after    1 cycles

 The electronic state is 1-A.
 Alpha  occ. eigenvalues --  -19.13764 -19.13125 -10.23647 -10.23431 -10.23091
 Alpha  occ. eigenvalues --  -10.22273 -10.19418 -10.19132 -10.18140  -1.05356
 Alpha  occ. eigenvalues --   -1.02928  -0.84562  -0.76494  -0.70445  -0.67685
 Alpha  occ. eigenvalues --   -0.59499  -0.56628  -0.53674  -0.53122  -0.49894
 Alpha  occ. eigenvalues --   -0.47670  -0.44871  -0.43587  -0.42176  -0.40581
 Alpha  occ. eigenvalues --   -0.38895  -0.37152  -0.35441  -0.33921  -0.31818
 Alpha  occ. eigenvalues --   -0.30558  -0.26933  -0.25028  -0.22687
 Alpha virt. eigenvalues --    0.07320   0.09903   0.11048   0.11696   0.13087
 Alpha virt. eigenvalues --    0.13493   0.14055   0.15990   0.16161   0.16701
 Alpha virt. eigenvalues --    0.17111   0.18022   0.18487   0.20194   0.22440

 Mulliken charges:
               1
     1  C   -0.234709
     2  O   -0.248287
     3  C    0.176796
     4  C   -0.271371
     5  C   -0.092692
     6  C    0.104445
     7  O   -0.301409
     8  C    0.043873
     9  C   -0.163749
    10  H    0.108352
    11  H    0.128533
    12  H    0.100840
    13  H    0.060694
    14  H    0.119504
    15  H    0.097574
    16  H    0.087856
    17  H    0.102389
    18  H    0.084048
    19  H    0.097315
 Sum of Mulliken charges =   0.00000

 Dipole moment (field-independent basis, Debye):
    X=              0.2080    Y=              1.9849    Z=              1.5925  Tot=              2.5533
 Quadrupole moment (field-independent basis, Debye-Ang):
   XX=            -46.9886   YY=            -54.5066   ZZ=            -53.1011
   XY=             -0.1602   XZ=              0.2963   YZ=             -2.4569

  Exact polarizability:  87.384   0.584  69.065  -0.589  -1.942  65.685
 Approx polarizability: 108.833   1.326 106.238  -1.630   0.607 105.627

                      1                      2                      3
                      A                      A                      A
 Frequencies --     94.7140               120.9250               198.5524
 Red. masses --      2.8556                 2.6578                 1.3854
 Frc consts  --      0.0151                 0.0229                 0.0322
 IR Inten    --      2.6632                 0.3403                 0.9670

                      4                      5                      6
                      A                      A                      A
 Frequencies --    242.6301               338.2008               411.6030
 Red. masses --      2.3063                 3.5339                 3.0721
 Frc consts  --      0.0800                 0.2382                 0.3066
 IR Inten    --      1.8686                 2.0908                 1.1347

                      7                      8                      9
                      A                      A                      A
 Frequencies --    467.5334               516.5465               670.3748
 Red. masses --      4.2781                 3.6698                 4.3241
 Frc consts  --      0.5510                 0.5769                 1.1449
 IR Inten    --      3.6268                 7.5960                 3.7963

                     10                     11                     12
                      A                      A                      A
 Frequencies --    712.9978               762.5584               803.3097
 Red. masses --      2.8340                 2.2570                 1.8417
 Frc consts  --      0.8488                 0.7733                 0.7002
 IR Inten    --      3.4913                10.4125                 9.3005

                     13                     14                     15
                      A                      A                      A
 Frequencies --    806.3114               857.8608               871.4853
 Red. masses --      2.4221                 3.1452                 2.3735
 Frc consts  --      0.9278                 1.3637                 1.0621
 IR Inten    --      2.6606                 9.4402                13.8754

                     16                     17                     18
                      A                      A                      A
 Frequencies --    918.1057               978.7149               988.4921
 Red. masses --      1.6029                 2.4077                 2.7475
 Frc consts  --      0.7960                 1.3588                 1.5818
 IR Inten    --      2.6928                25.7831                37.9739

                     19                     20                     21
                      A                      A                      A
 Frequencies --   1007.3187              1031.2150              1039.7579
 Red. masses --      2.5444                 3.2441                 1.5313
 Frc consts  --      1.5212                 2.0326                 0.9754
 IR Inten    --     17.7880                12.2929                 8.5794

                     22                     23                     24
                      A                      A                      A
 Frequencies --   1058.5723              1076.9512              1078.2497
 Red. masses --      1.9168                 1.9170                 2.9405
 Frc consts  --      1.2655                 1.3100                 2.0142
 IR Inten    --      4.3691                 5.2810                32.8179

                     25                     26                     27
                      A                      A                      A
 Frequencies --   1115.2500              1162.0904              1181.5534
 Red. masses --      1.9466                 2.8531                 1.2978
 Frc consts  --      1.4265                 2.2701                 1.0675
 IR Inten    --      2.2738               118.1884                 3.9443

                     28                     29                     30
                      A                      A                      A
 Frequencies --   1198.4120              1213.6341              1236.2658
 Red. masses --      1.3571                 1.3517                 1.7541
 Frc consts  --      1.1484                 1.1730                 1.5795
 IR Inten    --      5.9196                16.4120                48.1278

                     31                     32                     33
                      A                      A                      A
 Frequencies --   1258.8872              1266.7947              1284.6516
 Red. masses --      2.1533                 1.4106                 1.5252
 Frc consts  --      2.0106                 1.3337                 1.4830
 IR Inten    --      7.0912                 2.6099                 4.0807

                     34                     35                     36
                      A                      A                      A
 Frequencies --   1319.9778              1355.8141              1380.1619
 Red. masses --      1.4068                 1.4506                 1.7696
 Frc consts  --      1.4442                 1.5711                 1.9860
 IR Inten    --      3.5370                 6.3487                25.1829

                     37                     38                     39
                      A                      A                      A
 Frequencies --   1406.3630              1480.8485              1484.8894
 Red. masses --      2.0544                 1.1305                 1.0733
 Frc consts  --      2.3941                 1.4607                 1.3944
 IR Inten    --     10.3457                 0.9631                 4.1657

                     40                     41                     42
                      A                      A                      A
 Frequencies --   1492.9201              1508.9610              2934.2788
 Red. masses --      1.0966                 1.0601                 1.0813
 Frc consts  --      1.4400                 1.4222                 5.4852
 IR Inten    --      0.7962                 6.4127                46.5227

                     43                     44                     45
                      A                      A                      A
 Frequencies --   2971.3105              3021.9145              3055.2487
 Red. masses --      1.0403                 1.0991                 1.0587
 Frc consts  --      5.4116                 5.9134                 5.8228
 IR Inten    --     65.2465                46.6707                33.1450

                     46                     47                     48
                      A                      A                      A
 Frequencies --   3101.3662              3114.6127              3117.2760
 Red. masses --      1.1060                 1.0961                 1.0905
 Frc consts  --      6.2677                 6.2650                 6.2433
 IR Inten    --     16.6877                29.5829                33.0071

                     49                     50                     51
                      A                      A                      A
 Frequencies --   3174.9734              3184.2789              3213.4836
 Red. masses --      1.0894                 1.0921                 1.0993
 Frc consts  --      6.4703                 6.5241                 6.6884
 IR Inten    --      7.9739                30.4199                13.0426

 - Thermochemistry -
 -------------------
 Temperature   298.150 Kelvin.  Pressure   1.00000 Atm.
 Atom     1 has atomic number  6 and mass  12.00000

 Molecular mass:   126.06808 amu.
 Principal axes and moments of inertia in atomic units:
                           1         2         3
     Eigenvalues --   463.681721377.265391536.11749
           X            0.99997  -0.00610   0.00366
           Y            0.00631   0.99820  -0.05970
           Z           -0.00329   0.05973   0.99821
 This molecule is an asymmetric top.
 Rotational symmetry number  1.
 Warning -- assumption of classical behavior for rotation
           may cause significant error
 Rotational temperatures (Kelvin)      0.18680     0.06289     0.05638
 Rotational constants (GHZ):           3.89220     1.31038     1.17487
 Zero-point vibrational energy     420422.8 (Joules/Mol)
                                  100.48345 (Kcal/Mol)
 Warning -- explicit consideration of   8 degrees of freedom as
           vibrations may cause significant error
 Vibrational temperatures:    136.27   173.98   285.67   349.09   486.59
          (Kelvin)            592.20   672.68   743.19   964.52  1025.84
                             1097.15  1155.78  1160.10  1234.27  1253.87
                             1320.95  1408.15  1422.22  1449.31  1483.69
                             1495.98  1523.05  1549.49  1551.36  1604.59
                             1671.99  1699.99  1724.25  1746.15  1778.71
                             1811.26  1822.63  1848.32  1899.15  1950.71
                             1985.74  2023.44  2130.61  2136.42  2147.98
                             2171.06  4221.77  4275.05  4347.86  4395.82
                             4462.17  4481.23  4485.06  4568.07  4581.46
                             4623.48

 Zero-point correction=                           0.160131 (Hartree/Particle)
 Thermal correction to Energy=                    0.167711
 Thermal correction to Enthalpy=                  0.168655
 Thermal correction to Gibbs Free Energy=         0.127912
 Sum of electronic and zero-point Energies=           -422.974280
 Sum of electronic and thermal Energies=              -422.966700
 Sum of electronic and thermal Enthalpies=            -422.965755
 Sum of electronic and thermal Free Energies=         -423.006499

                     E (Thermal)             CV                S
                      KCal/Mol        Cal/Mol-Kelvin    Cal/Mol-Kelvin
 Total                  105.240             29.646             85.752
 Electronic               0.000              0.000              0.000
 Translational            0.889              2.981             40.409
 Rotational               0.889              2.981             28.375
 Vibrational            103.463             23.684             16.969
 Vibration     1          0.603              1.953              3.560
 Vibration     2          0.609              1.932              3.086
 Vibration     3          0.637              1.842              2.146
 Vibration     4          0.659              1.775              1.784
 Vibration     5          0.719              1.599              1.221
 Vibration     6          0.776              1.445              0.921
 Vibration     7          0.825              1.322              0.744
 Vibration     8          0.872              1.213              0.618

 Normal termination of Gaussian 09 at Tue Jan 28 14:17:00 2020.
