 Gaussian 09, Revision D.01,
 Gaussian 09:  ES64L-G09RevD.01 24-Apr-2013

 -----------------------------
 # b3lyp 6-31G(2df,p) opt Freq
 -----------------------------

 -----
 titel
 -----
 Symbolic Z-matrix:
 Charge =  0 Multiplicity = 1

 SCF Done:  E(RB3LYP) =  -423.215096563     A.U. after   14 cycles
 Optimization completed.
    -- Stationary point found.
 Normal termination of Gaussian 09 at Tue Jan 28 11:43:11 2020.

 ----------------------------------------------------------------------
 #N Geom=AllCheck Guess=TCheck SCRF=Check GenChk RB3LYP/6-31G(2df,p) Fr
 eq
 ----------------------------------------------------------------------

 Structure from the checkpoint file:  "/scratch/puck/g09_0e3b5578-8590-44b2-9df8-fdac78f3395a/Gau-26444.chk"
 -----
 titel
 -----
 Charge =  0 Multiplicity = 1

                         Standard orientation:
 ---------------------------------------------------------------------
 Center     Atomic      Atomic             Coordinates (Angstroms)
 Number     Number       Type             X           Y           Z
 ---------------------------------------------------------------------
      1          8           0        2.810353   -0.660927   -0.327022
      2          6           0        1.946070    0.400141    0.059132
      3          6           0        0.524053   -0.020886   -0.287765
      4          6           0        0.088568   -1.323107    0.423186
      5          6           0       -1.368387   -1.627836    0.205817
      6          6           0       -2.263834   -0.710496   -0.155176
      7          6           0       -1.928170    0.746133   -0.348470
      8          6           0       -0.481467    1.084662   -0.007478
      9          8           0       -0.165180    2.160308    0.448823
     10          1           0        3.709231   -0.414526   -0.091800
     11          1           0        2.014964    0.606272    1.137691
     12          1           0        2.191404    1.334152   -0.464167
     13          1           0        0.473566   -0.221215   -1.368794
     14          1           0        0.717024   -2.143434    0.064863
     15          1           0        0.298300   -1.239746    1.500543
     16          1           0       -1.685973   -2.655990    0.360060
     17          1           0       -3.303524   -0.990749   -0.304236
     18          1           0       -2.101663    1.042625   -1.395156
     19          1           0       -2.575710    1.395892    0.251115
 ---------------------------------------------------------------------

 SCF Done:  E(RB3LYP) =  -423.215096563     A.U. after    1 cycles

 The electronic state is 1-A.
 Alpha  occ. eigenvalues --  -19.13664 -19.12863 -10.26724 -10.22579 -10.19458
 Alpha  occ. eigenvalues --  -10.19423 -10.19139 -10.18895 -10.18662  -1.03929
 Alpha  occ. eigenvalues --   -1.01687  -0.83584  -0.77024  -0.73133  -0.67000
 Alpha  occ. eigenvalues --   -0.61457  -0.56132  -0.52597  -0.50002  -0.48135
 Alpha  occ. eigenvalues --   -0.45393  -0.44374  -0.44063  -0.41595  -0.41452
 Alpha  occ. eigenvalues --   -0.39584  -0.37680  -0.36299  -0.35521  -0.33512
 Alpha  occ. eigenvalues --   -0.31859  -0.26878  -0.25365  -0.23777
 Alpha virt. eigenvalues --   -0.01317   0.01869   0.07536   0.10072   0.11951
 Alpha virt. eigenvalues --    0.12831   0.14155   0.15524   0.16184   0.17796
 Alpha virt. eigenvalues --    0.18041   0.19252   0.21260   0.21488   0.22851

 Mulliken charges:
               1
     1  O   -0.429892
     2  C   -0.096450
     3  C   -0.095298
     4  C   -0.255313
     5  C   -0.070289
     6  C   -0.049623
     7  C   -0.356620
     8  C    0.378594
     9  O   -0.319147
    10  H    0.289108
    11  H    0.097557
    12  H    0.102221
    13  H    0.105850
    14  H    0.131747
    15  H    0.115348
    16  H    0.091851
    17  H    0.093003
    18  H    0.133885
    19  H    0.133468
 Sum of Mulliken charges =   0.00000

 Dipole moment (field-independent basis, Debye):
    X=              0.0564    Y=             -1.3026    Z=             -0.3809  Tot=              1.3584
 Quadrupole moment (field-independent basis, Debye-Ang):
   XX=            -44.2856   YY=            -59.3460   ZZ=            -53.1800
   XY=              1.8372   XZ=              2.5831   YZ=             -3.2243

  Exact polarizability:  90.879  -2.538  82.663   5.083  -1.678  56.887
 Approx polarizability: 119.426  -8.847 128.296   9.579   0.228  92.829

                      1                      2                      3
                      A                      A                      A
 Frequencies --     82.8009               101.5203               122.7013
 Red. masses --      3.6908                 3.2787                 2.4071
 Frc consts  --      0.0149                 0.0199                 0.0214
 IR Inten    --      1.5025                 3.2728                 1.6437

                      4                      5                      6
                      A                      A                      A
 Frequencies --    190.4644               258.3559               315.0441
 Red. masses --      4.0172                 1.1310                 2.4384
 Frc consts  --      0.0859                 0.0445                 0.1426
 IR Inten    --      9.9946                94.3186                11.2343

                      7                      8                      9
                      A                      A                      A
 Frequencies --    332.4991               388.9876               461.2048
 Red. masses --      5.4884                 2.0418                 3.7970
 Frc consts  --      0.3575                 0.1820                 0.4759
 IR Inten    --      1.9072                 0.2235                 7.1754

                     10                     11                     12
                      A                      A                      A
 Frequencies --    484.8479               551.1396               603.1802
 Red. masses --      4.8139                 4.4377                 3.2851
 Frc consts  --      0.6667                 0.7942                 0.7042
 IR Inten    --      5.1191                11.2116                 0.5868

                     13                     14                     15
                      A                      A                      A
 Frequencies --    681.1931               761.7433               805.7517
 Red. masses --      1.2306                 2.6512                 5.0527
 Frc consts  --      0.3364                 0.9064                 1.9327
 IR Inten    --     30.8383                 0.8420                 6.2601

                     16                     17                     18
                      A                      A                      A
 Frequencies --    896.2706               908.2452               943.7413
 Red. masses --      1.7220                 1.8143                 2.2481
 Frc consts  --      0.8150                 0.8818                 1.1797
 IR Inten    --      0.3503                 5.5571                 0.6444

                     19                     20                     21
                      A                      A                      A
 Frequencies --    984.4620              1002.1054              1036.4275
 Red. masses --      2.3706                 1.1840                 2.3588
 Frc consts  --      1.3536                 0.7005                 1.4928
 IR Inten    --     32.7029                 0.4874                 3.3458

                     22                     23                     24
                      A                      A                      A
 Frequencies --   1065.8916              1086.1713              1111.4031
 Red. masses --      3.0837                 2.4155                 2.6747
 Frc consts  --      2.0642                 1.6790                 1.9466
 IR Inten    --     32.3834                31.3911                12.2378

                     25                     26                     27
                      A                      A                      A
 Frequencies --   1129.3428              1165.8814              1202.5090
 Red. masses --      1.6485                 1.1575                 1.1995
 Frc consts  --      1.2388                 0.9270                 1.0220
 IR Inten    --     15.6775                22.0228                 1.9998

                     28                     29                     30
                      A                      A                      A
 Frequencies --   1225.1523              1250.9781              1260.4601
 Red. masses --      1.2803                 1.2467                 1.2430
 Frc consts  --      1.1323                 1.1496                 1.1636
 IR Inten    --      6.6502                26.0054                11.3069

                     31                     32                     33
                      A                      A                      A
 Frequencies --   1315.7955              1329.1331              1334.9209
 Red. masses --      1.2911                 1.4398                 1.6964
 Frc consts  --      1.3170                 1.4986                 1.7811
 IR Inten    --      9.0976                16.3806                 2.4435

                     34                     35                     36
                      A                      A                      A
 Frequencies --   1380.9360              1410.1387              1445.9847
 Red. masses --      1.9032                 1.5032                 1.0814
 Frc consts  --      2.1384                 1.7611                 1.3322
 IR Inten    --     20.4570                 2.6513                 5.8761

                     37                     38                     39
                      A                      A                      A
 Frequencies --   1459.1425              1484.1677              1516.7565
 Red. masses --      1.5012                 1.0883                 1.0855
 Frc consts  --      1.8831                 1.4125                 1.4713
 IR Inten    --      7.4857                 4.3786                 1.6728

                     40                     41                     42
                      A                      A                      A
 Frequencies --   1727.9265              1807.5225              2990.5338
 Red. masses --      6.6122                11.9506                 1.0647
 Frc consts  --     11.6319                23.0043                 5.6100
 IR Inten    --      2.6044               168.8377                22.9799

                     43                     44                     45
                      A                      A                      A
 Frequencies --   2992.9597              2994.6020              3007.1425
 Red. masses --      1.0692                 1.0713                 1.0758
 Frc consts  --      5.6429                 5.6605                 5.7319
 IR Inten    --     23.3070                 0.9194                28.5232

                     46                     47                     48
                      A                      A                      A
 Frequencies --   3033.2739              3063.4914              3083.8222
 Red. masses --      1.1027                 1.0889                 1.0887
 Frc consts  --      5.9779                 6.0212                 6.0999
 IR Inten    --     54.3714                 9.3175                10.5488

                     49                     50                     51
                      A                      A                      A
 Frequencies --   3148.2694              3171.1424              3835.3017
 Red. masses --      1.0834                 1.0973                 1.0664
 Frc consts  --      6.3267                 6.5012                 9.2424
 IR Inten    --      4.7520                35.3207                25.2041

 - Thermochemistry -
 -------------------
 Temperature   298.150 Kelvin.  Pressure   1.00000 Atm.
 Atom     1 has atomic number  8 and mass  15.99491

 Molecular mass:   126.06808 amu.
 Principal axes and moments of inertia in atomic units:
                           1         2         3
     Eigenvalues --   718.149001335.164761923.23846
           X            0.99984   0.01507   0.01002
           Y           -0.01487   0.99969  -0.01992
           Z           -0.01032   0.01977   0.99975
 This molecule is an asymmetric top.
 Rotational symmetry number  1.
 Warning -- assumption of classical behavior for rotation
           may cause significant error
 Rotational temperatures (Kelvin)      0.12061     0.06487     0.04504
 Rotational constants (GHZ):           2.51305     1.35170     0.93839
 Zero-point vibrational energy     418354.7 (Joules/Mol)
                                   99.98917 (Kcal/Mol)
 Warning -- explicit consideration of  12 degrees of freedom as
           vibrations may cause significant error
 Vibrational temperatures:    119.13   146.06   176.54   274.04   371.72
          (Kelvin)            453.28   478.39   559.67   663.57   697.59
                              792.97   867.84   980.08  1095.98  1159.30
                             1289.53  1306.76  1357.83  1416.42  1441.80
                             1491.19  1533.58  1562.76  1599.06  1624.87
                             1677.44  1730.14  1762.72  1799.88  1813.52
                             1893.13  1912.32  1920.65  1986.86  2028.87
                             2080.45  2099.38  2135.38  2182.27  2486.10
                             2600.62  4302.71  4306.20  4308.56  4326.60
                             4364.20  4407.68  4436.93  4529.65  4562.56
                             5518.14

 Zero-point correction=                           0.159343 (Hartree/Particle)
 Thermal correction to Energy=                    0.168155
 Thermal correction to Enthalpy=                  0.169099
 Thermal correction to Gibbs Free Energy=         0.125530
 Sum of electronic and zero-point Energies=           -423.055754
 Sum of electronic and thermal Energies=              -423.046942
 Sum of electronic and thermal Enthalpies=            -423.045997
 Sum of electronic and thermal Free Energies=         -423.089567

                     E (Thermal)             CV                S
                      KCal/Mol        Cal/Mol-Kelvin    Cal/Mol-Kelvin
 Total                  105.519             32.801             91.699
 Electronic               0.000              0.000              0.000
 Translational            0.889              2.981             40.409
 Rotational               0.889              2.981             29.002
 Vibrational            103.741             26.840             22.289
 Vibration     1          0.600              1.961              3.823
 Vibration     2          0.604              1.948              3.425
 Vibration     3          0.610              1.930              3.057
 Vibration     4          0.634              1.853              2.223
 Vibration     5          0.667              1.749              1.673
 Vibration     6          0.702              1.645              1.336
 Vibration     7          0.714              1.611              1.248
 Vibration     8          0.757              1.494              1.004
 Vibration     9          0.819              1.336              0.763
 Vibration    10          0.841              1.284              0.697
 Vibration    11          0.906              1.137              0.542
 Vibration    12          0.962              1.025              0.444

 Optimization completed.
    -- Stationary point found.
 Normal termination of Gaussian 09 at Tue Jan 28 12:24:27 2020.
