 Gaussian 09, Revision D.01,
 Gaussian 09:  ES64L-G09RevD.01 24-Apr-2013

 -----------------------------
 # b3lyp 6-31G(2df,p) opt Freq
 -----------------------------

 -----
 titel
 -----
 Symbolic Z-matrix:
 Charge =  0 Multiplicity = 1

 SCF Done:  E(RB3LYP) =  -423.173434136     A.U. after   14 cycles
 Optimization completed.
    -- Stationary point found.
 Normal termination of Gaussian 09 at Mon Jan 27 22:55:00 2020.

 ----------------------------------------------------------------------
 #N Geom=AllCheck Guess=TCheck SCRF=Check GenChk RB3LYP/6-31G(2df,p) Fr
 eq
 ----------------------------------------------------------------------

 Structure from the checkpoint file:  "/scratch/puck/g09_7ea16909-a5a7-4be8-b38a-04a1a8d97c1b/Gau-183266.chk"
 -----
 titel
 -----
 Charge =  0 Multiplicity = 1

                         Standard orientation:
 ---------------------------------------------------------------------
 Center     Atomic      Atomic             Coordinates (Angstroms)
 Number     Number       Type             X           Y           Z
 ---------------------------------------------------------------------
      1          6           0        2.513611    0.077127   -0.751019
      2          6           0        1.024042    0.324525   -0.678902
      3          6           0        0.441924    1.151682    0.473254
      4          6           0       -0.892776    1.761293    0.190779
      5          6           0       -1.827575    0.828684   -0.010011
      6          6           0       -1.276532   -0.573985    0.175089
      7          8           0       -1.564085   -1.480858   -0.884669
      8          6           0        0.217912   -0.333662    0.425642
      9          8           0        0.861739   -1.164261    1.342286
     10          1           0        2.736686   -0.803506   -1.364475
     11          1           0        3.033955    0.931143   -1.197124
     12          1           0        2.928543   -0.100235    0.243863
     13          1           0        0.532863    0.469393   -1.639781
     14          1           0        1.131615    1.598333    1.180628
     15          1           0       -1.045833    2.832984    0.123353
     16          1           0       -2.863514    1.003710   -0.275893
     17          1           0       -1.704853   -1.055696    1.063627
     18          1           0       -1.235436   -1.082571   -1.698635
     19          1           0        0.901114   -2.046589    0.954514
 ---------------------------------------------------------------------

 SCF Done:  E(RB3LYP) =  -423.173434136     A.U. after    1 cycles

 The electronic state is 1-A.
 Alpha  occ. eigenvalues --  -19.14633 -19.13579 -10.23284 -10.23135 -10.19578
 Alpha  occ. eigenvalues --  -10.19065 -10.19005 -10.17896 -10.17880  -1.03504
 Alpha  occ. eigenvalues --   -1.01344  -0.87877  -0.77653  -0.70356  -0.68878
 Alpha  occ. eigenvalues --   -0.59386  -0.57248  -0.54919  -0.53096  -0.48633
 Alpha  occ. eigenvalues --   -0.45463  -0.43469  -0.42346  -0.41959  -0.41309
 Alpha  occ. eigenvalues --   -0.38564  -0.37811  -0.35245  -0.33527  -0.32785
 Alpha  occ. eigenvalues --   -0.30608  -0.26732  -0.25630  -0.22959
 Alpha virt. eigenvalues --    0.00416   0.07104   0.09271   0.11386   0.12800
 Alpha virt. eigenvalues --    0.13392   0.15020   0.15804   0.16745   0.16962
 Alpha virt. eigenvalues --    0.17356   0.18161   0.20586   0.21785   0.24012

 Mulliken charges:
               1
     1  C   -0.430793
     2  C   -0.074988
     3  C   -0.155519
     4  C   -0.074613
     5  C   -0.144200
     6  C    0.013317
     7  O   -0.437394
     8  C    0.379234
     9  O   -0.475857
    10  H    0.114715
    11  H    0.118266
    12  H    0.134903
    13  H    0.067527
    14  H    0.098002
    15  H    0.101557
    16  H    0.102263
    17  H    0.099874
    18  H    0.275909
    19  H    0.287798
 Sum of Mulliken charges =   0.00000

 Dipole moment (field-independent basis, Debye):
    X=              0.6884    Y=              0.7711    Z=             -1.2233  Tot=              1.6015
 Quadrupole moment (field-independent basis, Debye-Ang):
   XX=            -53.8925   YY=            -51.3081   ZZ=            -53.6791
   XY=             -3.1905   XZ=             -1.2066   YZ=              0.0168

  Exact polarizability:  87.499   1.435  78.646  -1.392   1.126  63.078
 Approx polarizability: 120.499  10.674 122.283   0.555   3.267 100.067

                      1                      2                      3
                      A                      A                      A
 Frequencies --    131.1643               164.6485               177.9211
 Red. masses --      3.9787                 1.7197                 1.4317
 Frc consts  --      0.0403                 0.0275                 0.0267
 IR Inten    --      1.2302                 1.2683                 0.2589

                      4                      5                      6
                      A                      A                      A
 Frequencies --    226.2253               268.0312               297.6421
 Red. masses --      2.7540                 1.8529                 2.0585
 Frc consts  --      0.0830                 0.0784                 0.1074
 IR Inten    --      0.8639                 8.1206                34.3517

                      7                      8                      9
                      A                      A                      A
 Frequencies --    304.2496               343.3510               370.9078
 Red. masses --      1.4425                 1.7923                 3.0785
 Frc consts  --      0.0787                 0.1245                 0.2495
 IR Inten    --     80.6712                38.8361                27.0063

                     10                     11                     12
                      A                      A                      A
 Frequencies --    492.5489               506.8395               573.0336
 Red. masses --      3.3123                 3.9536                 3.9428
 Frc consts  --      0.4735                 0.5984                 0.7628
 IR Inten    --      1.9845                18.6637                 2.5807

                     13                     14                     15
                      A                      A                      A
 Frequencies --    648.8945               698.5562               750.7738
 Red. masses --      4.2559                 3.5318                 1.8058
 Frc consts  --      1.0558                 1.0154                 0.5997
 IR Inten    --      1.8612                 9.1105                16.2903

                     16                     17                     18
                      A                      A                      A
 Frequencies --    813.2112               843.1158               923.4973
 Red. masses --      3.2171                 2.1973                 2.0515
 Frc consts  --      1.2535                 0.9203                 1.0308
 IR Inten    --      9.9776                23.9843                 0.2233

                     19                     20                     21
                      A                      A                      A
 Frequencies --    948.0160               967.8301               987.0336
 Red. masses --      2.1501                 1.3375                 1.9442
 Frc consts  --      1.1385                 0.7381                 1.1159
 IR Inten    --     42.3278                 1.1152                11.3354

                     22                     23                     24
                      A                      A                      A
 Frequencies --   1020.4843              1027.9175              1063.8021
 Red. masses --      1.3865                 1.7586                 2.3437
 Frc consts  --      0.8507                 1.0948                 1.5627
 IR Inten    --     13.2041                11.5483                16.8220

                     25                     26                     27
                      A                      A                      A
 Frequencies --   1073.6622              1122.8843              1127.4047
 Red. masses --      2.1378                 2.2875                 1.6310
 Frc consts  --      1.4519                 1.6993                 1.2214
 IR Inten    --     54.5177                15.3351                 3.5580

                     28                     29                     30
                      A                      A                      A
 Frequencies --   1149.7667              1203.6173              1219.3368
 Red. masses --      1.4959                 1.8690                 1.7920
 Frc consts  --      1.1652                 1.5953                 1.5697
 IR Inten    --     14.6307                63.4802                 5.3359

                     31                     32                     33
                      A                      A                      A
 Frequencies --   1260.9851              1278.3320              1318.4126
 Red. masses --      1.3403                 1.4750                 1.5675
 Frc consts  --      1.2556                 1.4202                 1.6053
 IR Inten    --     12.5166                 2.3928                52.9700

                     34                     35                     36
                      A                      A                      A
 Frequencies --   1363.4645              1367.8381              1412.4444
 Red. masses --      1.7225                 1.7207                 1.2802
 Frc consts  --      1.8866                 1.8969                 1.5047
 IR Inten    --      4.0626                16.9816                 7.1272

                     37                     38                     39
                      A                      A                      A
 Frequencies --   1426.3955              1445.2129              1493.2865
 Red. masses --      1.2857                 2.7872                 1.0479
 Frc consts  --      1.5413                 3.4300                 1.3767
 IR Inten    --     68.8859                 5.4944                 4.6228

                     40                     41                     42
                      A                      A                      A
 Frequencies --   1503.3582              1663.4995              3030.4783
 Red. masses --      1.0780                 6.4319                 1.0805
 Frc consts  --      1.4355                10.4866                 5.8468
 IR Inten    --      6.7461                 4.2098                38.5514

                     43                     44                     45
                      A                      A                      A
 Frequencies --   3031.6956              3087.6853              3108.3457
 Red. masses --      1.0407                 1.1000                 1.0885
 Frc consts  --      5.6354                 6.1787                 6.1965
 IR Inten    --     27.2125                22.8842                 6.6732

                     46                     47                     48
                      A                      A                      A
 Frequencies --   3128.3347              3176.4008              3185.9955
 Red. masses --      1.0977                 1.0882                 1.0877
 Frc consts  --      6.3292                 6.4687                 6.5053
 IR Inten    --     21.7863                 6.6123                11.4642

                     49                     50                     51
                      A                      A                      A
 Frequencies --   3211.6661              3783.6284              3794.2347
 Red. masses --      1.1035                 1.0659                 1.0656
 Frc consts  --      6.7061                 8.9908                 9.0385
 IR Inten    --     17.8522                22.7746                 7.6494

 - Thermochemistry -
 -------------------
 Temperature   298.150 Kelvin.  Pressure   1.00000 Atm.
 Atom     1 has atomic number  6 and mass  12.00000

 Molecular mass:   126.06808 amu.
 Principal axes and moments of inertia in atomic units:
                           1         2         3
     Eigenvalues --   772.630661160.280321420.84829
           X            0.99952  -0.01911  -0.02438
           Y            0.01909   0.99982  -0.00104
           Z            0.02440   0.00057   0.99970
 This molecule is an asymmetric top.
 Rotational symmetry number  1.
 Warning -- assumption of classical behavior for rotation
           may cause significant error
 Rotational temperatures (Kelvin)      0.11210     0.07465     0.06096
 Rotational constants (GHZ):           2.33584     1.55544     1.27019
 Zero-point vibrational energy     415810.3 (Joules/Mol)
                                   99.38106 (Kcal/Mol)
 Warning -- explicit consideration of  12 degrees of freedom as
           vibrations may cause significant error
 Vibrational temperatures:    188.72   236.89   255.99   325.49   385.64
          (Kelvin)            428.24   437.75   494.00   533.65   708.67
                              729.23   824.47   933.61  1005.07  1080.19
                             1170.03  1213.05  1328.70  1363.98  1392.49
                             1420.12  1468.25  1478.94  1530.57  1544.76
                             1615.58  1622.08  1654.26  1731.73  1754.35
                             1814.27  1839.23  1896.90  1961.72  1968.01
                             2032.19  2052.26  2079.34  2148.50  2162.99
                             2393.40  4360.18  4361.93  4442.48  4472.21
                             4500.97  4570.13  4583.93  4620.87  5443.79
                             5459.05

 Zero-point correction=                           0.158374 (Hartree/Particle)
 Thermal correction to Energy=                    0.167214
 Thermal correction to Enthalpy=                  0.168158
 Thermal correction to Gibbs Free Energy=         0.125511
 Sum of electronic and zero-point Energies=           -423.015060
 Sum of electronic and thermal Energies=              -423.006220
 Sum of electronic and thermal Enthalpies=            -423.005276
 Sum of electronic and thermal Free Energies=         -423.047923

                     E (Thermal)             CV                S
                      KCal/Mol        Cal/Mol-Kelvin    Cal/Mol-Kelvin
 Total                  104.928             34.307             89.759
 Electronic               0.000              0.000              0.000
 Translational            0.889              2.981             40.409
 Rotational               0.889              2.981             28.634
 Vibrational            103.151             28.346             20.716
 Vibration     1          0.612              1.922              2.929
 Vibration     2          0.623              1.886              2.496
 Vibration     3          0.628              1.870              2.350
 Vibration     4          0.650              1.801              1.909
 Vibration     5          0.673              1.732              1.609
 Vibration     6          0.691              1.678              1.430
 Vibration     7          0.695              1.666              1.393
 Vibration     8          0.722              1.589              1.197
 Vibration     9          0.743              1.532              1.076
 Vibration    10          0.848              1.267              0.677
 Vibration    11          0.862              1.235              0.641
 Vibration    12          0.929              1.090              0.498

 Normal termination of Gaussian 09 at Mon Jan 27 23:38:43 2020.
