 Gaussian 09, Revision D.01,
 Gaussian 09:  ES64L-G09RevD.01 24-Apr-2013

 -----------------------------
 # b3lyp 6-31G(2df,p) opt Freq
 -----------------------------

 -----
 titel
 -----
 Symbolic Z-matrix:
 Charge =  0 Multiplicity = 1

 SCF Done:  E(RB3LYP) =  -423.115885603     A.U. after   14 cycles
 Optimization completed.
    -- Stationary point found.
 Normal termination of Gaussian 09 at Mon Jan 27 15:55:12 2020.

 ----------------------------------------------------------------------
 #N Geom=AllCheck Guess=TCheck SCRF=Check GenChk RB3LYP/6-31G(2df,p) Fr
 eq
 ----------------------------------------------------------------------

 Structure from the checkpoint file:  "/scratch/puck/g09_bc72a251-f33c-4b09-93ec-947206544a2e/Gau-10229.chk"
 -----
 titel
 -----
 Charge =  0 Multiplicity = 1

                         Standard orientation:
 ---------------------------------------------------------------------
 Center     Atomic      Atomic             Coordinates (Angstroms)
 Number     Number       Type             X           Y           Z
 ---------------------------------------------------------------------
      1          8           0       -1.451725    1.584209   -0.386283
      2          6           0       -1.329643    0.314116    0.251242
      3          6           0       -0.185465   -0.434137   -0.449536
      4          6           0        1.146708    0.297521   -0.342986
      5          6           0        2.394541   -0.456681   -0.856198
      6          8           0        3.012586   -0.423489    0.446199
      7          6           0        1.878958    0.256614    1.019935
      8          6           0       -2.586643   -0.437797    0.201253
      9          6           0       -3.631052   -1.032138    0.165635
     10          1           0       -2.240366    2.014346   -0.040405
     11          1           0       -1.057224    0.451428    1.311756
     12          1           0       -0.104625   -1.434567   -0.008990
     13          1           0       -0.462041   -0.562756   -1.502137
     14          1           0        1.047887    1.304865   -0.748831
     15          1           0        2.211519   -1.484925   -1.197730
     16          1           0        2.997073    0.063935   -1.610609
     17          1           0        1.390482   -0.347226    1.798276
     18          1           0        2.156848    1.226583    1.449893
     19          1           0       -4.550864   -1.562431    0.133378
 ---------------------------------------------------------------------

 SCF Done:  E(RB3LYP) =  -423.115885603     A.U. after    1 cycles

 The electronic state is 1-A.
 Alpha  occ. eigenvalues --  -19.14886 -19.12665 -10.26404 -10.22653 -10.22600
 Alpha  occ. eigenvalues --  -10.19289 -10.19145 -10.18888 -10.18480  -1.03295
 Alpha  occ. eigenvalues --   -1.03110  -0.80539  -0.76071  -0.70840  -0.68749
 Alpha  occ. eigenvalues --   -0.63121  -0.55924  -0.54552  -0.52243  -0.49809
 Alpha  occ. eigenvalues --   -0.49005  -0.46127  -0.44042  -0.41586  -0.39971
 Alpha  occ. eigenvalues --   -0.38963  -0.36858  -0.35065  -0.31720  -0.29962
 Alpha  occ. eigenvalues --   -0.29478  -0.27984  -0.26872  -0.24314
 Alpha virt. eigenvalues --    0.02766   0.04446   0.08127   0.08956   0.10669
 Alpha virt. eigenvalues --    0.11383   0.12150   0.12639   0.13980   0.16241
 Alpha virt. eigenvalues --    0.16605   0.17391   0.19139   0.20329   0.22720

 Mulliken charges:
               1
     1  O   -0.423016
     2  C   -0.062275
     3  C   -0.210173
     4  C   -0.030426
     5  C   -0.096850
     6  O   -0.271635
     7  C   -0.079039
     8  C    0.302503
     9  C   -0.445642
    10  H    0.290843
    11  H    0.098471
    12  H    0.112002
    13  H    0.118091
    14  H    0.103612
    15  H    0.096135
    16  H    0.100802
    17  H    0.092630
    18  H    0.102373
    19  H    0.201595
 Sum of Mulliken charges =   0.00000

 Dipole moment (field-independent basis, Debye):
    X=             -2.3213    Y=              0.3698    Z=              0.1448  Tot=              2.3551
 Quadrupole moment (field-independent basis, Debye-Ang):
   XX=            -54.8435   YY=            -51.6631   ZZ=            -52.8445
   XY=              2.0485   XZ=             -4.0450   YZ=              2.4691

  Exact polarizability:  98.791   9.584  69.573  -2.871   2.183  64.722
 Approx polarizability: 130.831  18.044 106.345  -1.813   1.106  95.869

                      1                      2                      3
                      A                      A                      A
 Frequencies --     39.8944                60.2571                87.5078
 Red. masses --      4.6499                 3.3213                 3.1288
 Frc consts  --      0.0044                 0.0071                 0.0141
 IR Inten    --      4.3177                 0.9544                 1.0387

                      4                      5                      6
                      A                      A                      A
 Frequencies --    118.0789               192.4386               244.4761
 Red. masses --      3.3815                 3.8052                 3.6756
 Frc consts  --      0.0278                 0.0830                 0.1294
 IR Inten    --      0.7704                 0.8633                 5.6840

                      7                      8                      9
                      A                      A                      A
 Frequencies --    277.9119               327.5535               386.4436
 Red. masses --      1.2050                 3.0847                 2.1100
 Frc consts  --      0.0548                 0.1950                 0.1857
 IR Inten    --     98.0387                 1.3679                 6.4908

                     10                     11                     12
                      A                      A                      A
 Frequencies --    437.0991               533.9983               578.5794
 Red. masses --      3.5011                 3.1393                 5.5982
 Frc consts  --      0.3941                 0.5274                 1.1041
 IR Inten    --      3.9035                12.1312                 4.1048

                     13                     14                     15
                      A                      A                      A
 Frequencies --    629.6503               672.9723               765.8236
 Red. masses --      1.2180                 1.2498                 3.8262
 Frc consts  --      0.2845                 0.3335                 1.3221
 IR Inten    --     45.0244                34.7797                 6.7170

                     16                     17                     18
                      A                      A                      A
 Frequencies --    849.2682               876.0519               895.1010
 Red. masses --      2.0579                 2.8583                 1.2828
 Frc consts  --      0.8745                 1.2924                 0.6056
 IR Inten    --      3.3362                11.7323                 0.4981

                     19                     20                     21
                      A                      A                      A
 Frequencies --    927.7108               980.1679              1005.7386
 Red. masses --      2.8654                 3.7410                 2.3520
 Frc consts  --      1.4530                 2.1176                 1.4017
 IR Inten    --     12.7628                32.9538                 6.3675

                     22                     23                     24
                      A                      A                      A
 Frequencies --   1037.9039              1049.0325              1072.2882
 Red. masses --      5.0535                 5.3907                 2.6225
 Frc consts  --      3.2074                 3.4952                 1.7766
 IR Inten    --     71.5518                68.4536                24.2341

                     25                     26                     27
                      A                      A                      A
 Frequencies --   1111.6590              1148.5878              1164.2657
 Red. masses --      2.7812                 1.6496                 1.1320
 Frc consts  --      2.0250                 1.2822                 0.9041
 IR Inten    --     17.3476                 0.5911                 1.0396

                     28                     29                     30
                      A                      A                      A
 Frequencies --   1166.3886              1231.9608              1264.2520
 Red. masses --      1.2170                 1.3574                 1.2801
 Frc consts  --      0.9755                 1.2139                 1.2055
 IR Inten    --      1.2686                 6.6586                 4.1532

                     31                     32                     33
                      A                      A                      A
 Frequencies --   1297.4479              1312.0382              1323.3518
 Red. masses --      1.2494                 1.2663                 1.3169
 Frc consts  --      1.2392                 1.2843                 1.3588
 IR Inten    --     16.2770                 3.4573                34.2856

                     34                     35                     36
                      A                      A                      A
 Frequencies --   1353.4034              1374.5708              1398.2113
 Red. masses --      1.2620                 1.3067                 1.5325
 Frc consts  --      1.3620                 1.4546                 1.7652
 IR Inten    --     11.2940                 4.1248                 5.2393

                     37                     38                     39
                      A                      A                      A
 Frequencies --   1414.3800              1473.4244              1512.2881
 Red. masses --      1.6656                 1.0904                 1.0803
 Frc consts  --      1.9631                 1.3948                 1.4557
 IR Inten    --     23.2095                 2.5941                 2.5713

                     40                     41                     42
                      A                      A                      A
 Frequencies --   1537.8296              2232.5340              2952.1144
 Red. masses --      1.1098                 5.9026                 1.0802
 Frc consts  --      1.5464                17.3337                 5.5467
 IR Inten    --      1.4017                 0.9073                30.8288

                     43                     44                     45
                      A                      A                      A
 Frequencies --   2991.4956              3004.5122              3038.3317
 Red. masses --      1.0573                 1.0612                 1.0602
 Frc consts  --      5.5748                 5.6439                 5.7664
 IR Inten    --    121.5677                18.2680                10.9786

                     46                     47                     48
                      A                      A                      A
 Frequencies --   3044.3187              3046.4900              3081.3081
 Red. masses --      1.1039                 1.1069                 1.1018
 Frc consts  --      6.0279                 6.0528                 6.1634
 IR Inten    --     39.3784                56.4822                12.7146

                     49                     50                     51
                      A                      A                      A
 Frequencies --   3112.4013              3502.1267              3823.5895
 Red. masses --      1.0885                 1.1626                 1.0664
 Frc consts  --      6.2126                 8.4012                 9.1860
 IR Inten    --     26.4594                67.2878                28.3975

 - Thermochemistry -
 -------------------
 Temperature   298.150 Kelvin.  Pressure   1.00000 Atm.
 Atom     1 has atomic number  8 and mass  15.99491

 Molecular mass:   126.06808 amu.
 Principal axes and moments of inertia in atomic units:
                           1         2         3
     Eigenvalues --   453.068252360.481682484.93805
           X            0.99996   0.00606  -0.00623
           Y           -0.00551   0.99633   0.08544
           Z            0.00672  -0.08540   0.99632
 This molecule is an asymmetric top.
 Rotational symmetry number  1.
 Warning -- assumption of classical behavior for rotation
           may cause significant error
 Rotational temperatures (Kelvin)      0.19117     0.03669     0.03486
 Rotational constants (GHZ):           3.98338     0.76456     0.72627
 Zero-point vibrational energy     412467.8 (Joules/Mol)
                                   98.58217 (Kcal/Mol)
 Warning -- explicit consideration of  12 degrees of freedom as
           vibrations may cause significant error
 Vibrational temperatures:     57.40    86.70   125.90   169.89   276.88
          (Kelvin)            351.75   399.85   471.28   556.01   628.89
                              768.30   832.45   905.93   968.26  1101.85
                             1221.91  1260.44  1287.85  1334.77  1410.24
                             1447.03  1493.31  1509.32  1542.78  1599.43
                             1652.56  1675.12  1678.17  1772.51  1818.97
                             1866.74  1887.73  1904.01  1947.24  1977.70
                             2011.71  2034.97  2119.93  2175.84  2212.59
                             3212.11  4247.43  4304.09  4322.82  4371.48
                             4380.09  4383.21  4433.31  4478.05  5038.77
                             5501.29

 Zero-point correction=                           0.157101 (Hartree/Particle)
 Thermal correction to Energy=                    0.166875
 Thermal correction to Enthalpy=                  0.167819
 Thermal correction to Gibbs Free Energy=         0.121021
 Sum of electronic and zero-point Energies=           -422.958785
 Sum of electronic and thermal Energies=              -422.949011
 Sum of electronic and thermal Enthalpies=            -422.948066
 Sum of electronic and thermal Free Energies=         -422.994865

                     E (Thermal)             CV                S
                      KCal/Mol        Cal/Mol-Kelvin    Cal/Mol-Kelvin
 Total                  104.716             34.703             98.495
 Electronic               0.000              0.000              0.000
 Translational            0.889              2.981             40.409
 Rotational               0.889              2.981             29.365
 Vibrational            102.938             28.741             28.722
 Vibration     1          0.594              1.981              5.264
 Vibration     2          0.597              1.973              4.449
 Vibration     3          0.601              1.958              3.715
 Vibration     4          0.608              1.934              3.132
 Vibration     5          0.634              1.850              2.204
 Vibration     6          0.660              1.772              1.770
 Vibration     7          0.679              1.714              1.546
 Vibration     8          0.711              1.620              1.272
 Vibration     9          0.755              1.499              1.014
 Vibration    10          0.797              1.389              0.836
 Vibration    11          0.889              1.175              0.578
 Vibration    12          0.935              1.078              0.488

 Optimization completed.
    -- Stationary point found.
 Normal termination of Gaussian 09 at Mon Jan 27 17:35:08 2020.
