 Gaussian 09, Revision D.01,
 Gaussian 09:  ES64L-G09RevD.01 24-Apr-2013

 -----------------------------
 # b3lyp 6-31G(2df,p) opt Freq
 -----------------------------

 -----
 titel
 -----
 Symbolic Z-matrix:
 Charge =  0 Multiplicity = 1

 SCF Done:  E(RB3LYP) =  -423.194373094     A.U. after   13 cycles
 SCF Done:  E(RB3LYP) =  -423.194373907     A.U. after    6 cycles
 Optimization completed.
    -- Stationary point found.
 Normal termination of Gaussian 09 at Mon Jan 27 23:52:08 2020.

 ----------------------------------------------------------------------
 #N Geom=AllCheck Guess=TCheck SCRF=Check GenChk RB3LYP/6-31G(2df,p) Fr
 eq
 ----------------------------------------------------------------------

 Structure from the checkpoint file:  "/scratch/puck/g09_8a68e325-52fe-4d46-bd2b-ce4356131ef8/Gau-104039.chk"
 -----
 titel
 -----
 Charge =  0 Multiplicity = 1

                         Standard orientation:
 ---------------------------------------------------------------------
 Center     Atomic      Atomic             Coordinates (Angstroms)
 Number     Number       Type             X           Y           Z
 ---------------------------------------------------------------------
      1          8           0        2.201200   -0.361383    0.165148
      2          6           0        0.992764   -0.635409   -0.499015
      3          6           0        0.305781    0.660796   -1.006193
      4          8           0        0.352394    1.614000    0.089555
      5          6           0       -0.865894    1.005885    0.616516
      6          6           0       -0.499834   -0.220440    1.471194
      7          6           0       -0.137863   -1.253738    0.376614
      8          6           0       -1.345152   -1.121921   -0.574951
      9          6           0       -1.203151    0.389233   -0.779016
     10          1           0        2.074934    0.508876    0.570927
     11          1           0        1.221168   -1.309555   -1.332703
     12          1           0        0.699374    1.078132   -1.934747
     13          1           0       -1.514831    1.747118    1.085799
     14          1           0        0.319626    0.001316    2.159747
     15          1           0       -1.358814   -0.562739    2.059231
     16          1           0        0.089852   -2.253914    0.746685
     17          1           0       -1.228061   -1.688784   -1.504299
     18          1           0       -2.295371   -1.407923   -0.113587
     19          1           0       -1.916532    0.920103   -1.405568
 ---------------------------------------------------------------------

 SCF Done:  E(RB3LYP) =  -423.194373907     A.U. after    1 cycles

 The electronic state is 1-A.
 Alpha  occ. eigenvalues --  -19.14144 -19.12604 -10.23877 -10.23342 -10.22665
 Alpha  occ. eigenvalues --  -10.19518 -10.18726 -10.18676 -10.18431  -1.05362
 Alpha  occ. eigenvalues --   -1.00619  -0.85228  -0.74435  -0.71306  -0.67757
 Alpha  occ. eigenvalues --   -0.61685  -0.57248  -0.54143  -0.52092  -0.49490
 Alpha  occ. eigenvalues --   -0.46569  -0.44933  -0.42673  -0.41719  -0.40046
 Alpha  occ. eigenvalues --   -0.38246  -0.36200  -0.35151  -0.34014  -0.33362
 Alpha  occ. eigenvalues --   -0.30811  -0.29521  -0.26976  -0.23949
 Alpha virt. eigenvalues --    0.07372   0.08742   0.11719   0.12394   0.13347
 Alpha virt. eigenvalues --    0.13711   0.15024   0.16375   0.16692   0.17289
 Alpha virt. eigenvalues --    0.17826   0.18703   0.19289   0.20252   0.21278

 Mulliken charges:
               1
     1  O   -0.455960
     2  C    0.158843
     3  C    0.051554
     4  O   -0.318936
     5  C    0.102839
     6  C   -0.236434
     7  C   -0.068243
     8  C   -0.242496
     9  C   -0.064969
    10  H    0.286444
    11  H    0.078954
    12  H    0.079251
    13  H    0.079632
    14  H    0.109039
    15  H    0.097560
    16  H    0.066942
    17  H    0.100465
    18  H    0.099425
    19  H    0.076090
 Sum of Mulliken charges =   0.00000

 Dipole moment (field-independent basis, Debye):
    X=             -2.4448    Y=             -0.4128    Z=             -0.3365  Tot=              2.5021
 Quadrupole moment (field-independent basis, Debye-Ang):
   XX=            -56.4450   YY=            -54.9960   ZZ=            -50.0603
   XY=              0.9222   XZ=             -0.6869   YZ=              0.6102

  Exact polarizability:  73.846  -0.003  70.450  -1.342   1.028  72.253
 Approx polarizability: 109.247   0.882 106.149  -1.367   3.188 107.287

                      1                      2                      3
                      A                      A                      A
 Frequencies --    193.2587               287.5616               414.9080
 Red. masses --      4.6706                 4.8363                 2.0054
 Frc consts  --      0.1028                 0.2356                 0.2034
 IR Inten    --      2.5166                 6.3590                 0.8871

                      4                      5                      6
                      A                      A                      A
 Frequencies --    441.3740               464.9475               526.5889
 Red. masses --      1.8909                 4.1484                 3.6619
 Frc consts  --      0.2170                 0.5284                 0.5983
 IR Inten    --      1.1841                 3.8082                 4.5165

                      7                      8                      9
                      A                      A                      A
 Frequencies --    556.1536               623.5809               664.5610
 Red. masses --      1.1751                 5.3471                 4.1010
 Frc consts  --      0.2142                 1.2251                 1.0671
 IR Inten    --     66.3067                 3.5448                 0.9886

                     10                     11                     12
                      A                      A                      A
 Frequencies --    773.1308               818.1416               841.3938
 Red. masses --      4.4260                 3.0840                 2.4281
 Frc consts  --      1.5587                 1.2162                 1.0128
 IR Inten    --      1.9005                11.6030                 4.3325

                     13                     14                     15
                      A                      A                      A
 Frequencies --    856.7270               888.8764               898.0057
 Red. masses --      2.2862                 2.3613                 2.8003
 Frc consts  --      0.9887                 1.0992                 1.3305
 IR Inten    --      0.5082                 8.8243                17.2117

                     16                     17                     18
                      A                      A                      A
 Frequencies --    902.6074               933.1470               950.2090
 Red. masses --      2.7057                 1.7587                 2.2369
 Frc consts  --      1.2988                 0.9023                 1.1900
 IR Inten    --      2.8023                 1.8751                 8.7061

                     19                     20                     21
                      A                      A                      A
 Frequencies --    972.9183               987.3482              1023.1682
 Red. masses --      3.0033                 1.6381                 1.7804
 Frc consts  --      1.6749                 0.9408                 1.0981
 IR Inten    --     51.7057                10.9222                 8.5115

                     22                     23                     24
                      A                      A                      A
 Frequencies --   1058.1006              1068.6216              1110.5982
 Red. masses --      2.5084                 1.5556                 2.0433
 Frc consts  --      1.6546                 1.0466                 1.4849
 IR Inten    --      6.7439                 5.4608                56.1473

                     25                     26                     27
                      A                      A                      A
 Frequencies --   1120.2263              1149.1901              1162.9777
 Red. masses --      1.3351                 1.4215                 2.0508
 Frc consts  --      0.9871                 1.1060                 1.6343
 IR Inten    --     30.9991                32.9216                 4.4171

                     28                     29                     30
                      A                      A                      A
 Frequencies --   1212.3178              1235.4744              1255.1757
 Red. masses --      1.9946                 1.3088                 1.8519
 Frc consts  --      1.7272                 1.1771                 1.7190
 IR Inten    --      5.2480                 2.7271                 5.5260

                     31                     32                     33
                      A                      A                      A
 Frequencies --   1262.1631              1279.1464              1292.7271
 Red. masses --      1.6038                 1.4488                 1.3695
 Frc consts  --      1.5053                 1.3967                 1.3484
 IR Inten    --      0.7471                 1.6745                 3.4444

                     34                     35                     36
                      A                      A                      A
 Frequencies --   1306.8553              1315.6805              1346.6127
 Red. masses --      1.4412                 1.5655                 1.5246
 Frc consts  --      1.4502                 1.5966                 1.6289
 IR Inten    --      6.1414                 0.2357                 4.4723

                     37                     38                     39
                      A                      A                      A
 Frequencies --   1348.7834              1369.6843              1442.3742
 Red. masses --      1.6429                 1.4781                 1.2519
 Frc consts  --      1.7610                 1.6337                 1.5345
 IR Inten    --      2.6021                 0.8931                86.0856

                     40                     41                     42
                      A                      A                      A
 Frequencies --   1478.4941              1502.9725              3040.9051
 Red. masses --      1.0968                 1.1038                 1.0822
 Frc consts  --      1.4126                 1.4690                 5.8962
 IR Inten    --      5.7432                 4.8437                14.9761

                     43                     44                     45
                      A                      A                      A
 Frequencies --   3043.9924              3050.6797              3094.6094
 Red. masses --      1.0641                 1.0619                 1.1052
 Frc consts  --      5.8092                 5.8226                 6.2361
 IR Inten    --     28.8367                38.4715                10.2638

                     46                     47                     48
                      A                      A                      A
 Frequencies --   3096.4189              3098.3966              3103.8530
 Red. masses --      1.0891                 1.0906                 1.1007
 Frc consts  --      6.1525                 6.1689                 6.2479
 IR Inten    --     83.5517                35.0479                18.2695

                     49                     50                     51
                      A                      A                      A
 Frequencies --   3110.3166              3142.5586              3723.3819
 Red. masses --      1.0891                 1.0909                 1.0646
 Frc consts  --      6.2078                 6.3476                 8.6962
 IR Inten    --     28.9542                29.2832                40.5630

 - Thermochemistry -
 -------------------
 Temperature   298.150 Kelvin.  Pressure   1.00000 Atm.
 Atom     1 has atomic number  8 and mass  15.99491

 Molecular mass:   126.06808 amu.
 Principal axes and moments of inertia in atomic units:
                           1         2         3
     Eigenvalues --   713.12905 874.645791015.85203
           X            0.99922   0.03875  -0.00785
           Y           -0.03867   0.99920   0.00987
           Z            0.00823  -0.00956   0.99992
 This molecule is an asymmetric top.
 Rotational symmetry number  1.
 Warning -- assumption of classical behavior for rotation
           may cause significant error
 Rotational temperatures (Kelvin)      0.12146     0.09903     0.08526
 Rotational constants (GHZ):           2.53074     2.06340     1.77658
 Zero-point vibrational energy     429710.0 (Joules/Mol)
                                  102.70315 (Kcal/Mol)
 Warning -- explicit consideration of   7 degrees of freedom as
           vibrations may cause significant error
 Vibrational temperatures:    278.06   413.74   596.96   635.04   668.95
          (Kelvin)            757.64   800.18   897.19   956.15  1112.36
                             1177.12  1210.58  1232.64  1278.89  1292.03
                             1298.65  1342.59  1367.14  1399.81  1420.57
                             1472.11  1522.37  1537.51  1597.90  1611.75
                             1653.43  1673.26  1744.25  1777.57  1805.92
                             1815.97  1840.40  1859.94  1880.27  1892.97
                             1937.47  1940.60  1970.67  2075.25  2127.22
                             2162.44  4375.18  4379.62  4389.24  4452.45
                             4455.05  4457.90  4465.75  4475.05  4521.44
                             5357.11

 Zero-point correction=                           0.163668 (Hartree/Particle)
 Thermal correction to Energy=                    0.169942
 Thermal correction to Enthalpy=                  0.170886
 Thermal correction to Gibbs Free Energy=         0.133429
 Sum of electronic and zero-point Energies=           -423.030706
 Sum of electronic and thermal Energies=              -423.024432
 Sum of electronic and thermal Enthalpies=            -423.023488
 Sum of electronic and thermal Free Energies=         -423.060945

                     E (Thermal)             CV                S
                      KCal/Mol        Cal/Mol-Kelvin    Cal/Mol-Kelvin
 Total                  106.640             27.436             78.836
 Electronic               0.000              0.000              0.000
 Translational            0.889              2.981             40.409
 Rotational               0.889              2.981             27.940
 Vibrational            104.863             21.474             10.487
 Vibration     1          0.635              1.849              2.196
 Vibration     2          0.685              1.697              1.488
 Vibration     3          0.778              1.438              0.909
 Vibration     4          0.801              1.380              0.822
 Vibration     5          0.822              1.328              0.752
 Vibration     6          0.882              1.191              0.595
 Vibration     7          0.912              1.126              0.532

 Optimization completed.
    -- Stationary point found.
 Normal termination of Gaussian 09 at Tue Jan 28 00:41:39 2020.
