 Gaussian 09, Revision D.01,
 Gaussian 09:  ES64L-G09RevD.01 24-Apr-2013

 -----------------------------
 # b3lyp 6-31G(2df,p) opt Freq
 -----------------------------

 -----
 titel
 -----
 Symbolic Z-matrix:
 Charge =  0 Multiplicity = 1

 SCF Done:  E(RB3LYP) =  -423.191774983     A.U. after   14 cycles
 Optimization completed.
    -- Stationary point found.
 Normal termination of Gaussian 09 at Tue Jan 28 03:55:28 2020.

 ----------------------------------------------------------------------
 #N Geom=AllCheck Guess=TCheck SCRF=Check GenChk RB3LYP/6-31G(2df,p) Fr
 eq
 ----------------------------------------------------------------------

 Structure from the checkpoint file:  "/scratch/puck/g09_48a2ee60-c7ed-475f-9dc5-aea2b5c5d5c8/Gau-115533.chk"
 -----
 titel
 -----
 Charge =  0 Multiplicity = 1

                         Standard orientation:
 ---------------------------------------------------------------------
 Center     Atomic      Atomic             Coordinates (Angstroms)
 Number     Number       Type             X           Y           Z
 ---------------------------------------------------------------------
      1          8           0        2.837749   -0.107765   -0.656342
      2          6           0        1.783938   -0.109486    0.289373
      3          6           0        0.758411   -1.197121   -0.100853
      4          6           0       -0.538850   -0.682783    0.540402
      5          8           0       -1.769423   -1.106658   -0.021087
      6          6           0       -2.555761    0.052554   -0.324546
      7          6           0       -1.595707    1.218900   -0.250208
      8          6           0       -0.447576    0.795235    0.261900
      9          6           0        0.980040    1.243687    0.349744
     10          1           0        3.539771    0.460980   -0.325243
     11          1           0        2.180058   -0.329913    1.292111
     12          1           0        0.644254   -1.195716   -1.189957
     13          1           0        1.065514   -2.195248    0.218794
     14          1           0       -0.529690   -0.906793    1.622819
     15          1           0       -2.991778   -0.065144   -1.326268
     16          1           0       -3.394817    0.141084    0.386545
     17          1           0       -1.834377    2.204941   -0.628757
     18          1           0        1.204204    1.796355    1.269528
     19          1           0        1.263290    1.878927   -0.495007
 ---------------------------------------------------------------------

 SCF Done:  E(RB3LYP) =  -423.191774983     A.U. after    1 cycles

 The electronic state is 1-A.
 Alpha  occ. eigenvalues --  -19.13874 -19.12970 -10.23831 -10.22684 -10.22507
 Alpha  occ. eigenvalues --  -10.18972 -10.18412 -10.18000 -10.17563  -1.02867
 Alpha  occ. eigenvalues --   -1.02100  -0.83253  -0.76845  -0.70571  -0.69155
 Alpha  occ. eigenvalues --   -0.59624  -0.57347  -0.54528  -0.51222  -0.48493
 Alpha  occ. eigenvalues --   -0.47933  -0.44097  -0.42781  -0.42319  -0.39608
 Alpha  occ. eigenvalues --   -0.37621  -0.37365  -0.36078  -0.33335  -0.32017
 Alpha  occ. eigenvalues --   -0.30874  -0.27295  -0.25852  -0.22713
 Alpha virt. eigenvalues --    0.01456   0.07321   0.10112   0.11203   0.13155
 Alpha virt. eigenvalues --    0.13563   0.14622   0.15694   0.16178   0.16909
 Alpha virt. eigenvalues --    0.18170   0.18997   0.19346   0.20429   0.24303

 Mulliken charges:
               1
     1  O   -0.427734
     2  C    0.126757
     3  C   -0.253425
     4  C    0.073699
     5  O   -0.284197
     6  C   -0.111391
     7  C   -0.270479
     8  C    0.335198
     9  C   -0.372603
    10  H    0.282951
    11  H    0.070232
    12  H    0.119504
    13  H    0.101608
    14  H    0.071150
    15  H    0.109796
    16  H    0.099220
    17  H    0.100402
    18  H    0.107946
    19  H    0.121366
 Sum of Mulliken charges =   0.00000

 Dipole moment (field-independent basis, Debye):
    X=              1.0107    Y=              2.1477    Z=              1.1342  Tot=              2.6306
 Quadrupole moment (field-independent basis, Debye-Ang):
   XX=            -49.2063   YY=            -53.6874   ZZ=            -53.3649
   XY=              0.0976   XZ=              4.3957   YZ=             -1.3612

  Exact polarizability:  99.757  -3.306  71.477   7.582  -3.037  62.482
 Approx polarizability: 134.412  -6.170 104.293  13.865  -5.296  99.545

                      1                      2                      3
                      A                      A                      A
 Frequencies --     55.0088               135.1716               225.5116
 Red. masses --      3.4048                 3.2548                 2.2905
 Frc consts  --      0.0061                 0.0350                 0.0686
 IR Inten    --      0.9738                 2.2861                 2.4982

                      4                      5                      6
                      A                      A                      A
 Frequencies --    287.1245               316.8732               338.5753
 Red. masses --      1.2010                 2.7856                 2.4385
 Frc consts  --      0.0583                 0.1648                 0.1647
 IR Inten    --     78.7989                30.2592                 1.3801

                      7                      8                      9
                      A                      A                      A
 Frequencies --    436.1062               458.8707               520.6337
 Red. masses --      3.5908                 3.5460                 2.7598
 Frc consts  --      0.4024                 0.4399                 0.4408
 IR Inten    --      6.9923                15.0203                 0.5611

                     10                     11                     12
                      A                      A                      A
 Frequencies --    619.2759               657.1947               767.7639
 Red. masses --      2.6617                 5.1508                 4.7958
 Frc consts  --      0.6014                 1.3107                 1.6656
 IR Inten    --      4.5371                 2.4011                 8.0416

                     13                     14                     15
                      A                      A                      A
 Frequencies --    796.2780               836.9062               843.3045
 Red. masses --      1.5054                 1.9104                 3.2819
 Frc consts  --      0.5624                 0.7884                 1.3752
 IR Inten    --      9.9967                 4.9172                 0.1986

                     16                     17                     18
                      A                      A                      A
 Frequencies --    913.1047               936.8820               967.1740
 Red. masses --      1.8164                 2.2087                 2.7999
 Frc consts  --      0.8923                 1.1422                 1.5431
 IR Inten    --      5.0401                 1.4629                 6.8347

                     19                     20                     21
                      A                      A                      A
 Frequencies --   1008.6743              1030.9267              1040.8385
 Red. masses --      2.2295                 2.3154                 1.7695
 Frc consts  --      1.3365                 1.4499                 1.1295
 IR Inten    --      5.8100                18.9643                28.4332

                     22                     23                     24
                      A                      A                      A
 Frequencies --   1045.2079              1094.4876              1118.7159
 Red. masses --      3.0911                 2.7233                 3.3797
 Frc consts  --      1.9896                 1.9221                 2.4921
 IR Inten    --     68.4632                45.8208                55.6819

                     25                     26                     27
                      A                      A                      A
 Frequencies --   1150.1000              1180.8441              1196.0810
 Red. masses --      1.5076                 2.4461                 1.2245
 Frc consts  --      1.1749                 2.0096                 1.0321
 IR Inten    --      8.4360                 5.5896                 2.0967

                     28                     29                     30
                      A                      A                      A
 Frequencies --   1198.3074              1234.8399              1255.8845
 Red. masses --      1.2357                 1.3398                 1.5447
 Frc consts  --      1.0454                 1.2037                 1.4355
 IR Inten    --      0.7474                 9.2054                 6.5425

                     31                     32                     33
                      A                      A                      A
 Frequencies --   1281.1976              1290.2414              1339.4843
 Red. masses --      1.4104                 1.2801                 1.7884
 Frc consts  --      1.3640                 1.2555                 1.8905
 IR Inten    --      9.4195                53.1620                11.7634

                     34                     35                     36
                      A                      A                      A
 Frequencies --   1346.8646              1368.5613              1390.2548
 Red. masses --      1.3252                 1.3760                 1.3971
 Frc consts  --      1.4164                 1.5185                 1.5910
 IR Inten    --      8.8633                15.5508                20.3586

                     37                     38                     39
                      A                      A                      A
 Frequencies --   1435.0179              1471.0938              1493.0406
 Red. masses --      1.4310                 1.0871                 1.1091
 Frc consts  --      1.7362                 1.3861                 1.4567
 IR Inten    --      3.1284                 2.9104                 2.4761

                     40                     41                     42
                      A                      A                      A
 Frequencies --   1520.1125              1745.1679              2927.8033
 Red. masses --      1.0889                 8.4258                 1.0807
 Frc consts  --      1.4824                15.1195                 5.4583
 IR Inten    --      1.3109                 3.2272                58.5941

                     43                     44                     45
                      A                      A                      A
 Frequencies --   2957.1851              2978.1492              3017.2374
 Red. masses --      1.0716                 1.0843                 1.0897
 Frc consts  --      5.5213                 5.6661                 5.8448
 IR Inten    --     98.7642                54.6405                49.4256

                     46                     47                     48
                      A                      A                      A
 Frequencies --   3035.1756              3059.3146              3086.3657
 Red. masses --      1.0635                 1.0595                 1.0996
 Frc consts  --      5.7726                 5.8425                 6.1711
 IR Inten    --     33.5927                14.5356                13.7324

                     49                     50                     51
                      A                      A                      A
 Frequencies --   3117.6302              3212.2134              3819.1522
 Red. masses --      1.1056                 1.0959                 1.0663
 Frc consts  --      6.3312                 6.6621                 9.1633
 IR Inten    --     29.9182                 7.3814                21.3074

 - Thermochemistry -
 -------------------
 Temperature   298.150 Kelvin.  Pressure   1.00000 Atm.
 Atom     1 has atomic number  8 and mass  15.99491

 Molecular mass:   126.06808 amu.
 Principal axes and moments of inertia in atomic units:
                           1         2         3
     Eigenvalues --   470.486011509.173341794.94245
           X            0.99990  -0.00485   0.01338
           Y            0.00502   0.99991  -0.01250
           Z           -0.01332   0.01256   0.99983
 This molecule is an asymmetric top.
 Rotational symmetry number  1.
 Warning -- assumption of classical behavior for rotation
           may cause significant error
 Rotational temperatures (Kelvin)      0.18409     0.05739     0.04825
 Rotational constants (GHZ):           3.83591     1.19585     1.00546
 Zero-point vibrational energy     422030.1 (Joules/Mol)
                                  100.86762 (Kcal/Mol)
 Warning -- explicit consideration of  10 degrees of freedom as
           vibrations may cause significant error
 Vibrational temperatures:     79.15   194.48   324.46   413.11   455.91
          (Kelvin)            487.13   627.46   660.21   749.07   891.00
                              945.56  1104.64  1145.67  1204.12  1213.33
                             1313.75  1347.96  1391.55  1451.26  1483.27
                             1497.53  1503.82  1574.72  1609.58  1654.74
                             1698.97  1720.89  1724.09  1776.66  1806.94
                             1843.36  1856.37  1927.22  1937.84  1969.05
                             2000.26  2064.67  2116.57  2148.15  2187.10
                             2510.90  4212.45  4254.72  4284.89  4341.13
                             4366.94  4401.67  4440.59  4485.57  4621.65
                             5494.90

 Zero-point correction=                           0.160743 (Hartree/Particle)
 Thermal correction to Energy=                    0.168628
 Thermal correction to Enthalpy=                  0.169572
 Thermal correction to Gibbs Free Energy=         0.127976
 Sum of electronic and zero-point Energies=           -423.031032
 Sum of electronic and thermal Energies=              -423.023147
 Sum of electronic and thermal Enthalpies=            -423.022203
 Sum of electronic and thermal Free Energies=         -423.063799

                     E (Thermal)             CV                S
                      KCal/Mol        Cal/Mol-Kelvin    Cal/Mol-Kelvin
 Total                  105.816             30.623             87.547
 Electronic               0.000              0.000              0.000
 Translational            0.889              2.981             40.409
 Rotational               0.889              2.981             28.635
 Vibrational            104.038             24.661             18.503
 Vibration     1          0.596              1.976              4.629
 Vibration     2          0.613              1.918              2.871
 Vibration     3          0.650              1.802              1.914
 Vibration     4          0.684              1.698              1.491
 Vibration     5          0.704              1.641              1.326
 Vibration     6          0.719              1.598              1.219
 Vibration     7          0.797              1.392              0.839
 Vibration     8          0.817              1.341              0.769
 Vibration     9          0.876              1.204              0.608
 Vibration    10          0.979              0.991              0.418

 Normal termination of Gaussian 09 at Tue Jan 28 04:41:32 2020.
