 Gaussian 09, Revision D.01,
 Gaussian 09:  ES64L-G09RevD.01 24-Apr-2013

 -----------------------------
 # b3lyp 6-31G(2df,p) opt Freq
 -----------------------------

 -----
 titel
 -----
 Symbolic Z-matrix:
 Charge =  0 Multiplicity = 1

 SCF Done:  E(RB3LYP) =  -423.152170481     A.U. after   13 cycles
 Optimization completed.
    -- Stationary point found.
 Normal termination of Gaussian 09 at Mon Jan 27 18:00:41 2020.

 ----------------------------------------------------------------------
 #N Geom=AllCheck Guess=TCheck SCRF=Check GenChk RB3LYP/6-31G(2df,p) Fr
 eq
 ----------------------------------------------------------------------

 Structure from the checkpoint file:  "/scratch/puck/g09_97bb225f-524f-4fc5-964e-5ff79404534a/Gau-45955.chk"
 -----
 titel
 -----
 Charge =  0 Multiplicity = 1

                         Standard orientation:
 ---------------------------------------------------------------------
 Center     Atomic      Atomic             Coordinates (Angstroms)
 Number     Number       Type             X           Y           Z
 ---------------------------------------------------------------------
      1          8           0        2.422446   -0.333651   -0.396352
      2          6           0        1.084817   -0.212953   -0.037509
      3          6           0        0.219316   -1.416899    0.442874
      4          6           0       -0.931438   -0.466921    0.083327
      5          8           0       -2.267965   -0.830034   -0.004693
      6          6           0       -0.688869    0.958138    0.738885
      7          6           0       -0.642150    1.557565   -0.695181
      8          6           0       -0.078143    0.180026   -1.064427
      9          6           0        0.812357    0.819979    1.067133
     10          1           0        2.499537   -1.022504   -1.064120
     11          1           0        0.256502   -2.256749   -0.263204
     12          1           0        0.350876   -1.780087    1.466929
     13          1           0       -2.339778   -1.590395   -0.591460
     14          1           0       -1.362200    1.339717    1.505302
     15          1           0       -1.639655    1.699935   -1.118353
     16          1           0       -0.034904    2.454266   -0.852221
     17          1           0       -0.013694   -0.227417   -2.075165
     18          1           0        1.363848    1.753544    0.926415
     19          1           0        1.028284    0.425559    2.063619
 ---------------------------------------------------------------------

 SCF Done:  E(RB3LYP) =  -423.152170481     A.U. after    1 cycles

 The electronic state is 1-A.
 Alpha  occ. eigenvalues --  -19.14605 -19.14207 -10.23942 -10.23659 -10.18746
 Alpha  occ. eigenvalues --  -10.17974 -10.17786 -10.17625 -10.17540  -1.03342
 Alpha  occ. eigenvalues --   -1.02633  -0.90076  -0.74914  -0.71192  -0.65200
 Alpha  occ. eigenvalues --   -0.60947  -0.56371  -0.54583  -0.51256  -0.47164
 Alpha  occ. eigenvalues --   -0.46756  -0.46053  -0.43931  -0.38722  -0.37775
 Alpha  occ. eigenvalues --   -0.37291  -0.36294  -0.35154  -0.34018  -0.31587
 Alpha  occ. eigenvalues --   -0.30551  -0.27563  -0.26076  -0.23895
 Alpha virt. eigenvalues --    0.07383   0.07799   0.11200   0.12044   0.13061
 Alpha virt. eigenvalues --    0.13315   0.14504   0.15757   0.16590   0.18270
 Alpha virt. eigenvalues --    0.18794   0.19099   0.21294   0.21751   0.23168

 Mulliken charges:
               1
     1  O   -0.486960
     2  C    0.411748
     3  C   -0.379963
     4  C    0.439415
     5  O   -0.487794
     6  C   -0.072105
     7  C   -0.246886
     8  C   -0.175489
     9  C   -0.244303
    10  H    0.277296
    11  H    0.074870
    12  H    0.096600
    13  H    0.279203
    14  H    0.069369
    15  H    0.105705
    16  H    0.090154
    17  H    0.052556
    18  H    0.101112
    19  H    0.095472
 Sum of Mulliken charges =   0.00000

 Dipole moment (field-independent basis, Debye):
    X=             -0.1140    Y=             -1.5552    Z=             -1.3067  Tot=              2.0345
 Quadrupole moment (field-independent basis, Debye-Ang):
   XX=            -59.2242   YY=            -48.8264   ZZ=            -50.5216
   XY=             -0.5474   XZ=              0.3662   YZ=              3.7741

  Exact polarizability:  75.284  -1.092  77.265   1.395   1.430  70.230
 Approx polarizability: 110.868   0.189 111.061  -0.218   2.854 107.510

                      1                      2                      3
                      A                      A                      A
 Frequencies --    241.0097               250.5297               273.7918
 Red. masses --      2.1272                 1.8040                 2.0636
 Frc consts  --      0.0728                 0.0667                 0.0911
 IR Inten    --      0.4782                34.9768                 5.7043

                      4                      5                      6
                      A                      A                      A
 Frequencies --    298.4919               344.5358               388.0772
 Red. masses --      1.9760                 1.7227                 2.9478
 Frc consts  --      0.1037                 0.1205                 0.2616
 IR Inten    --      8.4441               153.2028                10.5780

                      7                      8                      9
                      A                      A                      A
 Frequencies --    440.5424               483.7518               517.2441
 Red. masses --      2.0087                 1.8669                 2.4791
 Frc consts  --      0.2297                 0.2574                 0.3908
 IR Inten    --      1.3679                 0.1853                 0.5032

                     10                     11                     12
                      A                      A                      A
 Frequencies --    590.8591               593.9834               675.7628
 Red. masses --      6.2752                 4.3521                 2.8845
 Frc consts  --      1.2908                 0.9047                 0.7761
 IR Inten    --      0.9482                 2.3989                 0.8583

                     13                     14                     15
                      A                      A                      A
 Frequencies --    696.3519               819.3995               871.4750
 Red. masses --      4.1252                 2.9670                 3.4252
 Frc consts  --      1.1786                 1.1737                 1.5327
 IR Inten    --      2.4295                 3.4630                 3.3567

                     16                     17                     18
                      A                      A                      A
 Frequencies --    879.6454               909.0152               942.9171
 Red. masses --      2.1431                 2.3148                 1.7960
 Frc consts  --      0.9770                 1.1269                 0.9408
 IR Inten    --      2.4138                11.9116                 2.1015

                     19                     20                     21
                      A                      A                      A
 Frequencies --    950.2982               991.9728              1000.2689
 Red. masses --      1.8873                 1.2582                 2.4569
 Frc consts  --      1.0042                 0.7294                 1.4484
 IR Inten    --      2.1732                 0.5300                 3.0811

                     22                     23                     24
                      A                      A                      A
 Frequencies --   1008.1935              1049.8026              1084.6411
 Red. masses --      1.5176                 1.5223                 1.8955
 Frc consts  --      0.9089                 0.9885                 1.3139
 IR Inten    --     24.2267                 3.6001                18.6415

                     25                     26                     27
                      A                      A                      A
 Frequencies --   1101.1922              1114.4172              1129.5087
 Red. masses --      1.2774                 1.5780                 1.5815
 Frc consts  --      0.9126                 1.1546                 1.1888
 IR Inten    --     14.0376                26.0404                30.6445

                     28                     29                     30
                      A                      A                      A
 Frequencies --   1149.1081              1163.2033              1196.5316
 Red. masses --      1.9329                 2.0342                 1.8215
 Frc consts  --      1.5038                 1.6216                 1.5364
 IR Inten    --     28.3021                43.2256                 4.5836

                     31                     32                     33
                      A                      A                      A
 Frequencies --   1220.9273              1253.2488              1260.2913
 Red. masses --      1.6706                 1.8811                 1.5348
 Frc consts  --      1.4672                 1.7408                 1.4363
 IR Inten    --      2.4107                26.1046                 6.0503

                     34                     35                     36
                      A                      A                      A
 Frequencies --   1281.6022              1298.0141              1348.2099
 Red. masses --      2.0277                 1.7256                 2.4517
 Frc consts  --      1.9623                 1.7130                 2.6257
 IR Inten    --    109.8953               215.9939                13.8778

                     37                     38                     39
                      A                      A                      A
 Frequencies --   1376.9966              1398.6982              1486.3513
 Red. masses --      1.9815                 2.0161                 1.1275
 Frc consts  --      2.2137                 2.3239                 1.4676
 IR Inten    --      5.4025                 3.1957                 0.8300

                     40                     41                     42
                      A                      A                      A
 Frequencies --   1495.4163              1524.1231              3021.6255
 Red. masses --      1.1503                 1.1502                 1.0587
 Frc consts  --      1.5156                 1.5743                 5.6952
 IR Inten    --      1.2771                 1.4960                39.1941

                     43                     44                     45
                      A                      A                      A
 Frequencies --   3050.0708              3058.7066              3086.5718
 Red. masses --      1.0577                 1.0587                 1.1051
 Frc consts  --      5.7973                 5.8359                 6.2033
 IR Inten    --     44.9636                28.7348                34.6524

                     46                     47                     48
                      A                      A                      A
 Frequencies --   3097.7047              3107.1297              3111.2761
 Red. masses --      1.0899                 1.1067                 1.1068
 Frc consts  --      6.1620                 6.2951                 6.3125
 IR Inten    --     39.6487                25.0232                28.5303

                     49                     50                     51
                      A                      A                      A
 Frequencies --   3125.9545              3805.5506              3815.6274
 Red. masses --      1.0907                 1.0658                 1.0659
 Frc consts  --      6.2796                 9.0940                 9.1429
 IR Inten    --     35.6349                18.8698                20.0012

 - Thermochemistry -
 -------------------
 Temperature   298.150 Kelvin.  Pressure   1.00000 Atm.
 Atom     1 has atomic number  8 and mass  15.99491

 Molecular mass:   126.06808 amu.
 Principal axes and moments of inertia in atomic units:
                           1         2         3
     Eigenvalues --   631.046641076.676711264.66640
           X            0.99979  -0.01544   0.01319
           Y            0.01519   0.99971   0.01857
           Z           -0.01347  -0.01837   0.99974
 This molecule is an asymmetric top.
 Rotational symmetry number  1.
 Warning -- assumption of classical behavior for rotation
           may cause significant error
 Rotational temperatures (Kelvin)      0.13725     0.08045     0.06849
 Rotational constants (GHZ):           2.85992     1.67621     1.42705
 Zero-point vibrational energy     420969.6 (Joules/Mol)
                                  100.61414 (Kcal/Mol)
 Warning -- explicit consideration of  11 degrees of freedom as
           vibrations may cause significant error
 Vibrational temperatures:    346.76   360.46   393.92   429.46   495.71
          (Kelvin)            558.36   633.84   696.01   744.20   850.11
                              854.61   972.27  1001.89  1178.93  1253.86
                             1265.61  1307.87  1356.65  1367.27  1427.23
                             1439.16  1450.56  1510.43  1560.55  1584.37
                             1603.40  1625.11  1653.31  1673.59  1721.54
                             1756.64  1803.14  1813.28  1843.94  1867.55
                             1939.77  1981.19  2012.41  2138.53  2151.57
                             2192.87  4347.44  4388.37  4400.79  4440.88
                             4456.90  4470.46  4476.43  4497.55  5475.33
                             5489.83

 Zero-point correction=                           0.160339 (Hartree/Particle)
 Thermal correction to Energy=                    0.167740
 Thermal correction to Enthalpy=                  0.168684
 Thermal correction to Gibbs Free Energy=         0.129274
 Sum of electronic and zero-point Energies=           -422.991832
 Sum of electronic and thermal Energies=              -422.984430
 Sum of electronic and thermal Enthalpies=            -422.983486
 Sum of electronic and thermal Free Energies=         -423.022897

                     E (Thermal)             CV                S
                      KCal/Mol        Cal/Mol-Kelvin    Cal/Mol-Kelvin
 Total                  105.258             31.366             82.946
 Electronic               0.000              0.000              0.000
 Translational            0.889              2.981             40.409
 Rotational               0.889              2.981             28.243
 Vibrational            103.481             25.404             14.295
 Vibration     1          0.658              1.778              1.795
 Vibration     2          0.663              1.762              1.727
 Vibration     3          0.676              1.722              1.572
 Vibration     4          0.692              1.677              1.425
 Vibration     5          0.723              1.586              1.191
 Vibration     6          0.756              1.496              1.008
 Vibration     7          0.800              1.382              0.825
 Vibration     8          0.840              1.286              0.700
 Vibration     9          0.872              1.212              0.616
 Vibration    10          0.948              1.051              0.466
 Vibration    11          0.952              1.045              0.460

 Normal termination of Gaussian 09 at Mon Jan 27 18:46:29 2020.
