 Gaussian 09, Revision D.01,
 Gaussian 09:  ES64L-G09RevD.01 24-Apr-2013

 -----------------------------
 # b3lyp 6-31G(2df,p) opt Freq
 -----------------------------

 -----
 titel
 -----
 Symbolic Z-matrix:
 Charge =  0 Multiplicity = 1

 SCF Done:  E(RB3LYP) =  -423.113751487     A.U. after   13 cycles
 Optimization completed.
    -- Stationary point found.
 Normal termination of Gaussian 09 at Tue Jan 28 09:17:55 2020.

 ----------------------------------------------------------------------
 #N Geom=AllCheck Guess=TCheck SCRF=Check GenChk RB3LYP/6-31G(2df,p) Fr
 eq
 ----------------------------------------------------------------------

 Structure from the checkpoint file:  "/scratch/puck/g09_b438db6a-4e60-4da5-9176-be0e3014b9a2/Gau-109335.chk"
 -----
 titel
 -----
 Charge =  0 Multiplicity = 1

                         Standard orientation:
 ---------------------------------------------------------------------
 Center     Atomic      Atomic             Coordinates (Angstroms)
 Number     Number       Type             X           Y           Z
 ---------------------------------------------------------------------
      1          6           0        2.740409   -0.063442    0.476987
      2          6           0        1.779283   -0.260929   -0.704001
      3          6           0        0.338029   -0.271613   -0.305997
      4          6           0       -0.962649   -0.218855   -1.051188
      5          8           0       -1.527408   -1.383962   -0.450610
      6          6           0       -0.570564   -1.172430    0.627528
      7          6           0       -1.101154    0.098486    1.345730
      8          6           0       -0.698159    0.808844    0.055277
      9          8           0       -0.704695    2.151527   -0.249956
     10          1           0        3.781630   -0.063967    0.140880
     11          1           0        2.552684    0.887309    0.987471
     12          1           0        2.628399   -0.864210    1.215644
     13          1           0        1.925047    0.543512   -1.436494
     14          1           0        2.026624   -1.194617   -1.226050
     15          1           0       -1.207519    0.038012   -2.073992
     16          1           0       -0.297684   -2.079709    1.162354
     17          1           0       -2.153844    0.083885    1.645161
     18          1           0       -0.460188    0.385107    2.185304
     19          1           0       -0.089504    2.603782    0.338237
 ---------------------------------------------------------------------

 SCF Done:  E(RB3LYP) =  -423.113751487     A.U. after    1 cycles

 The electronic state is 1-A.
 Alpha  occ. eigenvalues --  -19.15699 -19.13170 -10.24216 -10.24019 -10.23131
 Alpha  occ. eigenvalues --  -10.19431 -10.19159 -10.18540 -10.18289  -1.06226
 Alpha  occ. eigenvalues --   -1.03523  -0.85143  -0.77245  -0.72693  -0.65648
 Alpha  occ. eigenvalues --   -0.62000  -0.57476  -0.54780  -0.50405  -0.47594
 Alpha  occ. eigenvalues --   -0.46436  -0.44349  -0.43613  -0.41640  -0.38821
 Alpha  occ. eigenvalues --   -0.38403  -0.37770  -0.37534  -0.35545  -0.33693
 Alpha  occ. eigenvalues --   -0.30957  -0.28332  -0.23753  -0.22125
 Alpha virt. eigenvalues --    0.05354   0.08932   0.09605   0.12198   0.12902
 Alpha virt. eigenvalues --    0.13725   0.14015   0.15091   0.15369   0.16991
 Alpha virt. eigenvalues --    0.17555   0.18055   0.18640   0.20652   0.22515

 Mulliken charges:
               1
     1  C   -0.372346
     2  C   -0.341689
     3  C    0.233538
     4  C   -0.018747
     5  O   -0.293983
     6  C    0.012344
     7  C   -0.300661
     8  C    0.289275
     9  O   -0.458346
    10  H    0.116508
    11  H    0.108255
    12  H    0.119819
    13  H    0.110085
    14  H    0.111258
    15  H    0.110309
    16  H    0.087760
    17  H    0.104241
    18  H    0.094128
    19  H    0.288252
 Sum of Mulliken charges =   0.00000

 Dipole moment (field-independent basis, Debye):
    X=              2.4526    Y=              0.8706    Z=              1.2454  Tot=              2.8852
 Quadrupole moment (field-independent basis, Debye-Ang):
   XX=            -55.9920   YY=            -53.9257   ZZ=            -50.7906
   XY=             -0.2074   XZ=             -1.0889   YZ=              0.6081

  Exact polarizability:  79.141  -0.007  72.049  -0.712  -0.241  72.467
 Approx polarizability: 108.152   0.583 111.471   2.081  -0.191 107.821

                      1                      2                      3
                      A                      A                      A
 Frequencies --     74.6595               128.5627               161.1825
 Red. masses --      2.5851                 2.6142                 1.9537
 Frc consts  --      0.0085                 0.0255                 0.0299
 IR Inten    --      0.7244                 1.9146                 0.3243

                      4                      5                      6
                      A                      A                      A
 Frequencies --    246.7933               300.4425               329.1954
 Red. masses --      1.3791                 3.2333                 1.2021
 Frc consts  --      0.0495                 0.1720                 0.0768
 IR Inten    --      0.8458                 1.0396                67.3595

                      7                      8                      9
                      A                      A                      A
 Frequencies --    375.8502               418.3337               447.3892
 Red. masses --      3.5467                 2.8038                 2.2819
 Frc consts  --      0.2952                 0.2891                 0.2691
 IR Inten    --     30.6756                17.7189                 0.3142

                     10                     11                     12
                      A                      A                      A
 Frequencies --    562.1774               625.6220               655.3138
 Red. masses --      3.6274                 4.3690                 3.2181
 Frc consts  --      0.6754                 1.0075                 0.8142
 IR Inten    --      7.6788                 3.6212                 5.7525

                     13                     14                     15
                      A                      A                      A
 Frequencies --    730.2301               779.8990               817.5813
 Red. masses --      2.3047                 2.7432                 2.9196
 Frc consts  --      0.7241                 0.9831                 1.1498
 IR Inten    --      6.2548                 2.7269                10.4528

                     16                     17                     18
                      A                      A                      A
 Frequencies --    836.7057               916.3177               930.1222
 Red. masses --      2.1222                 2.8761                 2.2862
 Frc consts  --      0.8753                 1.4228                 1.1653
 IR Inten    --      6.5070                30.2683                16.8807

                     19                     20                     21
                      A                      A                      A
 Frequencies --    953.4419               966.2149               999.2297
 Red. masses --      2.2553                 1.4056                 3.1152
 Frc consts  --      1.2079                 0.7731                 1.8326
 IR Inten    --      1.3787                 6.3749                 0.8408

                     22                     23                     24
                      A                      A                      A
 Frequencies --   1021.2015              1045.0022              1086.0419
 Red. masses --      2.8209                 1.9450                 2.2846
 Frc consts  --      1.7332                 1.2514                 1.5877
 IR Inten    --     23.6589                 4.5919                 2.7250

                     25                     26                     27
                      A                      A                      A
 Frequencies --   1111.3373              1134.8501              1144.3941
 Red. masses --      1.2610                 1.9731                 2.0618
 Frc consts  --      0.9176                 1.4972                 1.5909
 IR Inten    --     21.6246                 7.6572                 2.1597

                     28                     29                     30
                      A                      A                      A
 Frequencies --   1170.5347              1219.4743              1230.7985
 Red. masses --      1.7242                 1.5793                 1.7337
 Frc consts  --      1.3919                 1.3837                 1.5474
 IR Inten    --     12.3532                 2.3645                 0.7171

                     31                     32                     33
                      A                      A                      A
 Frequencies --   1275.9220              1301.1856              1322.0129
 Red. masses --      1.8181                 1.1965                 1.8892
 Frc consts  --      1.7439                 1.1936                 1.9453
 IR Inten    --    116.2329                 4.0388                71.9631

                     34                     35                     36
                      A                      A                      A
 Frequencies --   1346.9541              1388.1138              1411.2172
 Red. masses --      1.4118                 2.5840                 1.2400
 Frc consts  --      1.5092                 2.9336                 1.4550
 IR Inten    --      7.1535                11.2360                 1.3534

                     37                     38                     39
                      A                      A                      A
 Frequencies --   1460.8480              1477.7421              1498.4294
 Red. masses --      2.1662                 1.0694                 1.0439
 Frc consts  --      2.7237                 1.3759                 1.3810
 IR Inten    --      7.4300                 1.7235                 6.9501

                     40                     41                     42
                      A                      A                      A
 Frequencies --   1499.4430              1505.3714              3015.3521
 Red. masses --      1.4531                 1.1669                 1.0601
 Frc consts  --      1.9248                 1.5581                 5.6790
 IR Inten    --     11.3945                 1.3855                31.2052

                     43                     44                     45
                      A                      A                      A
 Frequencies --   3032.8992              3042.8169              3046.8552
 Red. masses --      1.0353                 1.0554                 1.1007
 Frc consts  --      5.6107                 5.7572                 6.0201
 IR Inten    --     22.6702                39.4068                 9.9325

                     46                     47                     48
                      A                      A                      A
 Frequencies --   3099.8976              3103.1009              3107.2782
 Red. masses --      1.1020                 1.1089                 1.1015
 Frc consts  --      6.2391                 6.2914                 6.2663
 IR Inten    --     36.4439                37.0519                27.3663

                     49                     50                     51
                      A                      A                      A
 Frequencies --   3143.5354              3204.7262              3788.6947
 Red. masses --      1.0928                 1.0947                 1.0660
 Frc consts  --      6.3627                 6.6242                 9.0154
 IR Inten    --     30.4052                 9.8661                17.4871

 - Thermochemistry -
 -------------------
 Temperature   298.150 Kelvin.  Pressure   1.00000 Atm.
 Atom     1 has atomic number  6 and mass  12.00000

 Molecular mass:   126.06808 amu.
 Principal axes and moments of inertia in atomic units:
                           1         2         3
     Eigenvalues --   782.928101160.757191421.12361
           X            0.99986  -0.01516  -0.00674
           Y            0.01515   0.99988  -0.00158
           Z            0.00677   0.00148   0.99998
 This molecule is an asymmetric top.
 Rotational symmetry number  1.
 Warning -- assumption of classical behavior for rotation
           may cause significant error
 Rotational temperatures (Kelvin)      0.11063     0.07462     0.06095
 Rotational constants (GHZ):           2.30512     1.55480     1.26994
 Zero-point vibrational energy     415650.2 (Joules/Mol)
                                   99.34279 (Kcal/Mol)
 Warning -- explicit consideration of  10 degrees of freedom as
           vibrations may cause significant error
 Vibrational temperatures:    107.42   184.97   231.91   355.08   432.27
          (Kelvin)            473.64   540.76   601.89   643.69   808.85
                              900.13   942.85  1050.64  1122.10  1176.32
                             1203.83  1318.38  1338.24  1371.79  1390.17
                             1437.67  1469.28  1503.52  1562.57  1598.96
                             1632.79  1646.53  1684.14  1754.55  1770.84
                             1835.76  1872.11  1902.08  1937.96  1997.18
                             2030.42  2101.83  2126.14  2155.90  2157.36
                             2165.89  4338.41  4363.66  4377.93  4383.74
                             4460.06  4464.66  4470.67  4522.84  4610.88
                             5451.08

 Zero-point correction=                           0.158313 (Hartree/Particle)
 Thermal correction to Energy=                    0.166723
 Thermal correction to Enthalpy=                  0.167667
 Thermal correction to Gibbs Free Energy=         0.125274
 Sum of electronic and zero-point Energies=           -422.955439
 Sum of electronic and thermal Energies=              -422.947029
 Sum of electronic and thermal Enthalpies=            -422.946085
 Sum of electronic and thermal Free Energies=         -422.988478

                     E (Thermal)             CV                S
                      KCal/Mol        Cal/Mol-Kelvin    Cal/Mol-Kelvin
 Total                  104.620             32.484             89.223
 Electronic               0.000              0.000              0.000
 Translational            0.889              2.981             40.409
 Rotational               0.889              2.981             28.648
 Vibrational            102.843             26.522             20.167
 Vibration     1          0.599              1.966              4.027
 Vibration     2          0.611              1.925              2.967
 Vibration     3          0.622              1.890              2.536
 Vibration     4          0.661              1.768              1.753
 Vibration     5          0.693              1.673              1.414
 Vibration     6          0.712              1.617              1.264
 Vibration     7          0.747              1.522              1.056
 Vibration     8          0.781              1.430              0.898
 Vibration     9          0.807              1.367              0.804
 Vibration    10          0.918              1.113              0.520

 Optimization completed.
    -- Stationary point found.
 Normal termination of Gaussian 09 at Tue Jan 28 10:04:28 2020.
