 Gaussian 09, Revision D.01,
 Gaussian 09:  ES64L-G09RevD.01 24-Apr-2013

 -----------------------------
 # b3lyp 6-31G(2df,p) opt Freq
 -----------------------------

 -----
 titel
 -----
 Symbolic Z-matrix:
 Charge =  0 Multiplicity = 1

 SCF Done:  E(RB3LYP) =  -423.198865655     A.U. after   14 cycles
 Optimization completed.
    -- Stationary point found.
 Normal termination of Gaussian 09 at Mon Jan 27 18:37:46 2020.

 ----------------------------------------------------------------------
 #N Geom=AllCheck Guess=TCheck SCRF=Check GenChk RB3LYP/6-31G(2df,p) Fr
 eq
 ----------------------------------------------------------------------

 Structure from the checkpoint file:  "/scratch/puck/g09_331ad6cb-f410-4816-8053-6be1ff429dd4/Gau-76444.chk"
 -----
 titel
 -----
 Charge =  0 Multiplicity = 1

                         Standard orientation:
 ---------------------------------------------------------------------
 Center     Atomic      Atomic             Coordinates (Angstroms)
 Number     Number       Type             X           Y           Z
 ---------------------------------------------------------------------
      1          6           0        2.106291    0.582927   -1.059354
      2          6           0        0.977035    0.236836   -0.103869
      3          6           0        1.268626   -0.876014    0.932508
      4          8           0        0.157632   -1.674673    0.466562
      5          6           0       -0.151112   -0.721042   -0.580501
      6          6           0       -1.481778   -0.030794   -0.254573
      7          8           0       -2.543422   -0.261325   -0.770338
      8          6           0       -1.182191    1.023119    0.813400
      9          6           0        0.256713    1.472256    0.492714
     10          1           0        1.743468    1.189899   -1.895903
     11          1           0        2.886867    1.158425   -0.547860
     12          1           0        2.571780   -0.317644   -1.472292
     13          1           0        2.223067   -1.400130    0.797110
     14          1           0        1.162430   -0.596681    1.988455
     15          1           0       -0.121735   -1.164152   -1.580076
     16          1           0       -1.924595    1.822451    0.800761
     17          1           0       -1.236777    0.533879    1.794009
     18          1           0        0.231989    2.269555   -0.259268
     19          1           0        0.788319    1.868653    1.363321
 ---------------------------------------------------------------------

 SCF Done:  E(RB3LYP) =  -423.198865655     A.U. after    1 cycles

 The electronic state is 1-A.
 Alpha  occ. eigenvalues --  -19.14682 -19.13619 -10.26727 -10.23742 -10.23645
 Alpha  occ. eigenvalues --  -10.21114 -10.19948 -10.19462 -10.19066  -1.05480
 Alpha  occ. eigenvalues --   -1.03913  -0.83633  -0.76267  -0.71304  -0.67547
 Alpha  occ. eigenvalues --   -0.65219  -0.56139  -0.54031  -0.50174  -0.47743
 Alpha  occ. eigenvalues --   -0.46248  -0.44295  -0.43769  -0.42075  -0.41417
 Alpha  occ. eigenvalues --   -0.41089  -0.39485  -0.37912  -0.35144  -0.34313
 Alpha  occ. eigenvalues --   -0.32625  -0.30405  -0.27844  -0.23120
 Alpha virt. eigenvalues --   -0.03053   0.07433   0.08819   0.10582   0.12284
 Alpha virt. eigenvalues --    0.12901   0.13291   0.15276   0.15357   0.15968
 Alpha virt. eigenvalues --    0.16403   0.17144   0.19571   0.20659   0.21318

 Mulliken charges:
               1
     1  C   -0.482583
     2  C    0.272633
     3  C   -0.110680
     4  O   -0.296504
     5  C   -0.012013
     6  C    0.409194
     7  O   -0.307667
     8  C   -0.335815
     9  C   -0.279126
    10  H    0.122805
    11  H    0.122053
    12  H    0.124268
    13  H    0.103617
    14  H    0.101543
    15  H    0.085921
    16  H    0.127270
    17  H    0.139665
    18  H    0.108894
    19  H    0.106524
 Sum of Mulliken charges =   0.00000

 Dipole moment (field-independent basis, Debye):
    X=              3.1588    Y=              2.1563    Z=              0.7487  Tot=              3.8972
 Quadrupole moment (field-independent basis, Debye-Ang):
   XX=            -59.0222   YY=            -55.4533   ZZ=            -51.5180
   XY=             -2.2744   XZ=             -2.6847   YZ=              0.8673

  Exact polarizability:  83.866  -1.589  69.494   2.698   2.411  70.173
 Approx polarizability: 117.852   0.557 102.669  10.748   2.439 106.525

                      1                      2                      3
                      A                      A                      A
 Frequencies --     77.8660               146.7470               206.4132
 Red. masses --      4.9747                 2.4464                 2.7271
 Frc consts  --      0.0178                 0.0310                 0.0685
 IR Inten    --      2.1440                 1.4850                 5.4251

                      4                      5                      6
                      A                      A                      A
 Frequencies --    226.3559               276.5549               337.4864
 Red. masses --      1.1652                 3.0175                 2.2436
 Frc consts  --      0.0352                 0.1360                 0.1506
 IR Inten    --      0.8836                 0.2220                 0.2803

                      7                      8                      9
                      A                      A                      A
 Frequencies --    362.3382               450.6369               520.8777
 Red. masses --      2.3464                 3.7659                 2.3326
 Frc consts  --      0.1815                 0.4506                 0.3729
 IR Inten    --      1.2697                 4.4234                 4.0837

                     10                     11                     12
                      A                      A                      A
 Frequencies --    550.7233               629.3064               675.2760
 Red. masses --      3.8655                 3.2117                 4.3040
 Frc consts  --      0.6908                 0.7494                 1.1563
 IR Inten    --      3.5005                 0.4131                 4.5372

                     13                     14                     15
                      A                      A                      A
 Frequencies --    775.0081               833.9960               873.5121
 Red. masses --      2.7967                 2.4697                 2.5407
 Frc consts  --      0.9897                 1.0121                 1.1422
 IR Inten    --      8.3402                 3.6993                 8.2438

                     16                     17                     18
                      A                      A                      A
 Frequencies --    901.3339               922.4419               964.6531
 Red. masses --      1.7420                 2.1030                 1.5506
 Frc consts  --      0.8338                 1.0543                 0.8501
 IR Inten    --      2.1934                 4.6747                 2.3087

                     19                     20                     21
                      A                      A                      A
 Frequencies --    988.4289              1005.1850              1017.3733
 Red. masses --      2.7007                 2.0158                 4.1177
 Frc consts  --      1.5546                 1.2000                 2.5111
 IR Inten    --      8.6476                 4.8583                50.4581

                     22                     23                     24
                      A                      A                      A
 Frequencies --   1037.6568              1099.5183              1131.7742
 Red. masses --      2.7144                 1.5825                 2.0404
 Frc consts  --      1.7220                 1.1272                 1.5399
 IR Inten    --     23.4521                 2.0619                16.6697

                     25                     26                     27
                      A                      A                      A
 Frequencies --   1156.5845              1180.6797              1201.6935
 Red. masses --      1.2589                 2.6018                 1.6219
 Frc consts  --      0.9922                 2.1369                 1.3800
 IR Inten    --      1.5370                16.9878                 4.4032

                     28                     29                     30
                      A                      A                      A
 Frequencies --   1240.4975              1259.8067              1270.0211
 Red. masses --      2.1592                 1.9131                 1.6249
 Frc consts  --      1.9577                 1.7889                 1.5442
 IR Inten    --      2.0225                 4.5555                 4.0191

                     31                     32                     33
                      A                      A                      A
 Frequencies --   1290.2127              1303.5006              1334.0328
 Red. masses --      1.5618                 1.3807                 1.4631
 Frc consts  --      1.5318                 1.3822                 1.5341
 IR Inten    --      3.8556                 1.9102                 0.8378

                     34                     35                     36
                      A                      A                      A
 Frequencies --   1378.1830              1416.5268              1458.9655
 Red. masses --      1.7976                 1.2414                 1.0844
 Frc consts  --      2.0117                 1.4676                 1.3600
 IR Inten    --      1.4680                 2.3221                 8.9211

                     37                     38                     39
                      A                      A                      A
 Frequencies --   1490.5676              1494.3028              1499.2245
 Red. masses --      1.0724                 1.0542                 1.0674
 Frc consts  --      1.4038                 1.3869                 1.4136
 IR Inten    --      0.5333                 5.3415                 5.3035

                     40                     41                     42
                      A                      A                      A
 Frequencies --   1526.3272              1851.8193              3008.8614
 Red. masses --      1.0970                12.2389                 1.0543
 Frc consts  --      1.5057                24.7281                 5.6238
 IR Inten    --      0.5326               205.7491                64.7689

                     43                     44                     45
                      A                      A                      A
 Frequencies --   3025.4015              3037.5247              3041.6176
 Red. masses --      1.0369                 1.0640                 1.0649
 Frc consts  --      5.5919                 5.7842                 5.8048
 IR Inten    --     18.4712                23.0371                17.1554

                     46                     47                     48
                      A                      A                      A
 Frequencies --   3053.8976              3074.3430              3083.6327
 Red. masses --      1.1109                 1.0884                 1.1019
 Frc consts  --      6.1042                 6.0611                 6.1732
 IR Inten    --     36.7066                27.8157                14.3201

                     49                     50                     51
                      A                      A                      A
 Frequencies --   3090.5548              3101.8939              3125.3289
 Red. masses --      1.1002                 1.1017                 1.0961
 Frc consts  --      6.1916                 6.2452                 6.3080
 IR Inten    --     29.3828                24.1760                11.8037

 - Thermochemistry -
 -------------------
 Temperature   298.150 Kelvin.  Pressure   1.00000 Atm.
 Atom     1 has atomic number  6 and mass  12.00000

 Molecular mass:   126.06808 amu.
 Principal axes and moments of inertia in atomic units:
                           1         2         3
     Eigenvalues --   696.088201191.561321377.35356
           X            0.99931  -0.00477  -0.03690
           Y            0.00587   0.99954   0.02977
           Z            0.03675  -0.02996   0.99888
 This molecule is an asymmetric top.
 Rotational symmetry number  1.
 Warning -- assumption of classical behavior for rotation
           may cause significant error
 Rotational temperatures (Kelvin)      0.12443     0.07269     0.06288
 Rotational constants (GHZ):           2.59269     1.51460     1.31030
 Zero-point vibrational energy     418737.6 (Joules/Mol)
                                  100.08069 (Kcal/Mol)
 Warning -- explicit consideration of  10 degrees of freedom as
           vibrations may cause significant error
 Vibrational temperatures:    112.03   211.14   296.98   325.68   397.90
          (Kelvin)            485.57   521.32   648.37   749.43   792.37
                              905.43   971.57  1115.06  1199.93  1256.79
                             1296.82  1327.19  1387.92  1422.13  1446.24
                             1463.77  1492.95  1581.96  1628.37  1664.07
                             1698.73  1728.97  1784.80  1812.58  1827.27
                             1856.33  1875.44  1919.37  1982.90  2038.06
                             2099.12  2144.59  2149.97  2157.05  2196.04
                             2664.35  4329.08  4352.87  4370.32  4376.20
                             4393.87  4423.29  4436.65  4446.61  4462.93
                             4496.65

 Zero-point correction=                           0.159489 (Hartree/Particle)
 Thermal correction to Energy=                    0.167639
 Thermal correction to Enthalpy=                  0.168583
 Thermal correction to Gibbs Free Energy=         0.126783
 Sum of electronic and zero-point Energies=           -423.039377
 Sum of electronic and thermal Energies=              -423.031227
 Sum of electronic and thermal Enthalpies=            -423.030283
 Sum of electronic and thermal Free Energies=         -423.072083

                     E (Thermal)             CV                S
                      KCal/Mol        Cal/Mol-Kelvin    Cal/Mol-Kelvin
 Total                  105.195             31.305             87.976
 Electronic               0.000              0.000              0.000
 Translational            0.889              2.981             40.409
 Rotational               0.889              2.981             28.526
 Vibrational            103.418             25.343             19.041
 Vibration     1          0.599              1.964              3.944
 Vibration     2          0.617              1.906              2.714
 Vibration     3          0.641              1.831              2.075
 Vibration     4          0.650              1.801              1.908
 Vibration     5          0.678              1.717              1.555
 Vibration     6          0.718              1.601              1.224
 Vibration     7          0.736              1.550              1.112
 Vibration     8          0.809              1.359              0.794
 Vibration     9          0.876              1.204              0.608
 Vibration    10          0.906              1.138              0.543

 Optimization completed.
    -- Stationary point found.
 Normal termination of Gaussian 09 at Mon Jan 27 19:34:13 2020.
