 Gaussian 09, Revision D.01,
 Gaussian 09:  ES64L-G09RevD.01 24-Apr-2013

 -----------------------------
 # b3lyp 6-31G(2df,p) opt Freq
 -----------------------------

 -----
 titel
 -----
 Symbolic Z-matrix:
 Charge =  0 Multiplicity = 1

 SCF Done:  E(RB3LYP) =  -423.130673883     A.U. after   12 cycles
 Optimization completed.
    -- Stationary point found.
 Normal termination of Gaussian 09 at Tue Jan 28 08:13:44 2020.

 ----------------------------------------------------------------------
 #N Geom=AllCheck Guess=TCheck SCRF=Check GenChk RB3LYP/6-31G(2df,p) Fr
 eq
 ----------------------------------------------------------------------

 Structure from the checkpoint file:  "/scratch/puck/g09_c00f102b-60c9-456d-aed2-4f246cdb49d0/Gau-106313.chk"
 -----
 titel
 -----
 Charge =  0 Multiplicity = 1

                         Standard orientation:
 ---------------------------------------------------------------------
 Center     Atomic      Atomic             Coordinates (Angstroms)
 Number     Number       Type             X           Y           Z
 ---------------------------------------------------------------------
      1          6           0       -2.013084    1.196576   -0.195949
      2          6           0       -1.228518    0.153047    0.595660
      3          8           0       -1.321302   -1.158367   -0.027255
      4          6           0       -0.195569   -1.373858   -0.890552
      5          6           0        0.915166   -0.599508   -0.229821
      6          6           0        1.154452   -0.679598    1.239537
      7          6           0        0.262717    0.415712    0.681785
      8          6           0        1.127564    1.420875   -0.095144
      9          8           0        1.748740    0.363919   -0.886495
     10          1           0       -1.624304    1.309012   -1.212761
     11          1           0       -3.059597    0.890087   -0.267047
     12          1           0       -1.971760    2.173560    0.297258
     13          1           0       -1.692581    0.022364    1.579675
     14          1           0       -0.054460   -2.456912   -0.951782
     15          1           0       -0.355964   -0.978944   -1.904681
     16          1           0        0.638502   -1.474506    1.766828
     17          1           0        2.135239   -0.418316    1.622792
     18          1           0        0.560366    2.103831   -0.734686
     19          1           0        1.868691    1.985936    0.481311
 ---------------------------------------------------------------------

 SCF Done:  E(RB3LYP) =  -423.130673883     A.U. after    1 cycles

 The electronic state is 1-A.
 Alpha  occ. eigenvalues --  -19.14442 -19.13879 -10.24418 -10.24168 -10.24007
 Alpha  occ. eigenvalues --  -10.23446 -10.19930 -10.19592 -10.18133  -1.06122
 Alpha  occ. eigenvalues --   -1.02440  -0.84516  -0.77284  -0.70692  -0.68501
 Alpha  occ. eigenvalues --   -0.63726  -0.58095  -0.52323  -0.51500  -0.49289
 Alpha  occ. eigenvalues --   -0.46790  -0.45171  -0.42889  -0.42232  -0.41387
 Alpha  occ. eigenvalues --   -0.40098  -0.39206  -0.37197  -0.35114  -0.32021
 Alpha  occ. eigenvalues --   -0.31713  -0.26701  -0.25946  -0.23337
 Alpha virt. eigenvalues --    0.05285   0.08559   0.09704   0.11831   0.12683
 Alpha virt. eigenvalues --    0.13236   0.14072   0.14283   0.15791   0.16842
 Alpha virt. eigenvalues --    0.17104   0.17960   0.18899   0.19818   0.21153

 Mulliken charges:
               1
     1  C   -0.406846
     2  C    0.057496
     3  O   -0.281247
     4  C   -0.161551
     5  C    0.356471
     6  C   -0.376417
     7  C    0.122138
     8  C   -0.144968
     9  O   -0.322643
    10  H    0.124570
    11  H    0.128773
    12  H    0.117698
    13  H    0.087167
    14  H    0.113940
    15  H    0.104975
    16  H    0.135239
    17  H    0.122276
    18  H    0.113425
    19  H    0.109505
 Sum of Mulliken charges =   0.00000

 Dipole moment (field-independent basis, Debye):
    X=             -0.3998    Y=              1.0153    Z=              0.8117  Tot=              1.3599
 Quadrupole moment (field-independent basis, Debye-Ang):
   XX=            -57.0031   YY=            -51.0570   ZZ=            -52.9278
   XY=             -2.3194   XZ=              2.6661   YZ=              0.5906

  Exact polarizability:  75.275  -1.141  76.708   2.197   0.059  68.261
 Approx polarizability: 105.920  -0.986 113.611  -3.116   2.772 107.374

                      1                      2                      3
                      A                      A                      A
 Frequencies --    128.8033               199.7269               228.2357
 Red. masses --      3.3495                 3.0582                 1.0859
 Frc consts  --      0.0327                 0.0719                 0.0333
 IR Inten    --      0.4820                 5.7389                 0.4049

                      4                      5                      6
                      A                      A                      A
 Frequencies --    288.0360               351.5058               379.1960
 Red. masses --      1.9457                 3.3122                 2.6930
 Frc consts  --      0.0951                 0.2411                 0.2281
 IR Inten    --      1.2421                 6.5868                 4.7932

                      7                      8                      9
                      A                      A                      A
 Frequencies --    418.1191               466.2296               551.9149
 Red. masses --      2.4567                 3.1686                 3.8721
 Frc consts  --      0.2531                 0.4058                 0.6949
 IR Inten    --      1.3255                 2.6918                10.5372

                     10                     11                     12
                      A                      A                      A
 Frequencies --    630.7693               672.6699               763.0902
 Red. masses --      4.1706                 3.5914                 3.2685
 Frc consts  --      0.9777                 0.9574                 1.1214
 IR Inten    --      0.8730                 0.8092                 5.9201

                     13                     14                     15
                      A                      A                      A
 Frequencies --    792.0695               836.2794               854.9424
 Red. masses --      2.9703                 3.2167                 4.2821
 Frc consts  --      1.0979                 1.3255                 1.8441
 IR Inten    --      2.5836                30.9281                12.9893

                     16                     17                     18
                      A                      A                      A
 Frequencies --    918.6849               949.8021               970.4488
 Red. masses --      1.7944                 1.8131                 2.3418
 Frc consts  --      0.8923                 0.9637                 1.2994
 IR Inten    --     16.3402                 6.6910                22.8686

                     19                     20                     21
                      A                      A                      A
 Frequencies --    977.0944               988.8344              1023.7680
 Red. masses --      2.8339                 3.3424                 1.9891
 Frc consts  --      1.5941                 1.9256                 1.2283
 IR Inten    --     17.4077                12.3595                12.4965

                     22                     23                     24
                      A                      A                      A
 Frequencies --   1054.0924              1065.9725              1076.9662
 Red. masses --      1.7344                 1.7465                 1.9512
 Frc consts  --      1.1354                 1.1692                 1.3334
 IR Inten    --     15.0865                44.6872                28.9540

                     25                     26                     27
                      A                      A                      A
 Frequencies --   1109.6162              1153.3853              1168.8597
 Red. masses --      2.2308                 1.2625                 2.0033
 Frc consts  --      1.6183                 0.9895                 1.6126
 IR Inten    --      8.5391                 6.5246                15.5701

                     28                     29                     30
                      A                      A                      A
 Frequencies --   1209.4610              1239.9704              1296.3244
 Red. masses --      1.7671                 1.4873                 1.9825
 Frc consts  --      1.5229                 1.3473                 1.9629
 IR Inten    --      6.0014                20.3159                 4.7763

                     31                     32                     33
                      A                      A                      A
 Frequencies --   1318.1868              1334.5553              1364.3451
 Red. masses --      1.3287                 2.4114                 1.6867
 Frc consts  --      1.3603                 2.5304                 1.8498
 IR Inten    --      6.6912                10.8998                 5.4451

                     34                     35                     36
                      A                      A                      A
 Frequencies --   1371.0246              1387.3718              1404.8203
 Red. masses --      1.5896                 1.5226                 1.3035
 Frc consts  --      1.7605                 1.7267                 1.5157
 IR Inten    --      4.0235                 6.3975                10.8967

                     37                     38                     39
                      A                      A                      A
 Frequencies --   1465.5905              1486.7262              1493.8270
 Red. masses --      1.4358                 1.0575                 1.0548
 Frc consts  --      1.8171                 1.3772                 1.3868
 IR Inten    --      8.0094                 2.2273                 1.9964

                     40                     41                     42
                      A                      A                      A
 Frequencies --   1514.8642              1519.5329              2999.8411
 Red. masses --      1.0887                 1.0998                 1.0670
 Frc consts  --      1.4720                 1.4962                 5.6575
 IR Inten    --      0.5372                 1.7775                53.4569

                     43                     44                     45
                      A                      A                      A
 Frequencies --   3031.4670              3038.9434              3041.6202
 Red. masses --      1.0552                 1.0378                 1.0852
 Frc consts  --      5.7133                 5.6470                 5.9154
 IR Inten    --     54.7171                24.4926                30.6107

                     46                     47                     48
                      A                      A                      A
 Frequencies --   3081.8515              3086.8315              3108.0516
 Red. masses --      1.0961                 1.1096                 1.1010
 Frc consts  --      6.1338                 6.2293                 6.2663
 IR Inten    --     33.3921                33.6395                25.5444

                     49                     50                     51
                      A                      A                      A
 Frequencies --   3123.4503              3131.8377              3228.1817
 Red. masses --      1.1014                 1.0543                 1.1180
 Frc consts  --      6.3310                 6.0930                 6.8642
 IR Inten    --     20.7089                 7.7734                 2.8393

 - Thermochemistry -
 -------------------
 Temperature   298.150 Kelvin.  Pressure   1.00000 Atm.
 Atom     1 has atomic number  6 and mass  12.00000

 Molecular mass:   126.06808 amu.
 Principal axes and moments of inertia in atomic units:
                           1         2         3
     Eigenvalues --   682.945081004.018461210.79136
           X            0.99740  -0.06214   0.03641
           Y            0.06280   0.99788  -0.01715
           Z           -0.03527   0.01939   0.99919
 This molecule is an asymmetric top.
 Rotational symmetry number  1.
 Warning -- assumption of classical behavior for rotation
           may cause significant error
 Rotational temperatures (Kelvin)      0.12682     0.08627     0.07153
 Rotational constants (GHZ):           2.64259     1.79752     1.49055
 Zero-point vibrational energy     420474.2 (Joules/Mol)
                                  100.49573 (Kcal/Mol)
 Warning -- explicit consideration of   9 degrees of freedom as
           vibrations may cause significant error
 Vibrational temperatures:    185.32   287.36   328.38   414.42   505.74
          (Kelvin)            545.58   601.58   670.80   794.08   907.54
                              967.82  1097.92  1139.61  1203.22  1230.07
                             1321.78  1366.55  1396.26  1405.82  1422.71
                             1472.97  1516.60  1533.69  1549.51  1596.49
                             1659.46  1681.73  1740.14  1784.04  1865.12
                             1896.57  1920.12  1962.99  1972.60  1996.12
                             2021.22  2108.66  2139.06  2149.28  2179.55
                             2186.27  4316.10  4361.60  4372.36  4376.21
                             4434.09  4441.26  4471.79  4493.94  4506.01
                             4644.63

 Zero-point correction=                           0.160150 (Hartree/Particle)
 Thermal correction to Energy=                    0.167686
 Thermal correction to Enthalpy=                  0.168630
 Thermal correction to Gibbs Free Energy=         0.128567
 Sum of electronic and zero-point Energies=           -422.970524
 Sum of electronic and thermal Energies=              -422.962988
 Sum of electronic and thermal Enthalpies=            -422.962044
 Sum of electronic and thermal Free Energies=         -423.002107

                     E (Thermal)             CV                S
                      KCal/Mol        Cal/Mol-Kelvin    Cal/Mol-Kelvin
 Total                  105.225             30.349             84.320
 Electronic               0.000              0.000              0.000
 Translational            0.889              2.981             40.409
 Rotational               0.889              2.981             28.209
 Vibrational            103.447             24.387             15.703
 Vibration     1          0.611              1.924              2.964
 Vibration     2          0.638              1.840              2.136
 Vibration     3          0.651              1.798              1.893
 Vibration     4          0.685              1.696              1.485
 Vibration     5          0.728              1.572              1.159
 Vibration     6          0.749              1.515              1.042
 Vibration     7          0.781              1.431              0.898
 Vibration     8          0.824              1.325              0.748
 Vibration     9          0.907              1.135              0.540

 Optimization completed.
    -- Stationary point found.
 Normal termination of Gaussian 09 at Tue Jan 28 09:06:51 2020.
