 Gaussian 09, Revision D.01,
 Gaussian 09:  ES64L-G09RevD.01 24-Apr-2013

 -----------------------------
 # b3lyp 6-31G(2df,p) opt Freq
 -----------------------------

 -----
 titel
 -----
 Symbolic Z-matrix:
 Charge =  0 Multiplicity = 1

 SCF Done:  E(RB3LYP) =  -423.185646247     A.U. after   13 cycles
 Optimization completed.
    -- Stationary point found.
 Normal termination of Gaussian 09 at Mon Jan 27 12:26:51 2020.

 ----------------------------------------------------------------------
 #N Geom=AllCheck Guess=TCheck SCRF=Check GenChk RB3LYP/6-31G(2df,p) Fr
 eq
 ----------------------------------------------------------------------

 Structure from the checkpoint file:  "/scratch/puck/g09_1699e108-f11b-4864-ac3e-e146420f645c/Gau-134040.chk"
 -----
 titel
 -----
 Charge =  0 Multiplicity = 1

                         Standard orientation:
 ---------------------------------------------------------------------
 Center     Atomic      Atomic             Coordinates (Angstroms)
 Number     Number       Type             X           Y           Z
 ---------------------------------------------------------------------
      1          6           0        0.417067    1.541438   -0.797869
      2          6           0        1.577211    0.637742   -0.311504
      3          6           0        1.107704   -0.628046    0.419114
      4          8           0        0.479025   -1.584215   -0.396938
      5          6           0       -0.759601   -1.187292   -0.988338
      6          6           0       -1.509993   -0.127457   -0.201131
      7          6           0       -0.893845    1.265719   -0.076714
      8          6           0       -0.907422    0.327286    1.100215
      9          8           0        0.287925   -0.272324    1.519926
     10          1           0        0.695016    2.589349   -0.650276
     11          1           0        0.268816    1.420102   -1.877806
     12          1           0        2.225341    0.347167   -1.143222
     13          1           0        2.197329    1.185320    0.405170
     14          1           0        1.963581   -1.151750    0.851636
     15          1           0       -0.582422   -0.850261   -2.022323
     16          1           0       -1.362179   -2.099401   -1.045072
     17          1           0       -2.590887   -0.189735   -0.273105
     18          1           0       -1.595266    2.093725   -0.046694
     19          1           0       -1.541653    0.531461    1.955147
 ---------------------------------------------------------------------

 SCF Done:  E(RB3LYP) =  -423.185646247     A.U. after    1 cycles

 The electronic state is 1-A.
 Alpha  occ. eigenvalues --  -19.14214 -19.13735 -10.27302 -10.23544 -10.23216
 Alpha  occ. eigenvalues --  -10.18990 -10.18920 -10.18883 -10.18219  -1.07123
 Alpha  occ. eigenvalues --   -1.00178  -0.85947  -0.78422  -0.70506  -0.68029
 Alpha  occ. eigenvalues --   -0.63603  -0.56346  -0.53901  -0.51721  -0.49036
 Alpha  occ. eigenvalues --   -0.46505  -0.44766  -0.43665  -0.42698  -0.42118
 Alpha  occ. eigenvalues --   -0.39837  -0.36612  -0.35842  -0.33837  -0.33223
 Alpha  occ. eigenvalues --   -0.30922  -0.27914  -0.24942  -0.22949
 Alpha virt. eigenvalues --    0.07018   0.09880   0.11354   0.12266   0.13244
 Alpha virt. eigenvalues --    0.14182   0.14993   0.15645   0.15917   0.17193
 Alpha virt. eigenvalues --    0.18780   0.19534   0.21048   0.22341   0.24058

 Mulliken charges:
               1
     1  C   -0.239658
     2  C   -0.230688
     3  C    0.167739
     4  O   -0.261824
     5  C   -0.083790
     6  C   -0.125390
     7  C   -0.086797
     8  C    0.104626
     9  O   -0.252333
    10  H    0.105075
    11  H    0.106531
    12  H    0.106908
    13  H    0.112232
    14  H    0.094236
    15  H    0.094581
    16  H    0.114171
    17  H    0.089207
    18  H    0.083973
    19  H    0.101202
 Sum of Mulliken charges =   0.00000

 Dipole moment (field-independent basis, Debye):
    X=             -0.7904    Y=              1.5063    Z=             -1.0400  Tot=              1.9939
 Quadrupole moment (field-independent basis, Debye-Ang):
   XX=            -48.6916   YY=            -54.6078   ZZ=            -54.7698
   XY=              0.9428   XZ=             -0.2396   YZ=              0.5616

  Exact polarizability:  76.763   0.978  72.162   0.696   0.854  67.856
 Approx polarizability: 106.505  -0.002 104.659   3.096   1.322 105.183

                      1                      2                      3
                      A                      A                      A
 Frequencies --     98.6127               205.9812               358.1650
 Red. masses --      2.3296                 2.0113                 3.2393
 Frc consts  --      0.0133                 0.0503                 0.2448
 IR Inten    --      1.9248                 1.0491                 1.1633

                      4                      5                      6
                      A                      A                      A
 Frequencies --    362.6500               455.4834               489.7187
 Red. masses --      3.9323                 3.0136                 5.7561
 Frc consts  --      0.3047                 0.3684                 0.8133
 IR Inten    --      2.4257                 4.1088                 5.2111

                      7                      8                      9
                      A                      A                      A
 Frequencies --    538.4179               607.5571               738.0830
 Red. masses --      6.4427                 5.1020                 2.1414
 Frc consts  --      1.1004                 1.1096                 0.6873
 IR Inten    --      3.5319                 0.3206                 3.7849

                     10                     11                     12
                      A                      A                      A
 Frequencies --    752.5483               762.0077               781.7104
 Red. masses --      2.6107                 2.2979                 5.3293
 Frc consts  --      0.8711                 0.7862                 1.9187
 IR Inten    --     10.5972                 9.3452                 7.8749

                     13                     14                     15
                      A                      A                      A
 Frequencies --    844.5848               878.1065               885.1996
 Red. masses --      2.0504                 2.8083                 2.4416
 Frc consts  --      0.8618                 1.2758                 1.1272
 IR Inten    --      8.5952                17.5552                 7.4542

                     16                     17                     18
                      A                      A                      A
 Frequencies --    912.7283               947.2985              1008.6942
 Red. masses --      2.4490                 2.1078                 2.7286
 Frc consts  --      1.2020                 1.1144                 1.6357
 IR Inten    --     18.1411                11.2757                28.3584

                     19                     20                     21
                      A                      A                      A
 Frequencies --   1037.2279              1044.2683              1063.1234
 Red. masses --      1.9459                 2.2293                 2.4761
 Frc consts  --      1.2334                 1.4323                 1.6488
 IR Inten    --     16.8563                29.6088                31.6014

                     22                     23                     24
                      A                      A                      A
 Frequencies --   1081.5103              1109.9087              1128.6571
 Red. masses --      2.1380                 1.4599                 1.7123
 Frc consts  --      1.4734                 1.0596                 1.2852
 IR Inten    --      8.8124                 2.1476                 9.1696

                     25                     26                     27
                      A                      A                      A
 Frequencies --   1132.8068              1181.8944              1219.7522
 Red. masses --      2.1009                 2.0989                 2.1777
 Frc consts  --      1.5884                 1.7274                 1.9089
 IR Inten    --      8.2408                68.6470                80.7332

                     28                     29                     30
                      A                      A                      A
 Frequencies --   1238.7619              1266.0255              1273.8658
 Red. masses --      1.2230                 1.4009                 1.0998
 Frc consts  --      1.1057                 1.3229                 1.0515
 IR Inten    --     14.2276                 6.8851                 3.4327

                     31                     32                     33
                      A                      A                      A
 Frequencies --   1325.1065              1343.4904              1355.2445
 Red. masses --      1.2668                 1.3458                 1.5275
 Frc consts  --      1.3106                 1.4312                 1.6529
 IR Inten    --      1.9355                 1.5156                 4.5124

                     34                     35                     36
                      A                      A                      A
 Frequencies --   1374.2902              1382.9553              1396.3480
 Red. masses --      1.6774                 1.3668                 1.3706
 Frc consts  --      1.8665                 1.5401                 1.5745
 IR Inten    --     13.3285                 5.4079                 2.7258

                     37                     38                     39
                      A                      A                      A
 Frequencies --   1421.7012              1455.6528              1476.4395
 Red. masses --      1.3369                 2.0824                 1.0994
 Frc consts  --      1.5921                 2.5997                 1.4120
 IR Inten    --     17.6501                24.2259                 1.8671

                     40                     41                     42
                      A                      A                      A
 Frequencies --   1499.0067              1519.8950              2968.3724
 Red. masses --      1.0930                 1.0861                 1.0725
 Frc consts  --      1.4471                 1.4783                 5.5678
 IR Inten    --      3.2607                 3.6494                64.8087

                     43                     44                     45
                      A                      A                      A
 Frequencies --   3027.8815              3049.6346              3064.6690
 Red. masses --      1.0661                 1.0650                 1.0903
 Frc consts  --      5.7587                 5.8355                 6.0336
 IR Inten    --     34.7338                12.9822                41.2161

                     46                     47                     48
                      A                      A                      A
 Frequencies --   3070.4788              3089.5149              3098.6132
 Red. masses --      1.0927                 1.0884                 1.1045
 Frc consts  --      6.0695                 6.1210                 6.2479
 IR Inten    --     16.8513                47.2081                26.9017

                     49                     50                     51
                      A                      A                      A
 Frequencies --   3148.4514              3157.7089              3178.7026
 Red. masses --      1.0883                 1.0890                 1.0926
 Frc consts  --      6.3560                 6.3975                 6.5044
 IR Inten    --     13.0236                14.1633                28.4832

 - Thermochemistry -
 -------------------
 Temperature   298.150 Kelvin.  Pressure   1.00000 Atm.
 Atom     1 has atomic number  6 and mass  12.00000

 Molecular mass:   126.06808 amu.
 Principal axes and moments of inertia in atomic units:
                           1         2         3
     Eigenvalues --   802.35288 829.64197 972.03262
           X           -0.42519   0.90499  -0.01419
           Y            0.90510   0.42507  -0.01074
           Z            0.00369   0.01741   0.99984
 This molecule is an asymmetric top.
 Rotational symmetry number  1.
 Warning -- assumption of classical behavior for rotation
           may cause significant error
 Rotational temperatures (Kelvin)      0.10795     0.10440     0.08911
 Rotational constants (GHZ):           2.24931     2.17533     1.85667
 Zero-point vibrational energy     429516.2 (Joules/Mol)
                                  102.65684 (Kcal/Mol)
 Warning -- explicit consideration of   8 degrees of freedom as
           vibrations may cause significant error
 Vibrational temperatures:    141.88   296.36   515.32   521.77   655.34
          (Kelvin)            704.60   774.66   874.14  1061.94  1082.75
                             1096.36  1124.71  1215.17  1263.40  1273.60
                             1313.21  1362.95  1451.28  1492.34  1502.47
                             1529.60  1556.05  1596.91  1623.88  1629.85
                             1700.48  1754.95  1782.30  1821.53  1832.81
                             1906.53  1932.98  1949.89  1977.29  1989.76
                             2009.03  2045.51  2094.36  2124.26  2156.73
                             2186.79  4270.82  4356.44  4387.74  4409.37
                             4417.73  4445.12  4458.21  4529.91  4543.23
                             4573.44

 Zero-point correction=                           0.163594 (Hartree/Particle)
 Thermal correction to Energy=                    0.170279
 Thermal correction to Enthalpy=                  0.171223
 Thermal correction to Gibbs Free Energy=         0.132608
 Sum of electronic and zero-point Energies=           -423.022052
 Sum of electronic and thermal Energies=              -423.015367
 Sum of electronic and thermal Enthalpies=            -423.014423
 Sum of electronic and thermal Free Energies=         -423.053038

                     E (Thermal)             CV                S
                      KCal/Mol        Cal/Mol-Kelvin    Cal/Mol-Kelvin
 Total                  106.852             27.573             81.271
 Electronic               0.000              0.000              0.000
 Translational            0.889              2.981             40.409
 Rotational               0.889              2.981             27.961
 Vibrational            105.074             21.612             12.901
 Vibration     1          0.604              1.950              3.482
 Vibration     2          0.640              1.831              2.079
 Vibration     3          0.733              1.558              1.130
 Vibration     4          0.737              1.549              1.111
 Vibration     5          0.814              1.349              0.779
 Vibration     6          0.846              1.273              0.684
 Vibration     7          0.893              1.165              0.569
 Vibration     8          0.966              1.016              0.437

 Optimization completed.
    -- Stationary point found.
 Normal termination of Gaussian 09 at Mon Jan 27 13:30:33 2020.
