 Gaussian 09, Revision D.01,
 Gaussian 09:  ES64L-G09RevD.01 24-Apr-2013

 -----------------------------
 # b3lyp 6-31G(2df,p) opt Freq
 -----------------------------

 -----
 titel
 -----
 Symbolic Z-matrix:
 Charge =  0 Multiplicity = 1

 SCF Done:  E(RB3LYP) =  -423.187172702     A.U. after   14 cycles
 Optimization completed.
    -- Stationary point found.
 Normal termination of Gaussian 09 at Tue Jan 28 08:13:30 2020.

 ----------------------------------------------------------------------
 #N Geom=AllCheck Guess=TCheck SCRF=Check GenChk RB3LYP/6-31G(2df,p) Fr
 eq
 ----------------------------------------------------------------------

 Structure from the checkpoint file:  "/scratch/puck/g09_02e996d5-0b15-4f44-a6af-758bb337d0f8/Gau-106387.chk"
 -----
 titel
 -----
 Charge =  0 Multiplicity = 1

                         Standard orientation:
 ---------------------------------------------------------------------
 Center     Atomic      Atomic             Coordinates (Angstroms)
 Number     Number       Type             X           Y           Z
 ---------------------------------------------------------------------
      1          6           0       -2.215119   -1.283547    0.518335
      2          6           0       -1.402708   -0.399158   -0.426962
      3          8           0       -1.745797    0.985875   -0.210310
      4          6           0       -0.583427    1.782546    0.048860
      5          6           0        0.536502    0.793279    0.056284
      6          6           0        0.080389   -0.420737   -0.215091
      7          6           0        1.204871   -1.405069   -0.236104
      8          8           0        2.364499   -0.616800    0.068503
      9          6           0        2.017393    0.762860    0.253763
     10          1           0       -1.962836   -1.064893    1.559958
     11          1           0       -3.283426   -1.102038    0.373043
     12          1           0       -2.016152   -2.342616    0.322120
     13          1           0       -1.662247   -0.661973   -1.466363
     14          1           0       -0.471202    2.549065   -0.734595
     15          1           0       -0.707492    2.312981    1.004975
     16          1           0        1.098494   -2.205418    0.512235
     17          1           0        1.334967   -1.891465   -1.215666
     18          1           0        2.328992    1.089434    1.257982
     19          1           0        2.563885    1.383271   -0.473749
 ---------------------------------------------------------------------

 SCF Done:  E(RB3LYP) =  -423.187172702     A.U. after    1 cycles

 The electronic state is 1-A.
 Alpha  occ. eigenvalues --  -19.13644 -19.13486 -10.24227 -10.23807 -10.23776
 Alpha  occ. eigenvalues --  -10.23770 -10.18666 -10.18434 -10.17811  -1.03525
 Alpha  occ. eigenvalues --   -1.02626  -0.80693  -0.77480  -0.73315  -0.67867
 Alpha  occ. eigenvalues --   -0.63319  -0.58416  -0.54302  -0.50964  -0.48844
 Alpha  occ. eigenvalues --   -0.46296  -0.44813  -0.43379  -0.41635  -0.40783
 Alpha  occ. eigenvalues --   -0.38993  -0.37883  -0.37591  -0.35790  -0.34679
 Alpha  occ. eigenvalues --   -0.30086  -0.27727  -0.24927  -0.22773
 Alpha virt. eigenvalues --    0.01921   0.09148   0.10204   0.11451   0.12777
 Alpha virt. eigenvalues --    0.13276   0.13884   0.14980   0.15237   0.16578
 Alpha virt. eigenvalues --    0.17224   0.17763   0.18573   0.18849   0.22739

 Mulliken charges:
               1
     1  C   -0.390794
     2  C    0.014035
     3  O   -0.289494
     4  C   -0.191671
     5  C    0.189703
     6  C    0.215613
     7  C   -0.188469
     8  O   -0.275182
     9  C   -0.182382
    10  H    0.120070
    11  H    0.128940
    12  H    0.113197
    13  H    0.083583
    14  H    0.107271
    15  H    0.109756
    16  H    0.110090
    17  H    0.108068
    18  H    0.109135
    19  H    0.108529
 Sum of Mulliken charges =   0.00000

 Dipole moment (field-independent basis, Debye):
    X=             -0.1807    Y=             -0.0333    Z=             -0.0001  Tot=              0.1837
 Quadrupole moment (field-independent basis, Debye-Ang):
   XX=            -60.5224   YY=            -49.5196   ZZ=            -52.2632
   XY=              5.3549   XZ=             -0.2578   YZ=              1.2916

  Exact polarizability:  81.949   7.717  90.798   1.468   4.199  60.789
 Approx polarizability: 109.438  11.960 137.813   4.390   9.687  92.712

                      1                      2                      3
                      A                      A                      A
 Frequencies --     87.3245               119.8020               147.5281
 Red. masses --      3.0577                 3.5202                 2.5401
 Frc consts  --      0.0137                 0.0298                 0.0326
 IR Inten    --      4.4049                 6.3152                 0.2768

                      4                      5                      6
                      A                      A                      A
 Frequencies --    200.3648               235.6977               276.1302
 Red. masses --      2.0739                 1.1713                 2.4259
 Frc consts  --      0.0491                 0.0383                 0.1090
 IR Inten    --      1.5793                 0.1741                 0.1045

                      7                      8                      9
                      A                      A                      A
 Frequencies --    394.9752               423.1264               535.5563
 Red. masses --      2.9468                 3.1921                 4.4827
 Frc consts  --      0.2709                 0.3367                 0.7575
 IR Inten    --      1.6164                 3.3720                 0.3391

                     10                     11                     12
                      A                      A                      A
 Frequencies --    559.9319               682.2505               769.7363
 Red. masses --      4.0281                 3.6627                 3.9376
 Frc consts  --      0.7441                 1.0045                 1.3746
 IR Inten    --      0.8059                 0.3019                 8.1411

                     13                     14                     15
                      A                      A                      A
 Frequencies --    838.2707               865.9818               906.3000
 Red. masses --      4.0628                 2.9983                 4.6080
 Frc consts  --      1.6821                 1.3248                 2.2300
 IR Inten    --     30.4025                 5.5078                14.8291

                     16                     17                     18
                      A                      A                      A
 Frequencies --    965.8455               987.0116              1020.3299
 Red. masses --      1.4576                 3.0876                 3.1843
 Frc consts  --      0.8011                 1.7722                 1.9532
 IR Inten    --      1.3732                 5.1057                41.2058

                     19                     20                     21
                      A                      A                      A
 Frequencies --   1036.8363              1056.0661              1069.7000
 Red. masses --      1.7817                 5.0159                 1.7063
 Frc consts  --      1.1285                 3.2960                 1.1504
 IR Inten    --     16.0236                10.8005                 7.9558

                     22                     23                     24
                      A                      A                      A
 Frequencies --   1088.9481              1105.6260              1119.9955
 Red. masses --      2.1491                 3.4629                 2.4939
 Frc consts  --      1.5015                 2.4941                 1.8431
 IR Inten    --     39.4557                70.1740                11.5664

                     25                     26                     27
                      A                      A                      A
 Frequencies --   1160.0133              1198.6907              1219.3663
 Red. masses --      1.1151                 1.1034                 1.0833
 Frc consts  --      0.8841                 0.9341                 0.9490
 IR Inten    --      1.0817                 2.5295                 0.2265

                     28                     29                     30
                      A                      A                      A
 Frequencies --   1236.1096              1256.5628              1321.4589
 Red. masses --      2.0818                 1.7129                 1.3072
 Frc consts  --      1.8741                 1.5935                 1.3449
 IR Inten    --      1.1417                 0.3853                 6.9981

                     31                     32                     33
                      A                      A                      A
 Frequencies --   1367.9596              1383.2152              1398.6567
 Red. masses --      1.2767                 1.6170                 1.3319
 Frc consts  --      1.4076                 1.8228                 1.5351
 IR Inten    --     16.2145                12.4148                 6.9929

                     34                     35                     36
                      A                      A                      A
 Frequencies --   1401.9161              1412.2128              1485.6021
 Red. masses --      1.8334                 2.3637                 1.0619
 Frc consts  --      2.1230                 2.7774                 1.3808
 IR Inten    --     25.5883                 3.2121                 1.8476

                     37                     38                     39
                      A                      A                      A
 Frequencies --   1496.0675              1517.1816              1523.5351
 Red. masses --      1.0546                 1.0822                 1.0814
 Frc consts  --      1.3907                 1.4677                 1.4790
 IR Inten    --      1.9903                 1.7353                 2.8701

                     40                     41                     42
                      A                      A                      A
 Frequencies --   1528.9035              1747.9613              2955.0408
 Red. masses --      1.0908                 9.0382                 1.0815
 Frc consts  --      1.5023                16.2704                 5.5640
 IR Inten    --      0.2224                 0.1614                52.6937

                     43                     44                     45
                      A                      A                      A
 Frequencies --   2971.8057              2975.0475              2980.8352
 Red. masses --      1.0579                 1.0590                 1.0595
 Frc consts  --      5.5048                 5.5223                 5.5465
 IR Inten    --     27.4373               195.0902                34.4127

                     46                     47                     48
                      A                      A                      A
 Frequencies --   2992.4574              2995.4168              2997.6301
 Red. masses --      1.1041                 1.1057                 1.0993
 Frc consts  --      5.8253                 5.8452                 5.8201
 IR Inten    --      0.9333                52.4039                81.0079

                     49                     50                     51
                      A                      A                      A
 Frequencies --   3037.5224              3111.1368              3123.9186
 Red. masses --      1.0349                 1.1008                 1.1030
 Frc consts  --      5.6257                 6.2778                 6.3417
 IR Inten    --     18.0597                21.3769                21.8314

 - Thermochemistry -
 -------------------
 Temperature   298.150 Kelvin.  Pressure   1.00000 Atm.
 Atom     1 has atomic number  6 and mass  12.00000

 Molecular mass:   126.06808 amu.
 Principal axes and moments of inertia in atomic units:
                           1         2         3
     Eigenvalues --   611.984371252.465591734.23579
           X            0.99848   0.05464  -0.00697
           Y           -0.05462   0.99850   0.00288
           Z            0.00711  -0.00250   0.99997
 This molecule is an asymmetric top.
 Rotational symmetry number  1.
 Warning -- assumption of classical behavior for rotation
           may cause significant error
 Rotational temperatures (Kelvin)      0.14153     0.06915     0.04994
 Rotational constants (GHZ):           2.94900     1.44095     1.04066
 Zero-point vibrational energy     420424.9 (Joules/Mol)
                                  100.48397 (Kcal/Mol)
 Warning -- explicit consideration of  10 degrees of freedom as
           vibrations may cause significant error
 Vibrational temperatures:    125.64   172.37   212.26   288.28   339.12
          (Kelvin)            397.29   568.28   608.78   770.55   805.62
                              981.61  1107.48  1206.08  1245.95  1303.96
                             1389.63  1420.09  1468.03  1491.77  1519.44
                             1539.06  1566.75  1590.75  1611.42  1669.00
                             1724.65  1754.39  1778.48  1807.91  1901.28
                             1968.19  1990.14  2012.35  2017.04  2031.86
                             2137.45  2152.50  2182.88  2192.02  2199.75
                             2514.92  4251.64  4275.76  4280.42  4288.75
                             4305.47  4309.73  4312.92  4370.31  4476.23
                             4494.62

 Zero-point correction=                           0.160131 (Hartree/Particle)
 Thermal correction to Energy=                    0.168392
 Thermal correction to Enthalpy=                  0.169336
 Thermal correction to Gibbs Free Energy=         0.126951
 Sum of electronic and zero-point Energies=           -423.027041
 Sum of electronic and thermal Energies=              -423.018781
 Sum of electronic and thermal Enthalpies=            -423.017837
 Sum of electronic and thermal Free Energies=         -423.060222

                     E (Thermal)             CV                S
                      KCal/Mol        Cal/Mol-Kelvin    Cal/Mol-Kelvin
 Total                  105.668             30.502             89.208
 Electronic               0.000              0.000              0.000
 Translational            0.889              2.981             40.409
 Rotational               0.889              2.981             28.676
 Vibrational            103.890             24.540             20.123
 Vibration     1          0.601              1.958              3.719
 Vibration     2          0.609              1.933              3.104
 Vibration     3          0.617              1.905              2.704
 Vibration     4          0.638              1.839              2.130
 Vibration     5          0.655              1.786              1.835
 Vibration     6          0.678              1.718              1.558
 Vibration     7          0.762              1.481              0.981
 Vibration     8          0.785              1.420              0.881
 Vibration     9          0.891              1.171              0.575
 Vibration    10          0.916              1.118              0.524

 Normal termination of Gaussian 09 at Tue Jan 28 09:00:02 2020.
