 Gaussian 09, Revision D.01,
 Gaussian 09:  ES64L-G09RevD.01 24-Apr-2013

 -----------------------------
 # b3lyp 6-31G(2df,p) opt Freq
 -----------------------------

 -----
 titel
 -----
 Symbolic Z-matrix:
 Charge =  0 Multiplicity = 1

 SCF Done:  E(RB3LYP) =  -423.172921590     A.U. after   14 cycles
 Optimization completed.
    -- Stationary point found.
 Normal termination of Gaussian 09 at Mon Jan 27 15:34:39 2020.

 ----------------------------------------------------------------------
 #N Geom=AllCheck Guess=TCheck SCRF=Check GenChk RB3LYP/6-31G(2df,p) Fr
 eq
 ----------------------------------------------------------------------

 Structure from the checkpoint file:  "/scratch/puck/g09_23790072-2d48-4c07-8e53-ff8939a424a9/Gau-55333.chk"
 -----
 titel
 -----
 Charge =  0 Multiplicity = 1

                         Standard orientation:
 ---------------------------------------------------------------------
 Center     Atomic      Atomic             Coordinates (Angstroms)
 Number     Number       Type             X           Y           Z
 ---------------------------------------------------------------------
      1          6           0       -2.601708    0.429495   -0.881297
      2          6           0       -1.708340   -0.451500   -0.011699
      3          8           0       -2.058794   -0.162168    1.345927
      4          6           0       -0.237999   -0.216453   -0.228965
      5          6           0        0.676208   -1.145842   -0.536956
      6          6           0        2.051390   -0.569213   -0.492949
      7          8           0        2.408098   -0.077090    0.823072
      8          6           0        1.897820    0.851755   -0.134415
      9          6           0        0.409086    1.144156    0.000438
     10          1           0       -2.418529    1.488099   -0.676708
     11          1           0       -2.416241    0.237410   -1.941769
     12          1           0       -3.651883    0.218490   -0.662715
     13          1           0       -1.925683   -1.507047   -0.240098
     14          1           0       -1.472909   -0.677499    1.911105
     15          1           0        0.467434   -2.189892   -0.739632
     16          1           0        2.877248   -0.968732   -1.073159
     17          1           0        2.591485    1.627064   -0.448455
     18          1           0        0.149628    1.553082    0.982606
     19          1           0        0.086272    1.878699   -0.748102
 ---------------------------------------------------------------------

 SCF Done:  E(RB3LYP) =  -423.172921590     A.U. after    1 cycles

 The electronic state is 1-A.
 Alpha  occ. eigenvalues --  -19.14476 -19.13617 -10.23823 -10.23521 -10.23445
 Alpha  occ. eigenvalues --  -10.19334 -10.19093 -10.18533 -10.17663  -1.06530
 Alpha  occ. eigenvalues --   -1.01714  -0.82790  -0.75207  -0.71949  -0.66700
 Alpha  occ. eigenvalues --   -0.60928  -0.58030  -0.54027  -0.53046  -0.49683
 Alpha  occ. eigenvalues --   -0.45654  -0.43622  -0.43339  -0.41006  -0.38682
 Alpha  occ. eigenvalues --   -0.38340  -0.37988  -0.37666  -0.35187  -0.32923
 Alpha  occ. eigenvalues --   -0.30846  -0.27537  -0.26082  -0.24238
 Alpha virt. eigenvalues --   -0.00412   0.08322   0.10066   0.11309   0.12071
 Alpha virt. eigenvalues --    0.13380   0.15075   0.15238   0.15877   0.16982
 Alpha virt. eigenvalues --    0.17637   0.18377   0.19221   0.19465   0.21691

 Mulliken charges:
               1
     1  C   -0.388434
     2  C    0.030985
     3  O   -0.430675
     4  C    0.307280
     5  C   -0.232211
     6  C    0.011779
     7  O   -0.261132
     8  C    0.036182
     9  C   -0.333071
    10  H    0.126455
    11  H    0.117928
    12  H    0.126324
    13  H    0.066567
    14  H    0.285324
    15  H    0.098184
    16  H    0.096808
    17  H    0.095521
    18  H    0.133145
    19  H    0.113040
 Sum of Mulliken charges =   0.00000

 Dipole moment (field-independent basis, Debye):
    X=             -0.0677    Y=             -0.2897    Z=             -1.7892  Tot=              1.8138
 Quadrupole moment (field-independent basis, Debye-Ang):
   XX=            -58.2044   YY=            -49.1042   ZZ=            -53.6465
   XY=              1.7750   XZ=             -1.9113   YZ=             -0.7694

  Exact polarizability:  92.273  -4.290  76.256  -1.771   3.325  61.912
 Approx polarizability: 123.433 -13.751 120.913  -3.072   7.792  99.342

                      1                      2                      3
                      A                      A                      A
 Frequencies --     60.0999               110.6362               202.2965
 Red. masses --      3.4942                 4.2835                 3.3395
 Frc consts  --      0.0074                 0.0309                 0.0805
 IR Inten    --      1.8338                 0.6761                 2.6583

                      4                      5                      6
                      A                      A                      A
 Frequencies --    238.6523               267.8848               329.8332
 Red. masses --      1.1616                 2.7460                 2.5230
 Frc consts  --      0.0390                 0.1161                 0.1617
 IR Inten    --      0.3667                 8.0595                 9.2910

                      7                      8                      9
                      A                      A                      A
 Frequencies --    364.3466               380.4179               481.3264
 Red. masses --      1.2628                 2.2794                 3.4915
 Frc consts  --      0.0988                 0.1944                 0.4766
 IR Inten    --     77.4521                37.9129                 7.3988

                     10                     11                     12
                      A                      A                      A
 Frequencies --    536.4327               549.5493               659.7900
 Red. masses --      3.6008                 2.2365                 3.2527
 Frc consts  --      0.6105                 0.3980                 0.8343
 IR Inten    --      8.3478                10.9127                 0.8123

                     13                     14                     15
                      A                      A                      A
 Frequencies --    719.3109               820.2905               845.7998
 Red. masses --      6.3752                 3.9392                 3.7750
 Frc consts  --      1.9435                 1.5617                 1.5911
 IR Inten    --      1.7204                 5.1378                 8.8748

                     16                     17                     18
                      A                      A                      A
 Frequencies --    850.5128               878.8930               910.2433
 Red. masses --      2.2180                 1.8267                 2.1517
 Frc consts  --      0.9453                 0.8313                 1.0504
 IR Inten    --     16.0450                26.7870                20.4721

                     19                     20                     21
                      A                      A                      A
 Frequencies --    929.3236               964.9283               992.9722
 Red. masses --      2.4922                 1.7753                 1.7679
 Frc consts  --      1.2681                 0.9739                 1.0271
 IR Inten    --      6.7817                 6.9279                18.8477

                     22                     23                     24
                      A                      A                      A
 Frequencies --   1016.1767              1031.6730              1068.8582
 Red. masses --      2.2736                 1.6884                 1.8761
 Frc consts  --      1.3832                 1.0588                 1.2628
 IR Inten    --     16.9198                 3.5921                26.4782

                     25                     26                     27
                      A                      A                      A
 Frequencies --   1105.7701              1117.3416              1176.0264
 Red. masses --      1.4343                 1.9706                 1.2801
 Frc consts  --      1.0333                 1.4495                 1.0431
 IR Inten    --      1.4609                20.1617                 9.9990

                     28                     29                     30
                      A                      A                      A
 Frequencies --   1198.2968              1251.9975              1272.1248
 Red. masses --      1.7816                 1.5101                 1.4160
 Frc consts  --      1.5073                 1.3946                 1.3501
 IR Inten    --     10.9703                 8.6217                 2.9329

                     31                     32                     33
                      A                      A                      A
 Frequencies --   1285.4358              1307.9936              1340.2693
 Red. masses --      1.2069                 1.8149                 1.6727
 Frc consts  --      1.1749                 1.8295                 1.7704
 IR Inten    --     65.5612                 3.1431                 5.1328

                     34                     35                     36
                      A                      A                      A
 Frequencies --   1372.5883              1392.1060              1411.8145
 Red. masses --      1.5953                 1.2873                 2.4310
 Frc consts  --      1.7708                 1.4698                 2.8549
 IR Inten    --     12.7457                17.0565                16.6699

                     37                     38                     39
                      A                      A                      A
 Frequencies --   1419.4533              1462.1449              1485.2586
 Red. masses --      1.5394                 1.0984                 1.0548
 Frc consts  --      1.8274                 1.3835                 1.3709
 IR Inten    --     33.7899                 3.6925                 3.1503

                     40                     41                     42
                      A                      A                      A
 Frequencies --   1499.3192              1686.1755              2971.7858
 Red. masses --      1.0494                 7.3259                 1.0833
 Frc consts  --      1.3899                12.2720                 5.6370
 IR Inten    --      1.3535                 3.3878                48.9435

                     43                     44                     45
                      A                      A                      A
 Frequencies --   3033.2324              3046.6668              3082.0106
 Red. masses --      1.0642                 1.0347                 1.0959
 Frc consts  --      5.7688                 5.6589                 6.1335
 IR Inten    --     14.1733                16.8731                 7.5028

                     46                     47                     48
                      A                      A                      A
 Frequencies --   3123.4062              3125.3656              3147.8944
 Red. masses --      1.1020                 1.1023                 1.0891
 Frc consts  --      6.3342                 6.3441                 6.3587
 IR Inten    --     23.1631                18.7283                21.8984

                     49                     50                     51
                      A                      A                      A
 Frequencies --   3167.0263              3200.1715              3806.3111
 Red. masses --      1.0928                 1.0951                 1.0662
 Frc consts  --      6.4581                 6.6080                 9.1014
 IR Inten    --     38.3137                10.4011                15.9718

 - Thermochemistry -
 -------------------
 Temperature   298.150 Kelvin.  Pressure   1.00000 Atm.
 Atom     1 has atomic number  6 and mass  12.00000

 Molecular mass:   126.06808 amu.
 Principal axes and moments of inertia in atomic units:
                           1         2         3
     Eigenvalues --   490.781791760.091951765.76759
           X            0.99998   0.00119   0.00563
           Y            0.00095   0.93043  -0.36646
           Z           -0.00568   0.36646   0.93042
 This molecule is an asymmetric top.
 Rotational symmetry number  1.
 Warning -- assumption of classical behavior for rotation
           may cause significant error
 Rotational temperatures (Kelvin)      0.17648     0.04921     0.04905
 Rotational constants (GHZ):           3.67728     1.02537     1.02207
 Zero-point vibrational energy     416888.0 (Joules/Mol)
                                   99.63863 (Kcal/Mol)
 Warning -- explicit consideration of  11 degrees of freedom as
           vibrations may cause significant error
 Vibrational temperatures:     86.47   159.18   291.06   343.37   385.43
          (Kelvin)            474.56   524.21   547.34   692.52   771.81
                              790.68   949.29  1034.93  1180.21  1216.92
                             1223.70  1264.53  1309.64  1337.09  1388.31
                             1428.66  1462.05  1484.35  1537.85  1590.95
                             1607.60  1692.04  1724.08  1801.34  1830.30
                             1849.45  1881.91  1928.35  1974.85  2002.93
                             2031.28  2042.27  2103.70  2136.95  2157.18
                             2426.03  4275.73  4364.14  4383.47  4434.32
                             4493.88  4496.70  4529.11  4556.64  4604.33
                             5476.43

 Zero-point correction=                           0.158784 (Hartree/Particle)
 Thermal correction to Energy=                    0.167315
 Thermal correction to Enthalpy=                  0.168259
 Thermal correction to Gibbs Free Energy=         0.125407
 Sum of electronic and zero-point Energies=           -423.014137
 Sum of electronic and thermal Energies=              -423.005607
 Sum of electronic and thermal Enthalpies=            -423.004663
 Sum of electronic and thermal Free Energies=         -423.047515

                     E (Thermal)             CV                S
                      KCal/Mol        Cal/Mol-Kelvin    Cal/Mol-Kelvin
 Total                  104.992             32.696             90.190
 Electronic               0.000              0.000              0.000
 Translational            0.889              2.981             40.409
 Rotational               0.889              2.981             28.813
 Vibrational            103.214             26.735             20.968
 Vibration     1          0.597              1.973              4.454
 Vibration     2          0.606              1.941              3.258
 Vibration     3          0.639              1.837              2.112
 Vibration     4          0.657              1.781              1.813
 Vibration     5          0.673              1.732              1.610
 Vibration     6          0.713              1.616              1.261
 Vibration     7          0.738              1.546              1.104
 Vibration     8          0.750              1.512              1.038
 Vibration     9          0.838              1.291              0.706
 Vibration    10          0.891              1.169              0.573
 Vibration    11          0.905              1.141              0.545

 Optimization completed.
    -- Stationary point found.
 Normal termination of Gaussian 09 at Mon Jan 27 16:15:43 2020.
