 Gaussian 09, Revision D.01,
 Gaussian 09:  ES64L-G09RevD.01 24-Apr-2013

 -----------------------------
 # b3lyp 6-31G(2df,p) opt Freq
 -----------------------------

 -----
 titel
 -----
 Symbolic Z-matrix:
 Charge =  0 Multiplicity = 1

 SCF Done:  E(RB3LYP) =  -423.117423800     A.U. after   13 cycles
 Optimization completed.
    -- Stationary point found.
 Normal termination of Gaussian 09 at Tue Jan 28 10:00:30 2020.

 ----------------------------------------------------------------------
 #N Geom=AllCheck Guess=TCheck SCRF=Check GenChk RB3LYP/6-31G(2df,p) Fr
 eq
 ----------------------------------------------------------------------

 Structure from the checkpoint file:  "/scratch/puck/g09_070e910c-482a-4e3f-a818-181a6da6fe2f/Gau-83991.chk"
 -----
 titel
 -----
 Charge =  0 Multiplicity = 1

                         Standard orientation:
 ---------------------------------------------------------------------
 Center     Atomic      Atomic             Coordinates (Angstroms)
 Number     Number       Type             X           Y           Z
 ---------------------------------------------------------------------
      1          6           0       -2.816990   -0.586069    0.090418
      2          6           0       -1.381667   -0.177419   -0.005980
      3          6           0       -0.215910   -1.136710   -0.372505
      4          6           0        0.695795   -0.079740    0.252908
      5          6           0        2.150280   -0.173771    0.590370
      6          8           0        2.970364   -0.330152   -0.560160
      7          6           0       -0.010561    1.255617   -0.090906
      8          8           0       -1.144497    0.965032   -0.898365
      9          6           0       -0.451334    0.479000    1.096425
     10          1           0       -3.436864    0.248711    0.429278
     11          1           0       -3.180537   -0.908152   -0.891469
     12          1           0       -2.933458   -1.418831    0.790441
     13          1           0       -0.234347   -2.048341    0.231742
     14          1           0       -0.103474   -1.379201   -1.433649
     15          1           0        2.448182    0.708351    1.183317
     16          1           0        2.348115   -1.055434    1.210727
     17          1           0        2.738663    0.374677   -1.174271
     18          1           0        0.484242    2.213535   -0.192439
     19          1           0       -0.555130    0.700189    2.150138
 ---------------------------------------------------------------------

 SCF Done:  E(RB3LYP) =  -423.117423800     A.U. after    1 cycles

 The electronic state is 1-A.
 Alpha  occ. eigenvalues --  -19.13391 -19.13311 -10.25024 -10.24080 -10.23154
 Alpha  occ. eigenvalues --  -10.19997 -10.19437 -10.18441 -10.18418  -1.06029
 Alpha  occ. eigenvalues --   -1.01410  -0.86048  -0.76521  -0.70242  -0.69834
 Alpha  occ. eigenvalues --   -0.61777  -0.55442  -0.53686  -0.51251  -0.47744
 Alpha  occ. eigenvalues --   -0.47092  -0.45219  -0.43663  -0.42168  -0.41252
 Alpha  occ. eigenvalues --   -0.40173  -0.37312  -0.35108  -0.34097  -0.32732
 Alpha  occ. eigenvalues --   -0.29097  -0.27486  -0.25730  -0.22974
 Alpha virt. eigenvalues --    0.07257   0.08236   0.09889   0.11470   0.11754
 Alpha virt. eigenvalues --    0.13280   0.14060   0.14839   0.15859   0.16440
 Alpha virt. eigenvalues --    0.16732   0.18303   0.18650   0.19955   0.20962

 Mulliken charges:
               1
     1  C   -0.505372
     2  C    0.419555
     3  C   -0.309148
     4  C    0.256526
     5  C   -0.180783
     6  O   -0.412884
     7  C    0.047818
     8  O   -0.329177
     9  C   -0.261282
    10  H    0.132435
    11  H    0.135232
    12  H    0.123905
    13  H    0.099883
    14  H    0.101077
    15  H    0.083694
    16  H    0.111482
    17  H    0.282402
    18  H    0.105350
    19  H    0.099287
 Sum of Mulliken charges =   0.00000

 Dipole moment (field-independent basis, Debye):
    X=             -0.8103    Y=              0.2517    Z=              1.4657  Tot=              1.6935
 Quadrupole moment (field-independent basis, Debye-Ang):
   XX=            -57.8129   YY=            -51.9639   ZZ=            -52.1502
   XY=              6.2624   XZ=             -1.2340   YZ=             -0.0882

  Exact polarizability:  86.831   2.351  71.222  -0.010   0.633  67.621
 Approx polarizability: 112.004  -0.485 109.120  -0.971  -2.438 107.992

                      1                      2                      3
                      A                      A                      A
 Frequencies --     91.6392               129.1789               196.8276
 Red. masses --      3.7137                 4.1514                 1.0673
 Frc consts  --      0.0184                 0.0408                 0.0244
 IR Inten    --      2.9514                 0.7136                 0.4756

                      4                      5                      6
                      A                      A                      A
 Frequencies --    235.1278               264.2980               306.4887
 Red. masses --      1.9212                 2.6854                 1.6328
 Frc consts  --      0.0626                 0.1105                 0.0904
 IR Inten    --      8.0650                 5.1692                58.3366

                      7                      8                      9
                      A                      A                      A
 Frequencies --    359.9345               413.2216               460.9886
 Red. masses --      1.6120                 3.2123                 2.0911
 Frc consts  --      0.1230                 0.3232                 0.2618
 IR Inten    --     44.0827                11.8064                 1.0791

                     10                     11                     12
                      A                      A                      A
 Frequencies --    531.6511               614.3545               674.0885
 Red. masses --      4.9949                 3.6172                 2.9755
 Frc consts  --      0.8318                 0.8044                 0.7966
 IR Inten    --      5.8184                 1.5607                13.1179

                     13                     14                     15
                      A                      A                      A
 Frequencies --    754.5189               774.8238               819.5660
 Red. masses --      3.2233                 3.6218                 3.2643
 Frc consts  --      1.0812                 1.2811                 1.2918
 IR Inten    --     11.8356                 9.7221                 9.7866

                     16                     17                     18
                      A                      A                      A
 Frequencies --    830.5485               874.4794               916.3628
 Red. masses --      1.3257                 2.4227                 2.1170
 Frc consts  --      0.5388                 1.0916                 1.0474
 IR Inten    --      8.0123                21.2473                 6.2150

                     19                     20                     21
                      A                      A                      A
 Frequencies --    955.4333               973.8745               993.3925
 Red. masses --      2.2626                 1.4750                 1.7455
 Frc consts  --      1.2169                 0.8242                 1.0149
 IR Inten    --      7.1836                19.8388                 8.3737

                     22                     23                     24
                      A                      A                      A
 Frequencies --   1028.1609              1047.6000              1057.3450
 Red. masses --      2.7406                 2.5615                 3.2467
 Frc consts  --      1.7069                 1.6563                 2.1386
 IR Inten    --     35.9863                19.1517                68.8241

                     25                     26                     27
                      A                      A                      A
 Frequencies --   1092.6648              1115.8108              1147.1093
 Red. masses --      1.6888                 1.8088                 1.7073
 Frc consts  --      1.1880                 1.3268                 1.3236
 IR Inten    --     17.5517                 4.6959                10.2200

                     28                     29                     30
                      A                      A                      A
 Frequencies --   1156.8893              1189.1822              1206.2597
 Red. masses --      1.8253                 1.5426                 1.6012
 Frc consts  --      1.4394                 1.2853                 1.3727
 IR Inten    --      2.5286                 0.5535                23.3716

                     31                     32                     33
                      A                      A                      A
 Frequencies --   1268.6533              1302.6516              1344.2558
 Red. masses --      1.6322                 3.2493                 2.4240
 Frc consts  --      1.5478                 3.2486                 2.5808
 IR Inten    --     11.7588                 1.7780                23.7681

                     34                     35                     36
                      A                      A                      A
 Frequencies --   1362.1133              1399.1045              1417.8086
 Red. masses --      1.3645                 1.8885                 1.5701
 Frc consts  --      1.4916                 2.1780                 1.8595
 IR Inten    --      1.1704                12.1428                 5.8281

                     37                     38                     39
                      A                      A                      A
 Frequencies --   1432.3143              1477.4999              1488.5052
 Red. masses --      1.6579                 1.0518                 1.0514
 Frc consts  --      2.0040                 1.3528                 1.3725
 IR Inten    --     87.1610                 3.0668                 4.2972

                     40                     41                     42
                      A                      A                      A
 Frequencies --   1490.0631              1504.2861              2954.6249
 Red. masses --      1.2142                 1.0860                 1.0719
 Frc consts  --      1.5883                 1.4479                 5.5133
 IR Inten    --      4.3772                 0.5694                63.2085

                     43                     44                     45
                      A                      A                      A
 Frequencies --   3037.8288              3047.7745              3057.1219
 Red. masses --      1.0359                 1.0559                 1.0892
 Frc consts  --      5.6321                 5.7786                 5.9976
 IR Inten    --     14.4313                33.5715                34.0760

                     46                     47                     48
                      A                      A                      A
 Frequencies --   3106.7184              3109.4743              3119.4986
 Red. masses --      1.1058                 1.1031                 1.1019
 Frc consts  --      6.2884                 6.2840                 6.3178
 IR Inten    --      2.7467                29.0358                15.1896

                     49                     50                     51
                      A                      A                      A
 Frequencies --   3192.3356              3207.7970              3809.3187
 Red. masses --      1.0898                 1.1021                 1.0660
 Frc consts  --      6.5435                 6.6817                 9.1137
 IR Inten    --     14.1226                 9.8579                12.7919

 - Thermochemistry -
 -------------------
 Temperature   298.150 Kelvin.  Pressure   1.00000 Atm.
 Atom     1 has atomic number  6 and mass  12.00000

 Molecular mass:   126.06808 amu.
 Principal axes and moments of inertia in atomic units:
                           1         2         3
     Eigenvalues --   452.193971596.062371678.64310
           X            0.99971   0.02412   0.00235
           Y           -0.02422   0.99775   0.06251
           Z           -0.00084  -0.06255   0.99804
 This molecule is an asymmetric top.
 Rotational symmetry number  1.
 Warning -- assumption of classical behavior for rotation
           may cause significant error
 Rotational temperatures (Kelvin)      0.19154     0.05427     0.05160
 Rotational constants (GHZ):           3.99108     1.13075     1.07512
 Zero-point vibrational energy     414754.7 (Joules/Mol)
                                   99.12875 (Kcal/Mol)
 Warning -- explicit consideration of  11 degrees of freedom as
           vibrations may cause significant error
 Vibrational temperatures:    131.85   185.86   283.19   338.30   380.27
          (Kelvin)            440.97   517.86   594.53   663.26   764.93
                              883.92   969.86  1085.58  1114.80  1179.17
                             1194.97  1258.18  1318.44  1374.65  1401.19
                             1429.27  1479.29  1507.26  1521.28  1572.10
                             1605.40  1650.43  1664.50  1710.97  1735.54
                             1825.31  1874.22  1934.08  1959.77  2013.00
                             2039.91  2060.78  2125.79  2141.62  2143.87
                             2164.33  4251.04  4370.75  4385.06  4398.51
                             4469.87  4473.83  4488.26  4593.05  4615.30
                             5480.75

 Zero-point correction=                           0.157972 (Hartree/Particle)
 Thermal correction to Energy=                    0.166421
 Thermal correction to Enthalpy=                  0.167365
 Thermal correction to Gibbs Free Energy=         0.125110
 Sum of electronic and zero-point Energies=           -422.959452
 Sum of electronic and thermal Energies=              -422.951003
 Sum of electronic and thermal Enthalpies=            -422.950059
 Sum of electronic and thermal Free Energies=         -422.992314

                     E (Thermal)             CV                S
                      KCal/Mol        Cal/Mol-Kelvin    Cal/Mol-Kelvin
 Total                  104.431             32.750             88.933
 Electronic               0.000              0.000              0.000
 Translational            0.889              2.981             40.409
 Rotational               0.889              2.981             28.584
 Vibrational            102.653             26.788             19.941
 Vibration     1          0.602              1.955              3.625
 Vibration     2          0.612              1.924              2.958
 Vibration     3          0.636              1.844              2.163
 Vibration     4          0.655              1.787              1.839
 Vibration     5          0.671              1.738              1.633
 Vibration     6          0.697              1.661              1.381
 Vibration     7          0.734              1.555              1.122
 Vibration     8          0.777              1.442              0.915
 Vibration     9          0.819              1.337              0.763
 Vibration    10          0.887              1.180              0.584
 Vibration    11          0.974              1.002              0.426

 Normal termination of Gaussian 09 at Tue Jan 28 10:58:40 2020.
