 Gaussian 09, Revision D.01,
 Gaussian 09:  ES64L-G09RevD.01 24-Apr-2013

 -----------------------------
 # b3lyp 6-31G(2df,p) opt Freq
 -----------------------------

 -----
 titel
 -----
 Symbolic Z-matrix:
 Charge =  0 Multiplicity = 1

 SCF Done:  E(RB3LYP) =  -423.131568359     A.U. after   13 cycles
 Optimization completed.
    -- Stationary point found.
 Normal termination of Gaussian 09 at Tue Jan 28 03:16:49 2020.

 ----------------------------------------------------------------------
 #N Geom=AllCheck Guess=TCheck SCRF=Check GenChk RB3LYP/6-31G(2df,p) Fr
 eq
 ----------------------------------------------------------------------

 Structure from the checkpoint file:  "/scratch/puck/g09_3452bfe5-8379-4060-a24c-46861275b3fd/Gau-45689.chk"
 -----
 titel
 -----
 Charge =  0 Multiplicity = 1

                         Standard orientation:
 ---------------------------------------------------------------------
 Center     Atomic      Atomic             Coordinates (Angstroms)
 Number     Number       Type             X           Y           Z
 ---------------------------------------------------------------------
      1          8           0        2.136989   -1.201447    0.129353
      2          6           0        1.225849   -0.419017   -0.605772
      3          6           0        1.378581    1.142466   -0.365175
      4          6           0        0.037287    1.399707    0.382021
      5          8           0       -0.036769    0.201263    1.215673
      6          6           0       -0.211557   -0.483875   -0.096219
      7          6           0       -1.480893   -1.325221   -0.044895
      8          6           0       -2.272667    0.035019   -0.087483
      9          6           0       -0.974569    0.768331   -0.582426
     10          1           0        1.940560   -1.015974    1.057338
     11          1           0        1.335663   -0.704575   -1.654290
     12          1           0        2.245341    1.339972    0.269330
     13          1           0        1.477299    1.717125   -1.290357
     14          1           0       -0.084797    2.336112    0.930520
     15          1           0       -1.624418   -1.910309   -0.957833
     16          1           0       -1.606988   -1.969455    0.827311
     17          1           0       -3.096644    0.068110   -0.801931
     18          1           0       -2.628752    0.360908    0.889115
     19          1           0       -0.971203    1.075098   -1.629728
 ---------------------------------------------------------------------

 SCF Done:  E(RB3LYP) =  -423.131568359     A.U. after    1 cycles

 The electronic state is 1-A.
 Alpha  occ. eigenvalues --  -19.13732 -19.12847 -10.24273 -10.23599 -10.23540
 Alpha  occ. eigenvalues --  -10.19327 -10.19210 -10.19021 -10.18377  -1.05765
 Alpha  occ. eigenvalues --   -1.00879  -0.82735  -0.77604  -0.70447  -0.66005
 Alpha  occ. eigenvalues --   -0.62273  -0.58011  -0.53299  -0.51165  -0.48598
 Alpha  occ. eigenvalues --   -0.47360  -0.45963  -0.43148  -0.39928  -0.39010
 Alpha  occ. eigenvalues --   -0.37676  -0.36029  -0.34615  -0.33489  -0.32848
 Alpha  occ. eigenvalues --   -0.31663  -0.28164  -0.26760  -0.24059
 Alpha virt. eigenvalues --    0.07847   0.08201   0.10621   0.11164   0.12543
 Alpha virt. eigenvalues --    0.13384   0.14073   0.14839   0.15747   0.16551
 Alpha virt. eigenvalues --    0.17310   0.18296   0.19277   0.19534   0.21372

 Mulliken charges:
               1
     1  O   -0.439828
     2  C    0.065056
     3  C   -0.267232
     4  C    0.052640
     5  O   -0.357512
     6  C    0.403720
     7  C   -0.338980
     8  C   -0.251991
     9  C   -0.051711
    10  H    0.282217
    11  H    0.087370
    12  H    0.109234
    13  H    0.101390
    14  H    0.078616
    15  H    0.111118
    16  H    0.115365
    17  H    0.103022
    18  H    0.122427
    19  H    0.075078
 Sum of Mulliken charges =   0.00000

 Dipole moment (field-independent basis, Debye):
    X=             -1.4306    Y=              1.1710    Z=             -0.9891  Tot=              2.0967
 Quadrupole moment (field-independent basis, Debye-Ang):
   XX=            -55.8248   YY=            -52.8537   ZZ=            -52.0270
   XY=              3.6374   XZ=              1.7649   YZ=             -0.4345

  Exact polarizability:  82.256   3.692  74.360   0.831   0.041  66.675
 Approx polarizability: 109.477   1.258 110.181   2.066  -0.829 109.648

                      1                      2                      3
                      A                      A                      A
 Frequencies --    162.2609               248.5531               278.7096
 Red. masses --      3.2653                 3.7652                 2.1104
 Frc consts  --      0.0507                 0.1370                 0.0966
 IR Inten    --      4.1980                 0.8968                 1.3333

                      4                      5                      6
                      A                      A                      A
 Frequencies --    299.8661               458.0870               462.4679
 Red. masses --      2.7047                 2.1314                 3.0576
 Frc consts  --      0.1433                 0.2635                 0.3853
 IR Inten    --      0.7604                 1.7984                 6.2572

                      7                      8                      9
                      A                      A                      A
 Frequencies --    500.2932               506.3779               623.8383
 Red. masses --      2.5681                 1.4608                 3.8598
 Frc consts  --      0.3787                 0.2207                 0.8850
 IR Inten    --     15.7129                63.7077                 8.4964

                     10                     11                     12
                      A                      A                      A
 Frequencies --    707.1614               736.2860               761.9399
 Red. masses --      1.7306                 2.9614                 3.8427
 Frc consts  --      0.5099                 0.9459                 1.3144
 IR Inten    --      9.0780                 9.9110                13.0381

                     13                     14                     15
                      A                      A                      A
 Frequencies --    815.6986               827.8714               860.5108
 Red. masses --      2.6261                 2.6328                 2.6550
 Frc consts  --      1.0295                 1.0631                 1.1583
 IR Inten    --      4.8219                12.1134                 1.0246

                     16                     17                     18
                      A                      A                      A
 Frequencies --    898.3205               906.0930               909.9687
 Red. masses --      2.6319                 2.7305                 2.9621
 Frc consts  --      1.2513                 1.3208                 1.4451
 IR Inten    --     12.1956                 2.6022                11.9267

                     19                     20                     21
                      A                      A                      A
 Frequencies --    953.1495               971.0180              1006.2776
 Red. masses --      3.2920                 1.8328                 2.2856
 Frc consts  --      1.7621                 1.0182                 1.3636
 IR Inten    --     39.0509                 1.9967                 7.2500

                     22                     23                     24
                      A                      A                      A
 Frequencies --   1047.0079              1071.8595              1085.9083
 Red. masses --      2.3857                 1.6415                 2.0074
 Frc consts  --      1.5409                 1.1112                 1.3947
 IR Inten    --     11.3055                34.0622                 1.2038

                     25                     26                     27
                      A                      A                      A
 Frequencies --   1120.0733              1139.6759              1160.0598
 Red. masses --      1.6889                 1.4648                 1.7066
 Frc consts  --      1.2484                 1.1210                 1.3531
 IR Inten    --     56.3334                42.7744                31.9094

                     28                     29                     30
                      A                      A                      A
 Frequencies --   1204.5455              1213.5948              1230.2177
 Red. masses --      1.5895                 1.2870                 1.7083
 Frc consts  --      1.3588                 1.1168                 1.5233
 IR Inten    --      2.2830                 1.4947                 6.2511

                     31                     32                     33
                      A                      A                      A
 Frequencies --   1246.7789              1262.6906              1275.4834
 Red. masses --      1.3968                 1.3748                 1.4761
 Frc consts  --      1.2793                 1.2915                 1.4148
 IR Inten    --      3.6103                 2.7541                 4.6203

                     34                     35                     36
                      A                      A                      A
 Frequencies --   1292.9480              1307.3233              1322.0659
 Red. masses --      1.4926                 1.4663                 2.7543
 Frc consts  --      1.4702                 1.4765                 2.8364
 IR Inten    --      0.8489                 4.3734                13.2563

                     37                     38                     39
                      A                      A                      A
 Frequencies --   1343.1500              1443.6194              1462.6840
 Red. masses --      1.7318                 1.2748                 1.0885
 Frc consts  --      1.8408                 1.5653                 1.3721
 IR Inten    --      1.2572                87.0455                 0.9865

                     40                     41                     42
                      A                      A                      A
 Frequencies --   1477.9961              1482.0208              3063.3716
 Red. masses --      1.1230                 1.1294                 1.0605
 Frc consts  --      1.4454                 1.4616                 5.8638
 IR Inten    --      0.2707                 4.2856                 7.7020

                     43                     44                     45
                      A                      A                      A
 Frequencies --   3063.7523              3085.4732              3092.0833
 Red. masses --      1.0593                 1.0636                 1.0848
 Frc consts  --      5.8586                 5.9658                 6.1111
 IR Inten    --     39.0535                32.2264                50.7319

                     46                     47                     48
                      A                      A                      A
 Frequencies --   3093.2887              3101.2995              3123.1159
 Red. masses --      1.0867                 1.0893                 1.1070
 Frc consts  --      6.1265                 6.1730                 6.3619
 IR Inten    --     28.9462                38.6496                 5.3741

                     49                     50                     51
                      A                      A                      A
 Frequencies --   3123.6552              3151.1342              3764.1990
 Red. masses --      1.1057                 1.1075                 1.0648
 Frc consts  --      6.3565                 6.4790                 8.8894
 IR Inten    --     26.0759                22.7499                22.0859

 - Thermochemistry -
 -------------------
 Temperature   298.150 Kelvin.  Pressure   1.00000 Atm.
 Atom     1 has atomic number  8 and mass  15.99491

 Molecular mass:   126.06808 amu.
 Principal axes and moments of inertia in atomic units:
                           1         2         3
     Eigenvalues --   587.607101065.107161308.83690
           X            0.99885   0.04799   0.00192
           Y           -0.04797   0.99877  -0.01283
           Z           -0.00254   0.01272   0.99992
 This molecule is an asymmetric top.
 Rotational symmetry number  1.
 Warning -- assumption of classical behavior for rotation
           may cause significant error
 Rotational temperatures (Kelvin)      0.14740     0.08132     0.06618
 Rotational constants (GHZ):           3.07134     1.69442     1.37889
 Zero-point vibrational energy     423154.0 (Joules/Mol)
                                  101.13623 (Kcal/Mol)
 Warning -- explicit consideration of   8 degrees of freedom as
           vibrations may cause significant error
 Vibrational temperatures:    233.46   357.61   401.00   431.44   659.08
          (Kelvin)            665.39   719.81   728.56   897.56  1017.45
                             1059.35  1096.26  1173.61  1191.12  1238.08
                             1292.48  1303.66  1309.24  1371.37  1397.08
                             1447.81  1506.41  1542.16  1562.38  1611.53
                             1639.74  1669.07  1733.07  1746.09  1770.01
                             1793.83  1816.73  1835.13  1860.26  1880.94
                             1902.16  1932.49  2077.04  2104.47  2126.50
                             2132.29  4407.50  4408.05  4439.30  4448.81
                             4450.55  4462.07  4493.46  4494.24  4533.77
                             5415.84

 Zero-point correction=                           0.161171 (Hartree/Particle)
 Thermal correction to Energy=                    0.168170
 Thermal correction to Enthalpy=                  0.169114
 Thermal correction to Gibbs Free Energy=         0.130211
 Sum of electronic and zero-point Energies=           -422.970398
 Sum of electronic and thermal Energies=              -422.963399
 Sum of electronic and thermal Enthalpies=            -422.962455
 Sum of electronic and thermal Free Energies=         -423.001358

                     E (Thermal)             CV                S
                      KCal/Mol        Cal/Mol-Kelvin    Cal/Mol-Kelvin
 Total                  105.528             29.575             81.878
 Electronic               0.000              0.000              0.000
 Translational            0.889              2.981             40.409
 Rotational               0.889              2.981             28.195
 Vibrational            103.751             23.614             13.274
 Vibration     1          0.622              1.889              2.523
 Vibration     2          0.662              1.765              1.741
 Vibration     3          0.679              1.713              1.542
 Vibration     4          0.692              1.674              1.418
 Vibration     5          0.816              1.343              0.772
 Vibration     6          0.820              1.333              0.759
 Vibration     7          0.856              1.249              0.657
 Vibration     8          0.862              1.236              0.642

 Normal termination of Gaussian 09 at Tue Jan 28 05:18:20 2020.
