 Gaussian 09, Revision D.01,
 Gaussian 09:  ES64L-G09RevD.01 24-Apr-2013

 -----------------------------
 # b3lyp 6-31G(2df,p) opt Freq
 -----------------------------

 -----
 titel
 -----
 Symbolic Z-matrix:
 Charge =  0 Multiplicity = 1

 SCF Done:  E(RB3LYP) =  -423.147104246     A.U. after   14 cycles
 Optimization completed.
    -- Stationary point found.
 Normal termination of Gaussian 09 at Mon Jan 27 14:00:40 2020.

 ----------------------------------------------------------------------
 #N Geom=AllCheck Guess=TCheck SCRF=Check GenChk RB3LYP/6-31G(2df,p) Fr
 eq
 ----------------------------------------------------------------------

 Structure from the checkpoint file:  "/scratch/puck/g09_a12f0c1c-9a2b-481f-9dcd-e86ab3e4b198/Gau-158427.chk"
 -----
 titel
 -----
 Charge =  0 Multiplicity = 1

                         Standard orientation:
 ---------------------------------------------------------------------
 Center     Atomic      Atomic             Coordinates (Angstroms)
 Number     Number       Type             X           Y           Z
 ---------------------------------------------------------------------
      1          6           0        3.786480   -0.110897   -0.339850
      2          6           0        2.356224    0.012720   -0.100749
      3          6           0        1.171651    0.124397    0.094366
      4          6           0       -0.258347    0.217235    0.315518
      5          8           0       -0.625873   -0.252904    1.620649
      6          6           0       -0.985447    1.568049    0.062043
      7          6           0       -2.156094    0.803160   -0.611032
      8          6           0       -1.230787   -0.440243   -0.744051
      9          8           0       -1.723090   -1.703376   -0.419431
     10          1           0        4.027186   -1.051069   -0.848068
     11          1           0        4.152960    0.709352   -0.966821
     12          1           0        4.349491   -0.085580    0.599585
     13          1           0        0.000809   -0.945976    1.854914
     14          1           0       -1.204862    2.131124    0.970334
     15          1           0       -0.426555    2.198433   -0.631644
     16          1           0       -2.974898    0.606904    0.086027
     17          1           0       -2.569494    1.215896   -1.533192
     18          1           0       -0.762399   -0.507220   -1.728946
     19          1           0       -1.902615   -1.668150    0.530597
 ---------------------------------------------------------------------

 SCF Done:  E(RB3LYP) =  -423.147104246     A.U. after    1 cycles

 The electronic state is 1-A.
 Alpha  occ. eigenvalues --  -19.15195 -19.13107 -10.25222 -10.22651 -10.20954
 Alpha  occ. eigenvalues --  -10.18413 -10.18331 -10.17633 -10.17172  -1.04027
 Alpha  occ. eigenvalues --   -1.00944  -0.82976  -0.78075  -0.71758  -0.65457
 Alpha  occ. eigenvalues --   -0.64921  -0.56929  -0.55048  -0.51643  -0.46230
 Alpha  occ. eigenvalues --   -0.45064  -0.43494  -0.43244  -0.42737  -0.40787
 Alpha  occ. eigenvalues --   -0.39533  -0.38683  -0.34647  -0.33290  -0.32118
 Alpha  occ. eigenvalues --   -0.28504  -0.27094  -0.25680  -0.23705
 Alpha virt. eigenvalues --    0.03152   0.04582   0.08374   0.10589   0.11134
 Alpha virt. eigenvalues --    0.11847   0.13254   0.15571   0.16260   0.17282
 Alpha virt. eigenvalues --    0.17500   0.19549   0.20641   0.21316   0.21949

 Mulliken charges:
               1
     1  C   -0.502809
     2  C    0.102615
     3  C   -0.035645
     4  C    0.195981
     5  O   -0.480185
     6  C   -0.252690
     7  C   -0.276581
     8  C    0.125520
     9  O   -0.433604
    10  H    0.152250
    11  H    0.153232
    12  H    0.151744
    13  H    0.289091
    14  H    0.116773
    15  H    0.113323
    16  H    0.108489
    17  H    0.101091
    18  H    0.093617
    19  H    0.277788
 Sum of Mulliken charges =   0.00000

 Dipole moment (field-independent basis, Debye):
    X=              1.9402    Y=              0.5535    Z=              0.2405  Tot=              2.0318
 Quadrupole moment (field-independent basis, Debye-Ang):
   XX=            -46.4152   YY=            -54.5565   ZZ=            -52.5830
   XY=             -3.0245   XZ=             -1.4766   YZ=             -4.5391

  Exact polarizability: 112.301  -3.699  67.491  -3.060  -2.040  65.243
 Approx polarizability: 154.326  -3.940  97.007  -9.358  -2.322  98.592

                      1                      2                      3
                      A                      A                      A
 Frequencies --      2.0267                76.1625                91.0707
 Red. masses --      1.0221                 3.3825                 3.4301
 Frc consts  --      0.0000                 0.0116                 0.0168
 IR Inten    --      0.0068                 0.5784                 3.3363

                      4                      5                      6
                      A                      A                      A
 Frequencies --    128.4080               203.2648               257.7412
 Red. masses --      2.8621                 1.3011                 3.5747
 Frc consts  --      0.0278                 0.0317                 0.1399
 IR Inten    --      0.2445               149.5166                 5.4756

                      7                      8                      9
                      A                      A                      A
 Frequencies --    276.8863               311.9833               356.8660
 Red. masses --      3.5324                 3.7270                 3.0773
 Frc consts  --      0.1596                 0.2137                 0.2309
 IR Inten    --      6.2037                 5.4214                19.4902

                     10                     11                     12
                      A                      A                      A
 Frequencies --    390.1249               485.6281               492.1131
 Red. masses --      3.5726                 3.1364                 4.9390
 Frc consts  --      0.3204                 0.4358                 0.7047
 IR Inten    --      1.9698                 1.9508                 2.4220

                     13                     14                     15
                      A                      A                      A
 Frequencies --    533.8720               565.2145               618.9232
 Red. masses --      1.3335                 3.5703                 3.3554
 Frc consts  --      0.2239                 0.6720                 0.7573
 IR Inten    --     31.4678                22.4719                 6.3991

                     16                     17                     18
                      A                      A                      A
 Frequencies --    716.1984               775.6096               888.7596
 Red. masses --      2.1082                 1.6010                 2.5811
 Frc consts  --      0.6371                 0.5675                 1.2012
 IR Inten    --      8.8918                 4.1829                18.2195

                     19                     20                     21
                      A                      A                      A
 Frequencies --    921.0298               956.1041               965.7097
 Red. masses --      2.8890                 2.1066                 4.5274
 Frc consts  --      1.4439                 1.1346                 2.4877
 IR Inten    --      8.8130                24.0462                 9.4857

                     22                     23                     24
                      A                      A                      A
 Frequencies --   1006.2592              1051.9001              1053.7867
 Red. masses --      3.1266                 1.4156                 1.4033
 Frc consts  --      1.8653                 0.9229                 0.9181
 IR Inten    --     27.5769                 1.0219                 0.8642

                     25                     26                     27
                      A                      A                      A
 Frequencies --   1081.2901              1127.5797              1150.2603
 Red. masses --      1.8618                 2.1869                 2.5863
 Frc consts  --      1.2825                 1.6383                 2.0161
 IR Inten    --     12.2909                32.1407               168.5868

                     28                     29                     30
                      A                      A                      A
 Frequencies --   1182.5834              1220.4364              1232.2394
 Red. masses --      1.8715                 1.2974                 1.7308
 Frc consts  --      1.5420                 1.1386                 1.5484
 IR Inten    --      3.8480                 5.9323                11.9804

                     31                     32                     33
                      A                      A                      A
 Frequencies --   1254.9950              1274.0928              1334.1446
 Red. masses --      1.4230                 1.4458                 1.5310
 Frc consts  --      1.3205                 1.3828                 1.6056
 IR Inten    --      5.6235                 2.1147                 4.4741

                     34                     35                     36
                      A                      A                      A
 Frequencies --   1381.4269              1413.7517              1439.5169
 Red. masses --      1.9298                 1.2489                 1.2139
 Frc consts  --      2.1698                 1.4707                 1.4820
 IR Inten    --     84.7204                 9.5704                70.7120

                     37                     38                     39
                      A                      A                      A
 Frequencies --   1467.8771              1475.8487              1477.8750
 Red. masses --      1.0974                 1.0393                 1.0397
 Frc consts  --      1.3932                 1.3338                 1.3380
 IR Inten    --     11.8336                 5.9153                 5.7414

                     40                     41                     42
                      A                      A                      A
 Frequencies --   1488.7527              2359.3565              3028.3164
 Red. masses --      1.1374                11.8903                 1.0347
 Frc consts  --      1.4853                38.9968                 5.5907
 IR Inten    --      7.1733                 7.6141                30.1148

                     43                     44                     45
                      A                      A                      A
 Frequencies --   3068.2340              3080.7030              3087.1169
 Red. masses --      1.0586                 1.0608                 1.0861
 Frc consts  --      5.8716                 5.9319                 6.0983
 IR Inten    --     30.8551                19.5052                13.0519

                     46                     47                     48
                      A                      A                      A
 Frequencies --   3089.9791              3090.6691              3122.0239
 Red. masses --      1.1004                 1.1000                 1.1074
 Frc consts  --      6.1904                 6.1908                 6.3593
 IR Inten    --      9.2259                 8.2454                17.1226

                     49                     50                     51
                      A                      A                      A
 Frequencies --   3143.5026              3743.8535              3815.5703
 Red. masses --      1.1085                 1.0644                 1.0663
 Frc consts  --      6.4540                 8.7899                 9.1465
 IR Inten    --     22.9330                30.8079                30.3134

 - Thermochemistry -
 -------------------
 Temperature   298.150 Kelvin.  Pressure   1.00000 Atm.
 Atom     1 has atomic number  6 and mass  12.00000

 Molecular mass:   126.06808 amu.
 Principal axes and moments of inertia in atomic units:
                           1         2         3
     Eigenvalues --   628.285701930.882452051.54667
           X            0.99983  -0.01792  -0.00308
           Y            0.01761   0.99657  -0.08085
           Z            0.00452   0.08078   0.99672
 This molecule is an asymmetric top.
 Rotational symmetry number  1.
 Warning -- assumption of classical behavior for rotation
           may cause significant error
 Rotational temperatures (Kelvin)      0.13786     0.04486     0.04222
 Rotational constants (GHZ):           2.87248     0.93467     0.87970
 Zero-point vibrational energy     411262.0 (Joules/Mol)
                                   98.29398 (Kcal/Mol)
 Warning -- explicit consideration of  15 degrees of freedom as
           vibrations may cause significant error
 Vibrational temperatures:      2.92   109.58   131.03   184.75   292.45
          (Kelvin)            370.83   398.38   448.87   513.45   561.30
                              698.71   708.04   768.12   813.22   890.49
                             1030.45  1115.93  1278.73  1325.15  1375.62
                             1389.44  1447.78  1513.45  1516.16  1555.73
                             1622.33  1654.97  1701.47  1755.93  1772.92
                             1805.66  1833.13  1919.53  1987.56  2034.07
                             2071.14  2111.95  2123.41  2126.33  2141.98
                             3394.58  4357.07  4414.50  4432.44  4441.67
                             4445.79  4446.78  4491.89  4522.79  5386.56
                             5489.75

 Zero-point correction=                           0.156641 (Hartree/Particle)
 Thermal correction to Energy=                    0.166859
 Thermal correction to Enthalpy=                  0.167804
 Thermal correction to Gibbs Free Energy=         0.117951
 Sum of electronic and zero-point Energies=           -422.990463
 Sum of electronic and thermal Energies=              -422.980245
 Sum of electronic and thermal Enthalpies=            -422.979301
 Sum of electronic and thermal Free Energies=         -423.029153

                     E (Thermal)             CV                S
                      KCal/Mol        Cal/Mol-Kelvin    Cal/Mol-Kelvin
 Total                  104.706             36.445            104.923
 Electronic               0.000              0.000              0.000
 Translational            0.889              2.981             40.409
 Rotational               0.889              2.981             29.300
 Vibrational            102.928             30.484             35.215
 Vibration     1          0.592              1.987             11.183
 Vibration     2          0.599              1.965              3.987
 Vibration     3          0.602              1.956              3.637
 Vibration     4          0.611              1.925              2.970
 Vibration     5          0.639              1.835              2.103
 Vibration     6          0.667              1.750              1.677
 Vibration     7          0.678              1.716              1.553
 Vibration     8          0.700              1.651              1.352
 Vibration     9          0.732              1.561              1.136
 Vibration    10          0.758              1.491              1.000
 Vibration    11          0.842              1.282              0.695
 Vibration    12          0.848              1.268              0.678
 Vibration    13          0.889              1.175              0.579
 Vibration    14          0.921              1.107              0.514
 Vibration    15          0.979              0.992              0.418

 Normal termination of Gaussian 09 at Mon Jan 27 14:37:56 2020.
