 Gaussian 09, Revision D.01,
 Gaussian 09:  ES64L-G09RevD.01 24-Apr-2013

 -----------------------------
 # b3lyp 6-31G(2df,p) opt Freq
 -----------------------------

 -----
 titel
 -----
 Symbolic Z-matrix:
 Charge =  0 Multiplicity = 1

 SCF Done:  E(RB3LYP) =  -423.166806509     A.U. after   14 cycles
 Optimization completed.
    -- Stationary point found.
 Normal termination of Gaussian 09 at Tue Jan 28 09:48:04 2020.

 ----------------------------------------------------------------------
 #N Geom=AllCheck Guess=TCheck SCRF=Check GenChk RB3LYP/6-31G(2df,p) Fr
 eq
 ----------------------------------------------------------------------

 Structure from the checkpoint file:  "/scratch/puck/g09_7a814c32-0b00-4f2d-81a8-41b14caaa6b4/Gau-96352.chk"
 -----
 titel
 -----
 Charge =  0 Multiplicity = 1

                         Standard orientation:
 ---------------------------------------------------------------------
 Center     Atomic      Atomic             Coordinates (Angstroms)
 Number     Number       Type             X           Y           Z
 ---------------------------------------------------------------------
      1          8           0        2.765280   -0.063474   -0.392119
      2          6           0        1.707913   -0.943268   -0.081461
      3          6           0        0.425587   -0.194032    0.204947
      4          8           0        0.629162    1.056370    0.903442
      5          6           0        0.061354    1.084388   -0.423883
      6          6           0       -1.448773    1.278259   -0.419910
      7          6           0       -1.990141   -0.000089    0.225675
      8          6           0       -1.754438   -1.295904   -0.508910
      9          6           0       -0.832854   -0.896164    0.620506
     10          1           0        2.688754    0.659889    0.244970
     11          1           0        1.566459   -1.611843   -0.938003
     12          1           0        1.949448   -1.577042    0.789422
     13          1           0        0.689120    1.554648   -1.174823
     14          1           0       -1.713616    2.166979    0.162490
     15          1           0       -1.828386    1.426687   -1.437626
     16          1           0       -2.860612    0.070922    0.866664
     17          1           0       -2.440997   -2.114256   -0.323070
     18          1           0       -1.377192   -1.254209   -1.526914
     19          1           0       -0.840403   -1.464083    1.544531
 ---------------------------------------------------------------------

 SCF Done:  E(RB3LYP) =  -423.166806509     A.U. after    1 cycles

 The electronic state is 1-A.
 Alpha  occ. eigenvalues --  -19.15176 -19.13084 -10.23955 -10.23506 -10.23026
 Alpha  occ. eigenvalues --  -10.19830 -10.19729 -10.19396 -10.19215  -1.07304
 Alpha  occ. eigenvalues --   -1.01182  -0.87742  -0.74691  -0.72657  -0.64319
 Alpha  occ. eigenvalues --   -0.62424  -0.56939  -0.55877  -0.53185  -0.49197
 Alpha  occ. eigenvalues --   -0.47006  -0.45258  -0.43783  -0.41887  -0.41205
 Alpha  occ. eigenvalues --   -0.39361  -0.36725  -0.35849  -0.33869  -0.32334
 Alpha  occ. eigenvalues --   -0.28553  -0.28063  -0.27051  -0.26043
 Alpha virt. eigenvalues --    0.08717   0.08811   0.09494   0.10622   0.11703
 Alpha virt. eigenvalues --    0.13112   0.14337   0.15482   0.15700   0.17031
 Alpha virt. eigenvalues --    0.17299   0.18384   0.19481   0.20651   0.22462

 Mulliken charges:
               1
     1  O   -0.418173
     2  C   -0.159367
     3  C    0.385934
     4  O   -0.319969
     5  C   -0.018232
     6  C   -0.260254
     7  C   -0.024606
     8  C   -0.294110
     9  C   -0.128289
    10  H    0.291738
    11  H    0.116448
    12  H    0.091348
    13  H    0.104387
    14  H    0.116475
    15  H    0.104467
    16  H    0.090385
    17  H    0.116445
    18  H    0.112812
    19  H    0.092562
 Sum of Mulliken charges =   0.00000

 Dipole moment (field-independent basis, Debye):
    X=             -2.0949    Y=             -0.5886    Z=             -0.2553  Tot=              2.1909
 Quadrupole moment (field-independent basis, Debye-Ang):
   XX=            -56.8737   YY=            -50.9622   ZZ=            -53.3478
   XY=              0.7382   XZ=              1.5866   YZ=             -2.2476

  Exact polarizability:  80.337  -0.406  77.007   1.373  -2.374  63.775
 Approx polarizability: 106.697  -0.384 114.443   4.088  -0.646 104.111

                      1                      2                      3
                      A                      A                      A
 Frequencies --    114.9296               174.1325               210.5936
 Red. masses --      3.8362                 3.8793                 2.2775
 Frc consts  --      0.0299                 0.0693                 0.0595
 IR Inten    --      6.1074                 0.6166                 0.4007

                      4                      5                      6
                      A                      A                      A
 Frequencies --    244.8797               360.3854               408.8613
 Red. masses --      3.1154                 2.1048                 2.6599
 Frc consts  --      0.1101                 0.1611                 0.2620
 IR Inten    --      9.2452                 1.5790                18.7849

                      7                      8                      9
                      A                      A                      A
 Frequencies --    453.7477               469.1911               499.0814
 Red. masses --      4.0717                 3.1022                 1.3634
 Frc consts  --      0.4939                 0.4024                 0.2001
 IR Inten    --     40.0134                 9.0514                88.7233

                     10                     11                     12
                      A                      A                      A
 Frequencies --    655.1991               691.9397               724.5573
 Red. masses --      3.6046                 3.3640                 3.7931
 Frc consts  --      0.9117                 0.9490                 1.1732
 IR Inten    --     15.3792                 5.3423                 4.6974

                     13                     14                     15
                      A                      A                      A
 Frequencies --    799.0068               821.5569               851.7267
 Red. masses --      2.1958                 1.8750                 2.1988
 Frc consts  --      0.8259                 0.7456                 0.9398
 IR Inten    --     10.5721                16.3758                 9.8156

                     16                     17                     18
                      A                      A                      A
 Frequencies --    882.9620               903.6582               964.2409
 Red. masses --      2.6275                 2.4392                 1.8903
 Frc consts  --      1.2069                 1.1736                 1.0355
 IR Inten    --     14.3211                 9.9982                 4.9427

                     19                     20                     21
                      A                      A                      A
 Frequencies --    981.9695              1000.8203              1026.4932
 Red. masses --      1.7968                 2.3988                 2.1236
 Frc consts  --      1.0208                 1.4157                 1.3184
 IR Inten    --      1.7621                 5.3072                11.0868

                     22                     23                     24
                      A                      A                      A
 Frequencies --   1069.0164              1071.3673              1087.8733
 Red. masses --      1.3896                 1.4251                 3.5861
 Frc consts  --      0.9356                 0.9638                 2.5005
 IR Inten    --      7.3666                 1.8330                83.2349

                     25                     26                     27
                      A                      A                      A
 Frequencies --   1101.9700              1110.3037              1122.2919
 Red. masses --      1.9364                 1.2337                 1.7826
 Frc consts  --      1.3854                 0.8961                 1.3228
 IR Inten    --      6.0357                 2.5709                 7.3255

                     28                     29                     30
                      A                      A                      A
 Frequencies --   1190.0831              1205.2886              1220.9372
 Red. masses --      1.4771                 1.9266                 1.1791
 Frc consts  --      1.2326                 1.6490                 1.0355
 IR Inten    --      4.1639                 3.2437                16.3935

                     31                     32                     33
                      A                      A                      A
 Frequencies --   1230.3019              1282.6859              1320.0803
 Red. masses --      1.3207                 1.4158                 1.7559
 Frc consts  --      1.1778                 1.3725                 1.8028
 IR Inten    --      6.0610                 8.7442                 0.0639

                     34                     35                     36
                      A                      A                      A
 Frequencies --   1344.6166              1378.5085              1388.8974
 Red. masses --      1.6064                 1.4208                 2.2734
 Frc consts  --      1.7112                 1.5907                 2.5838
 IR Inten    --      4.3258                11.0182                18.2355

                     37                     38                     39
                      A                      A                      A
 Frequencies --   1447.9739              1448.9287              1478.9053
 Red. masses --      1.4316                 2.8695                 1.1662
 Frc consts  --      1.7684                 3.5494                 1.5028
 IR Inten    --     40.2057                25.2477                 2.9654

                     40                     41                     42
                      A                      A                      A
 Frequencies --   1488.6083              1507.7052              2957.3218
 Red. masses --      1.2424                 1.0987                 1.0720
 Frc consts  --      1.6221                 1.4715                 5.5241
 IR Inten    --      4.2041                 0.1574                64.0675

                     43                     44                     45
                      A                      A                      A
 Frequencies --   3037.2406              3064.5934              3078.4979
 Red. masses --      1.0604                 1.0890                 1.1029
 Frc consts  --      5.7633                 6.0258                 6.1581
 IR Inten    --     37.4194                22.7558                15.7686

                     46                     47                     48
                      A                      A                      A
 Frequencies --   3123.0594              3164.8377              3167.2818
 Red. masses --      1.0556                 1.0905                 1.0897
 Frc consts  --      6.0663                 6.4354                 6.4404
 IR Inten    --     13.6345                17.8853                 9.2498

                     49                     50                     51
                      A                      A                      A
 Frequencies --   3182.1759              3212.7144              3755.9262
 Red. masses --      1.0933                 1.1138                 1.0649
 Frc consts  --      6.5229                 6.7731                 8.8511
 IR Inten    --     11.8331                13.4875                33.5498

 - Thermochemistry -
 -------------------
 Temperature   298.150 Kelvin.  Pressure   1.00000 Atm.
 Atom     1 has atomic number  8 and mass  15.99491

 Molecular mass:   126.06808 amu.
 Principal axes and moments of inertia in atomic units:
                           1         2         3
     Eigenvalues --   553.220421286.534461559.23100
           X            0.99997  -0.00501   0.00520
           Y            0.00519   0.99938  -0.03470
           Z           -0.00502   0.03472   0.99938
 This molecule is an asymmetric top.
 Rotational symmetry number  1.
 Warning -- assumption of classical behavior for rotation
           may cause significant error
 Rotational temperatures (Kelvin)      0.15656     0.06732     0.05555
 Rotational constants (GHZ):           3.26225     1.40279     1.15746
 Zero-point vibrational energy     421563.6 (Joules/Mol)
                                  100.75611 (Kcal/Mol)
 Warning -- explicit consideration of   9 degrees of freedom as
           vibrations may cause significant error
 Vibrational temperatures:    165.36   250.54   303.00   352.33   518.51
          (Kelvin)            588.26   652.84   675.06   718.07   942.68
                              995.55  1042.48  1149.59  1182.04  1225.44
                             1270.38  1300.16  1387.33  1412.83  1439.96
                             1476.89  1538.07  1541.46  1565.21  1585.49
                             1597.48  1614.73  1712.26  1734.14  1756.65
                             1770.13  1845.50  1899.30  1934.60  1983.36
                             1998.31  2083.31  2084.68  2127.81  2141.77
                             2169.25  4254.92  4369.91  4409.26  4429.27
                             4493.38  4553.49  4557.01  4578.44  4622.37
                             5403.93

 Zero-point correction=                           0.160565 (Hartree/Particle)
 Thermal correction to Energy=                    0.168251
 Thermal correction to Enthalpy=                  0.169195
 Thermal correction to Gibbs Free Energy=         0.128598
 Sum of electronic and zero-point Energies=           -423.006241
 Sum of electronic and thermal Energies=              -422.998555
 Sum of electronic and thermal Enthalpies=            -422.997611
 Sum of electronic and thermal Free Energies=         -423.038209

                     E (Thermal)             CV                S
                      KCal/Mol        Cal/Mol-Kelvin    Cal/Mol-Kelvin
 Total                  105.579             30.802             85.444
 Electronic               0.000              0.000              0.000
 Translational            0.889              2.981             40.409
 Rotational               0.889              2.981             28.497
 Vibrational            103.802             24.841             16.539
 Vibration     1          0.608              1.937              3.184
 Vibration     2          0.627              1.874              2.390
 Vibration     3          0.643              1.825              2.039
 Vibration     4          0.660              1.771              1.767
 Vibration     5          0.735              1.554              1.120
 Vibration     6          0.773              1.451              0.931
 Vibration     7          0.812              1.353              0.785
 Vibration     8          0.826              1.318              0.740
 Vibration     9          0.855              1.252              0.660

 Optimization completed.
    -- Stationary point found.
 Normal termination of Gaussian 09 at Tue Jan 28 10:33:24 2020.
