 Gaussian 09, Revision D.01,
 Gaussian 09:  ES64L-G09RevD.01 24-Apr-2013

 -----------------------------
 # b3lyp 6-31G(2df,p) opt Freq
 -----------------------------

 -----
 titel
 -----
 Symbolic Z-matrix:
 Charge =  0 Multiplicity = 1

 SCF Done:  E(RB3LYP) =  -423.133366608     A.U. after   14 cycles
 Optimization completed.
    -- Stationary point found.
 Normal termination of Gaussian 09 at Mon Jan 27 14:08:27 2020.

 ----------------------------------------------------------------------
 #N Geom=AllCheck Guess=TCheck SCRF=Check GenChk RB3LYP/6-31G(2df,p) Fr
 eq
 ----------------------------------------------------------------------

 Structure from the checkpoint file:  "/scratch/puck/g09_9e765fd9-4004-4d87-b4aa-c07366b45b98/Gau-4533.chk"
 -----
 titel
 -----
 Charge =  0 Multiplicity = 1

                         Standard orientation:
 ---------------------------------------------------------------------
 Center     Atomic      Atomic             Coordinates (Angstroms)
 Number     Number       Type             X           Y           Z
 ---------------------------------------------------------------------
      1          6           0        3.908583   -0.343061   -0.311160
      2          6           0        2.559113   -0.099123    0.177890
      3          6           0        1.445952    0.113431    0.583834
      4          6           0        0.091501    0.350837    1.069475
      5          6           0       -0.956035    0.392787   -0.049407
      6          8           0       -0.682930    1.520044   -0.835974
      7          6           0       -1.182515   -0.971792   -0.748067
      8          8           0       -2.390431   -1.187802    0.011037
      9          6           0       -2.406569    0.181128    0.459356
     10          1           0        4.269261   -1.335065   -0.017175
     11          1           0        3.950596   -0.286042   -1.404560
     12          1           0        4.613996    0.396196    0.084320
     13          1           0       -0.196670   -0.436862    1.776208
     14          1           0        0.041078    1.302530    1.613463
     15          1           0       -1.295123    1.530557   -1.579442
     16          1           0       -1.382849   -0.877517   -1.826426
     17          1           0       -0.435405   -1.755309   -0.586930
     18          1           0       -3.142911    0.789890   -0.087007
     19          1           0       -2.595267    0.268442    1.535520
 ---------------------------------------------------------------------

 SCF Done:  E(RB3LYP) =  -423.133366608     A.U. after    1 cycles

 The electronic state is 1-A.
 Alpha  occ. eigenvalues --  -19.14779 -19.13764 -10.24948 -10.23004 -10.22863
 Alpha  occ. eigenvalues --  -10.20601 -10.20053 -10.16954 -10.16540  -1.05220
 Alpha  occ. eigenvalues --   -1.02312  -0.79659  -0.76122  -0.70423  -0.69550
 Alpha  occ. eigenvalues --   -0.65865  -0.57668  -0.52705  -0.50296  -0.48455
 Alpha  occ. eigenvalues --   -0.45557  -0.43252  -0.42631  -0.42278  -0.41594
 Alpha  occ. eigenvalues --   -0.40210  -0.39649  -0.39443  -0.36644  -0.30411
 Alpha  occ. eigenvalues --   -0.27092  -0.25572  -0.24618  -0.24390
 Alpha virt. eigenvalues --    0.04997   0.06114   0.07109   0.08660   0.11289
 Alpha virt. eigenvalues --    0.12623   0.13074   0.14378   0.15793   0.16766
 Alpha virt. eigenvalues --    0.17906   0.18243   0.18638   0.19807   0.20917

 Mulliken charges:
               1
     1  C   -0.496883
     2  C    0.076375
     3  C    0.062349
     4  C   -0.380503
     5  C    0.344431
     6  O   -0.465410
     7  C   -0.126199
     8  O   -0.271571
     9  C   -0.133588
    10  H    0.145384
    11  H    0.147700
    12  H    0.148051
    13  H    0.135393
    14  H    0.133419
    15  H    0.281275
    16  H    0.086775
    17  H    0.119018
    18  H    0.086883
    19  H    0.107103
 Sum of Mulliken charges =   0.00000

 Dipole moment (field-independent basis, Debye):
    X=              0.3961    Y=              0.4821    Z=             -0.6816  Tot=              0.9241
 Quadrupole moment (field-independent basis, Debye-Ang):
   XX=            -49.1817   YY=            -56.5609   ZZ=            -48.9513
   XY=             -6.5272   XZ=              0.0770   YZ=              0.3636

  Exact polarizability: 107.444  -7.103  63.975  -8.311   2.500  68.482
 Approx polarizability: 143.291  -9.959  96.206 -17.659   3.026 101.353

                      1                      2                      3
                      A                      A                      A
 Frequencies --     28.6168                56.0211                82.3554
 Red. masses --      1.0247                 4.4533                 3.5401
 Frc consts  --      0.0005                 0.0082                 0.0141
 IR Inten    --      0.0008                 0.1737                 0.3528

                      4                      5                      6
                      A                      A                      A
 Frequencies --    113.6078               213.5037               241.2734
 Red. masses --      3.8327                 3.1114                 3.4275
 Frc consts  --      0.0291                 0.0836                 0.1176
 IR Inten    --      8.3536                 5.6086                 2.4591

                      7                      8                      9
                      A                      A                      A
 Frequencies --    292.2431               322.1087               345.4897
 Red. masses --      1.6358                 1.6352                 1.9942
 Frc consts  --      0.0823                 0.1000                 0.1402
 IR Inten    --     16.4469                48.4898                18.3353

                     10                     11                     12
                      A                      A                      A
 Frequencies --    386.2800               406.1356               428.1284
 Red. masses --      3.9862                 3.5426                 3.6579
 Frc consts  --      0.3504                 0.3443                 0.3950
 IR Inten    --      0.3964                 5.5523                15.7564

                     13                     14                     15
                      A                      A                      A
 Frequencies --    506.1697               695.8148               772.2587
 Red. masses --      3.7439                 4.4289                 3.8889
 Frc consts  --      0.5652                 1.2634                 1.3665
 IR Inten    --      5.9468                 8.9224                 0.7720

                     16                     17                     18
                      A                      A                      A
 Frequencies --    836.7931               894.6139               927.4620
 Red. masses --      3.1200                 2.0210                 1.9401
 Frc consts  --      1.2872                 0.9530                 0.9832
 IR Inten    --      4.6606                 4.4524                33.0371

                     19                     20                     21
                      A                      A                      A
 Frequencies --    957.8463              1008.3444              1022.9492
 Red. masses --      1.5520                 3.8337                 9.8927
 Frc consts  --      0.8389                 2.2966                 6.0992
 IR Inten    --      5.7707                 4.1943                84.4100

                     22                     23                     24
                      A                      A                      A
 Frequencies --   1051.7529              1054.5709              1079.8869
 Red. masses --      1.4345                 1.3980                 3.9306
 Frc consts  --      0.9349                 0.9161                 2.7006
 IR Inten    --      0.9402                 0.1140                 8.4718

                     25                     26                     27
                      A                      A                      A
 Frequencies --   1128.5060              1142.5002              1162.3484
 Red. masses --      1.7934                 1.0902                 1.3857
 Frc consts  --      1.3457                 0.8384                 1.1031
 IR Inten    --      9.5003                 0.3966                 8.8698

                     28                     29                     30
                      A                      A                      A
 Frequencies --   1170.0855              1175.6623              1287.7169
 Red. masses --      3.1677                 1.5623                 1.3575
 Frc consts  --      2.5552                 1.2723                 1.3262
 IR Inten    --      2.5818                78.3194                15.3792

                     31                     32                     33
                      A                      A                      A
 Frequencies --   1298.1790              1337.7180              1371.6995
 Red. masses --      1.5215                 1.5512                 1.6067
 Frc consts  --      1.5107                 1.6354                 1.7811
 IR Inten    --     29.7472                15.6079                 2.1893

                     34                     35                     36
                      A                      A                      A
 Frequencies --   1405.7346              1415.5062              1459.6227
 Red. masses --      1.9733                 1.2594                 1.0920
 Frc consts  --      2.2975                 1.4868                 1.3708
 IR Inten    --     48.4908                 5.7861                 6.4539

                     37                     38                     39
                      A                      A                      A
 Frequencies --   1478.7479              1479.5572              1503.4596
 Red. masses --      1.0396                 1.0399                 1.0793
 Frc consts  --      1.3394                 1.3413                 1.4374
 IR Inten    --      5.2866                 5.1560                 0.2246

                     40                     41                     42
                      A                      A                      A
 Frequencies --   1530.1024              2375.8985              2981.0495
 Red. masses --      1.1151                11.8240                 1.0621
 Frc consts  --      1.5381                39.3253                 5.5609
 IR Inten    --      2.7225                 2.0787                76.3430

                     43                     44                     45
                      A                      A                      A
 Frequencies --   2992.8111              3023.9401              3026.1600
 Red. masses --      1.0678                 1.0589                 1.0348
 Frc consts  --      5.6349                 5.7049                 5.5833
 IR Inten    --     58.6381                18.1002                34.0527

                     46                     47                     48
                      A                      A                      A
 Frequencies --   3058.5439              3063.3032              3078.0826
 Red. masses --      1.1014                 1.1014                 1.0986
 Frc consts  --      6.0706                 6.0894                 6.1328
 IR Inten    --     32.3384                16.2031                30.6603

                     49                     50                     51
                      A                      A                      A
 Frequencies --   3086.0646              3086.8446              3808.1565
 Red. masses --      1.1002                 1.1000                 1.0659
 Frc consts  --      6.1737                 6.1756                 9.1072
 IR Inten    --     11.4562                10.5809                15.4771

 - Thermochemistry -
 -------------------
 Temperature   298.150 Kelvin.  Pressure   1.00000 Atm.
 Atom     1 has atomic number  6 and mass  12.00000

 Molecular mass:   126.06808 amu.
 Principal axes and moments of inertia in atomic units:
                           1         2         3
     Eigenvalues --   511.341032197.665892309.07609
           X            0.99982  -0.01615  -0.00989
           Y            0.01686   0.99691   0.07678
           Z            0.00862  -0.07693   0.99700
 This molecule is an asymmetric top.
 Rotational symmetry number  1.
 Warning -- assumption of classical behavior for rotation
           may cause significant error
 Rotational temperatures (Kelvin)      0.16939     0.03941     0.03751
 Rotational constants (GHZ):           3.52943     0.82121     0.78159
 Zero-point vibrational energy     410631.5 (Joules/Mol)
                                   98.14329 (Kcal/Mol)
 Warning -- explicit consideration of  13 degrees of freedom as
           vibrations may cause significant error
 Vibrational temperatures:     41.17    80.60   118.49   163.46   307.18
          (Kelvin)            347.14   420.47   463.44   497.08   555.77
                              584.34   615.98   728.26  1001.12  1111.11
                             1203.96  1287.15  1334.41  1378.13  1450.78
                             1471.79  1513.24  1517.29  1553.71  1623.67
                             1643.80  1672.36  1683.49  1691.51  1852.74
                             1867.79  1924.68  1973.57  2022.54  2036.60
                             2100.07  2127.59  2128.75  2163.14  2201.47
                             3418.38  4289.06  4305.98  4350.77  4353.96
                             4400.56  4407.40  4428.67  4440.15  4441.28
                             5479.08

 Zero-point correction=                           0.156401 (Hartree/Particle)
 Thermal correction to Energy=                    0.166526
 Thermal correction to Enthalpy=                  0.167470
 Thermal correction to Gibbs Free Energy=         0.119738
 Sum of electronic and zero-point Energies=           -422.976965
 Sum of electronic and thermal Energies=              -422.966841
 Sum of electronic and thermal Enthalpies=            -422.965897
 Sum of electronic and thermal Free Energies=         -423.013629

                     E (Thermal)             CV                S
                      KCal/Mol        Cal/Mol-Kelvin    Cal/Mol-Kelvin
 Total                  104.497             35.437            100.461
 Electronic               0.000              0.000              0.000
 Translational            0.889              2.981             40.409
 Rotational               0.889              2.981             29.341
 Vibrational            102.719             29.476             30.712
 Vibration     1          0.593              1.984              5.923
 Vibration     2          0.596              1.975              4.593
 Vibration     3          0.600              1.961              3.834
 Vibration     4          0.607              1.938              3.206
 Vibration     5          0.644              1.820              2.014
 Vibration     6          0.658              1.777              1.793
 Vibration     7          0.688              1.688              1.461
 Vibration     8          0.707              1.631              1.299
 Vibration     9          0.724              1.584              1.187
 Vibration    10          0.755              1.499              1.014
 Vibration    11          0.771              1.457              0.940
 Vibration    12          0.790              1.409              0.865
 Vibration    13          0.861              1.236              0.643

 Optimization completed on the basis of negligible forces.
    -- Stationary point found.
 Normal termination of Gaussian 09 at Mon Jan 27 15:53:26 2020.
