 Gaussian 09, Revision D.01,
 Gaussian 09:  ES64L-G09RevD.01 24-Apr-2013

 -----------------------------
 # b3lyp 6-31G(2df,p) opt Freq
 -----------------------------

 -----
 titel
 -----
 Symbolic Z-matrix:
 Charge =  0 Multiplicity = 1

 SCF Done:  E(RB3LYP) =  -423.257712801     A.U. after   14 cycles
 Optimization completed.
    -- Stationary point found.
 Normal termination of Gaussian 09 at Mon Jan 27 22:03:54 2020.

 ----------------------------------------------------------------------
 #N Geom=AllCheck Guess=TCheck SCRF=Check GenChk RB3LYP/6-31G(2df,p) Fr
 eq
 ----------------------------------------------------------------------

 Structure from the checkpoint file:  "/scratch/puck/g09_a06ca5b3-d471-4005-a9f4-7122cd5faba0/Gau-53253.chk"
 -----
 titel
 -----
 Charge =  0 Multiplicity = 1

                         Standard orientation:
 ---------------------------------------------------------------------
 Center     Atomic      Atomic             Coordinates (Angstroms)
 Number     Number       Type             X           Y           Z
 ---------------------------------------------------------------------
      1          6           0        1.719454    1.779850   -0.000055
      2          6           0        0.494677    0.926733   -0.000239
      3          6           0       -0.785681    1.304221   -0.000258
      4          6           0       -1.654751    0.109897    0.000049
      5          8           0       -2.850904    0.022375    0.000169
      6          8           0       -0.834757   -0.991958    0.000189
      7          6           0        0.551098   -0.593366   -0.000009
      8          6           0        1.201282   -1.157442    1.269441
      9          6           0        1.200942   -1.157934   -1.269412
     10          1           0        2.340384    1.579410    0.881005
     11          1           0        2.343814    1.575304   -0.877703
     12          1           0        1.462676    2.841342   -0.002940
     13          1           0       -1.187186    2.307602   -0.000474
     14          1           0        1.110635   -2.246725    1.277358
     15          1           0        2.263687   -0.899908    1.311099
     16          1           0        0.708075   -0.761763    2.161040
     17          1           0        1.109666   -2.247165   -1.277106
     18          1           0        0.707922   -0.762155   -2.161069
     19          1           0        2.263494   -0.901040   -1.311175
 ---------------------------------------------------------------------

 SCF Done:  E(RB3LYP) =  -423.257712801     A.U. after    1 cycles

 The electronic state is 1-A.
 Alpha  occ. eigenvalues --  -19.16797 -19.10920 -10.29250 -10.26286 -10.22120
 Alpha  occ. eigenvalues --  -10.20791 -10.19541 -10.19287 -10.19287  -1.08841
 Alpha  occ. eigenvalues --   -1.00969  -0.83707  -0.78768  -0.72954  -0.70828
 Alpha  occ. eigenvalues --   -0.63443  -0.58280  -0.55232  -0.48944  -0.47416
 Alpha  occ. eigenvalues --   -0.45469  -0.44100  -0.43960  -0.42625  -0.40665
 Alpha  occ. eigenvalues --   -0.40317  -0.40297  -0.39705  -0.36756  -0.36521
 Alpha  occ. eigenvalues --   -0.33852  -0.29198  -0.27074  -0.25889
 Alpha virt. eigenvalues --   -0.03336   0.06626   0.08814   0.10959   0.11886
 Alpha virt. eigenvalues --    0.12122   0.12464   0.14294   0.14721   0.17052
 Alpha virt. eigenvalues --    0.18867   0.19037   0.19846   0.20176   0.21687

 Mulliken charges:
               1
     1  C   -0.502902
     2  C    0.333396
     3  C   -0.387760
     4  C    0.419945
     5  O   -0.353875
     6  O   -0.258050
     7  C    0.250723
     8  C   -0.414830
     9  C   -0.414822
    10  H    0.143393
    11  H    0.143289
    12  H    0.140417
    13  H    0.125542
    14  H    0.136713
    15  H    0.119140
    16  H    0.131912
    17  H    0.136725
    18  H    0.131910
    19  H    0.119134
 Sum of Mulliken charges =   0.00000

 Dipole moment (field-independent basis, Debye):
    X=              5.1657    Y=              1.3810    Z=             -0.0001  Tot=              5.3471
 Quadrupole moment (field-independent basis, Debye-Ang):
   XX=            -62.6899   YY=            -50.1936   ZZ=            -52.0968
   XY=             -1.6976   XZ=              0.0022   YZ=              0.0008

  Exact polarizability:  99.458  -3.308  76.658   0.004   0.000  59.468
 Approx polarizability: 161.321  -6.138 108.106   0.004  -0.001  86.063

                      1                      2                      3
                      A                      A                      A
 Frequencies --    108.5805               137.7003               187.4581
 Red. masses --      3.2116                 1.5865                 1.4927
 Frc consts  --      0.0223                 0.0177                 0.0309
 IR Inten    --      0.1290                 0.0924                 0.4425

                      4                      5                      6
                      A                      A                      A
 Frequencies --    214.5225               225.8195               246.0215
 Red. masses --      1.4453                 1.9786                 1.0758
 Frc consts  --      0.0392                 0.0594                 0.0384
 IR Inten    --      1.5501                 0.8575                 0.0831

                      7                      8                      9
                      A                      A                      A
 Frequencies --    258.1263               314.2593               367.3392
 Red. masses --      2.3554                 2.6701                 3.0705
 Frc consts  --      0.0925                 0.1554                 0.2441
 IR Inten    --      0.1871                 0.7723                 0.7903

                     10                     11                     12
                      A                      A                      A
 Frequencies --    428.7149               549.9064               575.4365
 Red. masses --      3.8435                 3.7022                 4.8191
 Frc consts  --      0.4162                 0.6596                 0.9402
 IR Inten    --      0.5618                 3.5896                 0.6598

                     13                     14                     15
                      A                      A                      A
 Frequencies --    590.8242               623.5549               729.7677
 Red. masses --      3.2822                 4.6146                 3.7981
 Frc consts  --      0.6750                 1.0571                 1.1918
 IR Inten    --      9.6259                 2.1954                 4.2615

                     16                     17                     18
                      A                      A                      A
 Frequencies --    749.1212               880.6289               894.4988
 Red. masses --      3.6627                 1.5057                 3.1409
 Frc consts  --      1.2110                 0.6880                 1.4807
 IR Inten    --      1.4996                24.2451                10.1945

                     19                     20                     21
                      A                      A                      A
 Frequencies --    935.3140               943.9361               987.7576
 Red. masses --      1.4796                 2.8619                 2.7551
 Frc consts  --      0.7626                 1.5024                 1.5837
 IR Inten    --      0.0517                32.7432                63.0820

                     22                     23                     24
                      A                      A                      A
 Frequencies --   1012.0191              1018.3001              1067.1951
 Red. masses --      1.2762                 1.6133                 1.5940
 Frc consts  --      0.7701                 0.9856                 1.0696
 IR Inten    --      0.6626                 0.3920                 2.4462

                     25                     26                     27
                      A                      A                      A
 Frequencies --   1099.8049              1179.0173              1202.2893
 Red. masses --      2.8902                 2.0223                 3.7351
 Frc consts  --      2.0597                 1.6563                 3.1811
 IR Inten    --     33.6239                26.7582                15.5930

                     28                     29                     30
                      A                      A                      A
 Frequencies --   1222.7788              1267.1141              1334.8856
 Red. masses --      2.4724                 3.9504                 2.8357
 Frc consts  --      2.1780                 3.7370                 2.9771
 IR Inten    --     18.2636               101.5456                 0.8002

                     31                     32                     33
                      A                      A                      A
 Frequencies --   1393.2456              1412.3632              1416.9297
 Red. masses --      1.2438                 1.2795                 1.2363
 Frc consts  --      1.4225                 1.5038                 1.4625
 IR Inten    --      6.9158                 3.9278                 2.8883

                     34                     35                     36
                      A                      A                      A
 Frequencies --   1471.1551              1480.3048              1481.2335
 Red. masses --      1.0460                 1.0440                 1.0624
 Frc consts  --      1.3339                 1.3479                 1.3734
 IR Inten    --      5.0155                 4.3055                 8.6652

                     37                     38                     39
                      A                      A                      A
 Frequencies --   1486.3626              1496.6280              1504.0741
 Red. masses --      1.0468                 1.0685                 1.0565
 Frc consts  --      1.3626                 1.4102                 1.4082
 IR Inten    --      1.0589                 1.3357                 4.8661

                     40                     41                     42
                      A                      A                      A
 Frequencies --   1701.8714              1866.1903              3030.5935
 Red. masses --      7.7222                12.6243                 1.0381
 Frc consts  --     13.1778                25.9042                 5.6173
 IR Inten    --     34.4781               494.5226                 9.9139

                     43                     44                     45
                      A                      A                      A
 Frequencies --   3042.7102              3047.7460              3081.1200
 Red. masses --      1.0343                 1.0346                 1.0980
 Frc consts  --      5.6416                 5.6623                 6.1414
 IR Inten    --     10.9726                15.3162                11.4975

                     46                     47                     48
                      A                      A                      A
 Frequencies --   3117.6534              3122.9042              3126.8161
 Red. masses --      1.1016                 1.1013                 1.1000
 Frc consts  --      6.3088                 6.3280                 6.3364
 IR Inten    --      1.7619                28.8101                12.1083

                     49                     50                     51
                      A                      A                      A
 Frequencies --   3127.5203              3130.1183              3240.3313
 Red. masses --      1.1033                 1.1028                 1.0975
 Frc consts  --      6.3585                 6.3660                 6.7893
 IR Inten    --      8.4763                20.9938                 1.5581

 - Thermochemistry -
 -------------------
 Temperature   298.150 Kelvin.  Pressure   1.00000 Atm.
 Atom     1 has atomic number  6 and mass  12.00000

 Molecular mass:   126.06808 amu.
 Principal axes and moments of inertia in atomic units:
                           1         2         3
     Eigenvalues --   745.995141219.957711563.13734
           X            0.99995  -0.00961   0.00001
           Y            0.00961   0.99995   0.00002
           Z           -0.00001  -0.00002   1.00000
 This molecule is an asymmetric top.
 Rotational symmetry number  1.
 Warning -- assumption of classical behavior for rotation
           may cause significant error
 Rotational temperatures (Kelvin)      0.11611     0.07100     0.05541
 Rotational constants (GHZ):           2.41924     1.47935     1.15456
 Zero-point vibrational energy     413492.6 (Joules/Mol)
                                   98.82710 (Kcal/Mol)
 Warning -- explicit consideration of  13 degrees of freedom as
           vibrations may cause significant error
 Vibrational temperatures:    156.22   198.12   269.71   308.65   324.90
          (Kelvin)            353.97   371.39   452.15   528.52   616.82
                              791.19   827.92   850.06   897.16  1049.97
                             1077.82  1267.03  1286.98  1345.71  1358.11
                             1421.16  1456.07  1465.10  1535.45  1582.37
                             1696.34  1729.82  1759.30  1823.09  1920.60
                             2004.57  2032.07  2038.64  2116.66  2129.83
                             2131.16  2138.54  2153.31  2164.02  2448.61
                             2685.03  4360.34  4377.78  4385.02  4433.04
                             4485.60  4493.16  4498.79  4499.80  4503.54
                             4662.11

 Zero-point correction=                           0.157491 (Hartree/Particle)
 Thermal correction to Energy=                    0.166710
 Thermal correction to Enthalpy=                  0.167654
 Thermal correction to Gibbs Free Energy=         0.124003
 Sum of electronic and zero-point Energies=           -423.100222
 Sum of electronic and thermal Energies=              -423.091003
 Sum of electronic and thermal Enthalpies=            -423.090058
 Sum of electronic and thermal Free Energies=         -423.133710

                     E (Thermal)             CV                S
                      KCal/Mol        Cal/Mol-Kelvin    Cal/Mol-Kelvin
 Total                  104.612             34.560             91.872
 Electronic               0.000              0.000              0.000
 Translational            0.889              2.981             40.409
 Rotational               0.889              2.981             28.744
 Vibrational            102.835             28.598             22.720
 Vibration     1          0.606              1.942              3.294
 Vibration     2          0.614              1.916              2.836
 Vibration     3          0.632              1.857              2.253
 Vibration     4          0.644              1.819              2.005
 Vibration     5          0.650              1.802              1.912
 Vibration     6          0.660              1.769              1.759
 Vibration     7          0.667              1.749              1.674
 Vibration     8          0.702              1.646              1.340
 Vibration     9          0.740              1.539              1.091
 Vibration    10          0.790              1.408              0.863
 Vibration    11          0.905              1.140              0.544
 Vibration    12          0.932              1.084              0.494
 Vibration    13          0.948              1.051              0.466

 Normal termination of Gaussian 09 at Mon Jan 27 22:51:39 2020.
