 Gaussian 09, Revision D.01,
 Gaussian 09:  ES64L-G09RevD.01 24-Apr-2013

 -----------------------------
 # b3lyp 6-31G(2df,p) opt Freq
 -----------------------------

 -----
 titel
 -----
 Symbolic Z-matrix:
 Charge =  0 Multiplicity = 1

 SCF Done:  E(RB3LYP) =  -423.165219194     A.U. after   15 cycles
 Optimization completed.
    -- Stationary point found.
 Normal termination of Gaussian 09 at Tue Jan 28 08:10:03 2020.

 ----------------------------------------------------------------------
 #N Geom=AllCheck Guess=TCheck SCRF=Check GenChk RB3LYP/6-31G(2df,p) Fr
 eq
 ----------------------------------------------------------------------

 Structure from the checkpoint file:  "/scratch/puck/g09_64634f38-c933-4728-a17a-32feeaae019b/Gau-127983.chk"
 -----
 titel
 -----
 Charge =  0 Multiplicity = 1

                         Standard orientation:
 ---------------------------------------------------------------------
 Center     Atomic      Atomic             Coordinates (Angstroms)
 Number     Number       Type             X           Y           Z
 ---------------------------------------------------------------------
      1          6           0       -1.342396   -1.069587   -1.269035
      2          6           0       -0.856543   -0.322207    0.000000
      3          6           0       -1.342388   -1.069580    1.269041
      4          6           0       -1.372448    1.047992   -0.000003
      5          6           0       -1.835161    2.157714   -0.000004
      6          6           0        0.687917   -0.364484   -0.000002
      7          8           0        1.269483   -1.428635   -0.000003
      8          6           0        1.494741    0.920304    0.000004
      9          8           0        2.865262    0.659311   -0.000005
     10          1           0       -1.028215   -0.548885   -2.177569
     11          1           0       -0.924232   -2.078396   -1.278029
     12          1           0       -2.433536   -1.128273   -1.268621
     13          1           0       -1.028204   -0.548874    2.177572
     14          1           0       -2.433527   -1.128269    1.268634
     15          1           0       -0.924221   -2.078388    1.278039
     16          1           0       -2.232094    3.143095    0.000001
     17          1           0        1.191480    1.514965   -0.877088
     18          1           0        1.191483    1.514948    0.877109
     19          1           0        2.940771   -0.308237    0.000007
 ---------------------------------------------------------------------

 SCF Done:  E(RB3LYP) =  -423.165219194     A.U. after    1 cycles

 The electronic state is 1-A.
 Alpha  occ. eigenvalues --  -19.15433 -19.13074 -10.28507 -10.23985 -10.23822
 Alpha  occ. eigenvalues --  -10.19469 -10.19468 -10.19360 -10.18699  -1.07019
 Alpha  occ. eigenvalues --   -1.01350  -0.84375  -0.74372  -0.72606  -0.70433
 Alpha  occ. eigenvalues --   -0.63716  -0.57153  -0.54157  -0.51393  -0.48092
 Alpha  occ. eigenvalues --   -0.47689  -0.46181  -0.43028  -0.42953  -0.41016
 Alpha  occ. eigenvalues --   -0.39161  -0.38362  -0.37703  -0.35793  -0.34428
 Alpha  occ. eigenvalues --   -0.29990  -0.28044  -0.26890  -0.25961
 Alpha virt. eigenvalues --   -0.03080   0.03650   0.04280   0.08196   0.11662
 Alpha virt. eigenvalues --    0.12351   0.12778   0.13870   0.14385   0.14860
 Alpha virt. eigenvalues --    0.17812   0.17944   0.18057   0.20768   0.21122

 Mulliken charges:
               1
     1  C   -0.402242
     2  C   -0.063262
     3  C   -0.402242
     4  C    0.332402
     5  C   -0.472982
     6  C    0.366881
     7  O   -0.341677
     8  C   -0.148960
     9  O   -0.422393
    10  H    0.129587
    11  H    0.142316
    12  H    0.129179
    13  H    0.129586
    14  H    0.129179
    15  H    0.142316
    16  H    0.203192
    17  H    0.127607
    18  H    0.127606
    19  H    0.293909
 Sum of Mulliken charges =   0.00000

 Dipole moment (field-independent basis, Debye):
    X=             -2.6752    Y=              0.3869    Z=              0.0000  Tot=              2.7030
 Quadrupole moment (field-independent basis, Debye-Ang):
   XX=            -58.9933   YY=            -51.8018   ZZ=            -52.3193
   XY=             -2.1214   XZ=              0.0001   YZ=              0.0000

  Exact polarizability:  81.673  -7.943  90.321   0.000   0.000  60.926
 Approx polarizability: 112.555 -21.569 147.237   0.000   0.000  87.836

                      1                      2                      3
                      A                      A                      A
 Frequencies --     14.2225               128.3766               135.9501
 Red. masses --      5.1157                 2.6145                 4.4867
 Frc consts  --      0.0006                 0.0254                 0.0489
 IR Inten    --      0.5470                 5.9040                 0.1029

                      4                      5                      6
                      A                      A                      A
 Frequencies --    181.6645               222.6246               235.8998
 Red. masses --      2.9791                 1.4252                 2.4080
 Frc consts  --      0.0579                 0.0416                 0.0790
 IR Inten    --      1.1204                 0.8776                 0.0526

                      7                      8                      9
                      A                      A                      A
 Frequencies --    253.3918               277.5768               299.3373
 Red. masses --      1.6279                 1.2426                 2.9186
 Frc consts  --      0.0616                 0.0564                 0.1541
 IR Inten    --      0.3938                 1.2825                 2.5749

                     10                     11                     12
                      A                      A                      A
 Frequencies --    355.6150               399.5788               413.0719
 Red. masses --      4.1008                 4.0133                 1.1343
 Frc consts  --      0.3055                 0.3775                 0.1140
 IR Inten    --     21.9436                 9.5298                50.4400

                     13                     14                     15
                      A                      A                      A
 Frequencies --    501.9774               526.4267               575.3986
 Red. masses --      8.0174                 3.4165                 2.7459
 Frc consts  --      1.1903                 0.5578                 0.5356
 IR Inten    --      0.2398                20.3077                 2.0270

                     16                     17                     18
                      A                      A                      A
 Frequencies --    597.7960               637.8659               656.9199
 Red. masses --      4.2749                 1.2246                 1.2397
 Frc consts  --      0.9001                 0.2936                 0.3152
 IR Inten    --      7.6724                41.9633                42.4974

                     19                     20                     21
                      A                      A                      A
 Frequencies --    778.0003               848.8831               944.3332
 Red. masses --      4.0382                 2.9208                 2.2224
 Frc consts  --      1.4401                 1.2401                 1.1677
 IR Inten    --      1.2487                 0.8394                 9.8917

                     22                     23                     24
                      A                      A                      A
 Frequencies --    947.9423               979.4872              1045.0829
 Red. masses --      1.7933                 1.6542                 1.4674
 Frc consts  --      0.9495                 0.9351                 0.9443
 IR Inten    --      0.9764                 0.0414                 0.4344

                     25                     26                     27
                      A                      A                      A
 Frequencies --   1069.9428              1138.2214              1148.4497
 Red. masses --      3.5328                 3.2726                 2.8652
 Frc consts  --      2.3828                 2.4980                 2.2265
 IR Inten    --    174.8214                 0.6154                41.3824

                     28                     29                     30
                      A                      A                      A
 Frequencies --   1220.2207              1239.1345              1247.2992
 Red. masses --      2.4363                 1.1011                 2.8453
 Frc consts  --      2.1373                 0.9961                 2.6081
 IR Inten    --      2.2918                 1.9962                31.8718

                     31                     32                     33
                      A                      A                      A
 Frequencies --   1310.9122              1387.5842              1410.7028
 Red. masses --      1.5414                 1.1859                 1.1983
 Frc consts  --      1.5607                 1.3453                 1.4051
 IR Inten    --     69.5992                 2.2837                 5.7876

                     34                     35                     36
                      A                      A                      A
 Frequencies --   1448.1574              1475.7470              1481.4686
 Red. masses --      1.2944                 1.0948                 1.0469
 Frc consts  --      1.5994                 1.4048                 1.3538
 IR Inten    --     71.7204                24.0061                 2.8493

                     37                     38                     39
                      A                      A                      A
 Frequencies --   1484.9305              1497.8686              1507.6650
 Red. masses --      1.0465                 1.0550                 1.0565
 Frc consts  --      1.3596                 1.3945                 1.4150
 IR Inten    --      0.6713                 7.4495                 7.1303

                     40                     41                     42
                      A                      A                      A
 Frequencies --   1784.7315              2231.5287              2982.9120
 Red. masses --     11.1112                 5.9294                 1.0576
 Frc consts  --     20.8525                17.3965                 5.5446
 IR Inten    --    116.9926                 0.3556                30.0074

                     43                     44                     45
                      A                      A                      A
 Frequencies --   2997.1293              3048.3645              3050.7287
 Red. masses --      1.0998                 1.0327                 1.0336
 Frc consts  --      5.8206                 5.6541                 5.6678
 IR Inten    --     15.7334                19.6221                 9.5730

                     46                     47                     48
                      A                      A                      A
 Frequencies --   3124.7370              3126.7942              3138.4897
 Red. masses --      1.1031                 1.1025                 1.1039
 Frc consts  --      6.3456                 6.3507                 6.4066
 IR Inten    --     10.5492                21.0106                 1.0181

                     49                     50                     51
                      A                      A                      A
 Frequencies --   3142.4730              3498.9488              3688.0754
 Red. masses --      1.1032                 1.1619                 1.0644
 Frc consts  --      6.4185                 8.3812                 8.5302
 IR Inten    --     16.3569                71.5308                58.6487

 - Thermochemistry -
 -------------------
 Temperature   298.150 Kelvin.  Pressure   1.00000 Atm.
 Atom     1 has atomic number  6 and mass  12.00000

 Molecular mass:   126.06808 amu.
 Principal axes and moments of inertia in atomic units:
                           1         2         3
     Eigenvalues --   827.426561404.572951829.92769
           X            0.99927   0.03824   0.00000
           Y           -0.03824   0.99927   0.00000
           Z            0.00000   0.00000   1.00000
 This molecule is an asymmetric top.
 Rotational symmetry number  1.
 Warning -- assumption of classical behavior for rotation
           may cause significant error
 Rotational temperatures (Kelvin)      0.10468     0.06167     0.04733
 Rotational constants (GHZ):           2.18115     1.28490     0.98624
 Zero-point vibrational energy     405777.1 (Joules/Mol)
                                   96.98306 (Kcal/Mol)
 Warning -- explicit consideration of  16 degrees of freedom as
           vibrations may cause significant error
 Vibrational temperatures:     20.46   184.71   195.60   261.37   320.31
          (Kelvin)            339.41   364.57   399.37   430.68   511.65
                              574.90   594.32   722.23   757.41   827.87
                              860.09   917.75   945.16  1119.37  1221.35
                             1358.68  1363.88  1409.26  1503.64  1539.41
                             1637.64  1652.36  1755.62  1782.84  1794.58
                             1886.11  1996.42  2029.68  2083.57  2123.27
                             2131.50  2136.48  2155.10  2169.19  2567.83
                             3210.67  4291.74  4312.20  4385.91  4389.31
                             4495.79  4498.75  4515.58  4521.31  5034.20
                             5306.31

 Zero-point correction=                           0.154552 (Hartree/Particle)
 Thermal correction to Energy=                    0.165102
 Thermal correction to Enthalpy=                  0.166047
 Thermal correction to Gibbs Free Energy=         0.118223
 Sum of electronic and zero-point Energies=           -423.010667
 Sum of electronic and thermal Energies=              -423.000117
 Sum of electronic and thermal Enthalpies=            -422.999173
 Sum of electronic and thermal Free Energies=         -423.046996

                     E (Thermal)             CV                S
                      KCal/Mol        Cal/Mol-Kelvin    Cal/Mol-Kelvin
 Total                  103.603             38.380            100.653
 Electronic               0.000              0.000              0.000
 Translational            0.889              2.981             40.409
 Rotational               0.889              2.981             29.143
 Vibrational            101.826             32.418             31.101
 Vibration     1          0.593              1.986              7.311
 Vibration     2          0.611              1.925              2.970
 Vibration     3          0.614              1.917              2.860
 Vibration     4          0.630              1.865              2.311
 Vibration     5          0.648              1.807              1.938
 Vibration     6          0.655              1.786              1.834
 Vibration     7          0.665              1.757              1.707
 Vibration     8          0.679              1.715              1.549
 Vibration     9          0.692              1.675              1.421
 Vibration    10          0.731              1.564              1.141
 Vibration    11          0.766              1.471              0.964
 Vibration    12          0.777              1.442              0.916
 Vibration    13          0.857              1.246              0.653
 Vibration    14          0.881              1.192              0.595
 Vibration    15          0.932              1.084              0.494
 Vibration    16          0.956              1.036              0.453

 Optimization completed.
    -- Stationary point found.
 Normal termination of Gaussian 09 at Tue Jan 28 08:48:45 2020.
