 Gaussian 09, Revision D.01,
 Gaussian 09:  ES64L-G09RevD.01 24-Apr-2013

 -----------------------------
 # b3lyp 6-31G(2df,p) opt Freq
 -----------------------------

 -----
 titel
 -----
 Symbolic Z-matrix:
 Charge =  0 Multiplicity = 1

 SCF Done:  E(RB3LYP) =  -423.189433966     A.U. after   14 cycles
 Optimization completed.
    -- Stationary point found.
 Normal termination of Gaussian 09 at Mon Jan 27 11:16:23 2020.

 ----------------------------------------------------------------------
 #N Geom=AllCheck Guess=TCheck SCRF=Check GenChk RB3LYP/6-31G(2df,p) Fr
 eq
 ----------------------------------------------------------------------

 Structure from the checkpoint file:  "/scratch/puck/g09_176b5e16-84ab-4b96-a86a-e83434f5749e/Gau-149626.chk"
 -----
 titel
 -----
 Charge =  0 Multiplicity = 1

                         Standard orientation:
 ---------------------------------------------------------------------
 Center     Atomic      Atomic             Coordinates (Angstroms)
 Number     Number       Type             X           Y           Z
 ---------------------------------------------------------------------
      1          6           0       -2.008165   -0.274467   -0.638172
      2          6           0       -1.805550    0.894348    0.330487
      3          6           0       -0.316881    0.755462    0.693312
      4          6           0        0.651997    1.414943   -0.331943
      5          6           0        1.653889    0.338477   -0.689103
      6          8           0        2.284257   -0.253996    0.456238
      7          6           0        1.204647   -0.958678   -0.171855
      8          6           0       -0.094038   -0.784939    0.591046
      9          8           0       -1.200991   -1.331758   -0.127970
     10          1           0       -3.040722   -0.632225   -0.687964
     11          1           0       -1.695612   -0.002101   -1.659092
     12          1           0       -2.050854    1.864181   -0.111097
     13          1           0       -2.430930    0.755523    1.218052
     14          1           0       -0.107874    1.117237    1.699973
     15          1           0        0.119581    1.726614   -1.239354
     16          1           0        1.137749    2.305236    0.078815
     17          1           0        2.287312    0.433754   -1.567891
     18          1           0        1.449562   -1.913854   -0.628537
     19          1           0       -0.049733   -1.279215    1.568307
 ---------------------------------------------------------------------

 SCF Done:  E(RB3LYP) =  -423.189433966     A.U. after    1 cycles

 The electronic state is 1-A.
 Alpha  occ. eigenvalues --  -19.14790 -19.13626 -10.23435 -10.22968 -10.22869
 Alpha  occ. eigenvalues --  -10.22824 -10.19393 -10.18966 -10.18820  -1.07067
 Alpha  occ. eigenvalues --   -1.03158  -0.81163  -0.75874  -0.71781  -0.65987
 Alpha  occ. eigenvalues --   -0.60650  -0.57399  -0.56237  -0.51487  -0.50367
 Alpha  occ. eigenvalues --   -0.47386  -0.45058  -0.43718  -0.41748  -0.39645
 Alpha  occ. eigenvalues --   -0.38225  -0.37439  -0.35514  -0.33742  -0.33492
 Alpha  occ. eigenvalues --   -0.31077  -0.29282  -0.27129  -0.24458
 Alpha virt. eigenvalues --    0.07860   0.10045   0.10284   0.11223   0.12121
 Alpha virt. eigenvalues --    0.13853   0.14253   0.14935   0.16161   0.16323
 Alpha virt. eigenvalues --    0.17816   0.18731   0.19877   0.20622   0.21343

 Mulliken charges:
               1
     1  C   -0.075229
     2  C   -0.237568
     3  C   -0.040826
     4  C   -0.266466
     5  C    0.061954
     6  O   -0.263256
     7  C    0.009204
     8  C    0.094850
     9  O   -0.272001
    10  H    0.108814
    11  H    0.090008
    12  H    0.102294
    13  H    0.107897
    14  H    0.086853
    15  H    0.100959
    16  H    0.112802
    17  H    0.094306
    18  H    0.099449
    19  H    0.085958
 Sum of Mulliken charges =   0.00000

 Dipole moment (field-independent basis, Debye):
    X=             -1.2243    Y=              1.5621    Z=             -0.8746  Tot=              2.1689
 Quadrupole moment (field-independent basis, Debye-Ang):
   XX=            -55.9696   YY=            -53.4430   ZZ=            -51.4437
   XY=             -1.7068   XZ=             -2.9395   YZ=             -0.4929

  Exact polarizability:  80.087  -0.224  72.388  -1.022  -1.963  66.140
 Approx polarizability: 108.083   2.051 108.960   3.346  -4.731 103.184

                      1                      2                      3
                      A                      A                      A
 Frequencies --     88.6554               177.4619               242.0592
 Red. masses --      3.3387                 2.9297                 2.8891
 Frc consts  --      0.0155                 0.0544                 0.0997
 IR Inten    --      1.0669                 1.3634                 9.3913

                      4                      5                      6
                      A                      A                      A
 Frequencies --    340.3787               380.9822               430.9287
 Red. masses --      2.9454                 2.0095                 7.0132
 Frc consts  --      0.2011                 0.1719                 0.7673
 IR Inten    --      3.9002                 3.2932                 0.4353

                      7                      8                      9
                      A                      A                      A
 Frequencies --    600.6719               644.2071               696.7617
 Red. masses --      3.4611                 2.7540                 4.8687
 Frc consts  --      0.7358                 0.6734                 1.3926
 IR Inten    --      3.8331                 5.0108                 1.9853

                     10                     11                     12
                      A                      A                      A
 Frequencies --    782.4579               821.2147               831.8418
 Red. masses --      3.4945                 4.0209                 3.9401
 Frc consts  --      1.2605                 1.5977                 1.6063
 IR Inten    --      1.9123                 3.1289                 3.1248

                     13                     14                     15
                      A                      A                      A
 Frequencies --    864.6378               871.3630               914.9559
 Red. masses --      2.2519                 2.2790                 2.0495
 Frc consts  --      0.9919                 1.0195                 1.0109
 IR Inten    --     32.7258                11.2511                 8.4054

                     16                     17                     18
                      A                      A                      A
 Frequencies --    935.8605               947.5684               972.7453
 Red. masses --      2.2913                 2.6691                 2.4658
 Frc consts  --      1.1824                 1.4120                 1.3747
 IR Inten    --      0.4914                12.7812                 6.4262

                     19                     20                     21
                      A                      A                      A
 Frequencies --   1015.7126              1040.3535              1044.2122
 Red. masses --      1.8267                 1.7505                 1.3977
 Frc consts  --      1.1104                 1.1163                 0.8980
 IR Inten    --      7.5778                 1.5596                 6.3322

                     22                     23                     24
                      A                      A                      A
 Frequencies --   1058.6719              1106.1263              1118.8533
 Red. masses --      1.9109                 5.0159                 1.8072
 Frc consts  --      1.2618                 3.6158                 1.3329
 IR Inten    --     21.2440                66.4236                33.2026

                     25                     26                     27
                      A                      A                      A
 Frequencies --   1136.1930              1199.6891              1205.9642
 Red. masses --      1.8897                 1.2798                 1.4225
 Frc consts  --      1.4373                 1.0853                 1.2189
 IR Inten    --      2.1243                 6.6900                 2.8723

                     28                     29                     30
                      A                      A                      A
 Frequencies --   1228.4221              1249.0198              1266.7003
 Red. masses --      1.3290                 1.3329                 1.4600
 Frc consts  --      1.1816                 1.2252                 1.3802
 IR Inten    --      1.9433                 5.2137                 9.2707

                     31                     32                     33
                      A                      A                      A
 Frequencies --   1304.3151              1311.6341              1319.6221
 Red. masses --      1.3915                 1.2827                 1.4525
 Frc consts  --      1.3947                 1.3002                 1.4903
 IR Inten    --      0.3121                 0.2529                 1.5668

                     34                     35                     36
                      A                      A                      A
 Frequencies --   1336.9724              1351.2708              1363.0302
 Red. masses --      1.6438                 1.2761                 1.5411
 Frc consts  --      1.7312                 1.3728                 1.6869
 IR Inten    --      1.1079                 5.4481                 1.0222

                     37                     38                     39
                      A                      A                      A
 Frequencies --   1392.1740              1443.2074              1483.4294
 Red. masses --      1.3522                 3.1764                 1.0944
 Frc consts  --      1.5441                 3.8980                 1.4189
 IR Inten    --      3.1918                15.5097                 2.5801

                     40                     41                     42
                      A                      A                      A
 Frequencies --   1490.2352              1526.8175              2973.3162
 Red. masses --      1.1001                 1.0914                 1.0720
 Frc consts  --      1.4394                 1.4991                 5.5837
 IR Inten    --      3.2358                 0.7862                58.7003

                     43                     44                     45
                      A                      A                      A
 Frequencies --   3032.4785              3040.8207              3051.8527
 Red. masses --      1.0640                 1.0857                 1.0619
 Frc consts  --      5.7651                 5.9151                 5.8273
 IR Inten    --     29.1209                32.5350                20.7015

                     46                     47                     48
                      A                      A                      A
 Frequencies --   3080.9932              3081.6696              3102.1045
 Red. masses --      1.0961                 1.0921                 1.1028
 Frc consts  --      6.1305                 6.1106                 6.2528
 IR Inten    --      4.4959                54.9887                20.8722

                     49                     50                     51
                      A                      A                      A
 Frequencies --   3111.7673              3141.4012              3159.0881
 Red. masses --      1.0908                 1.0878                 1.0949
 Frc consts  --      6.2229                 6.3245                 6.4381
 IR Inten    --     34.4639                24.0819                26.5537

 - Thermochemistry -
 -------------------
 Temperature   298.150 Kelvin.  Pressure   1.00000 Atm.
 Atom     1 has atomic number  6 and mass  12.00000

 Molecular mass:   126.06808 amu.
 Principal axes and moments of inertia in atomic units:
                           1         2         3
     Eigenvalues --   541.617081154.931821399.00221
           X            0.99980  -0.01678  -0.01065
           Y            0.01672   0.99984  -0.00588
           Z            0.01075   0.00570   0.99993
 This molecule is an asymmetric top.
 Rotational symmetry number  1.
 Warning -- assumption of classical behavior for rotation
           may cause significant error
 Rotational temperatures (Kelvin)      0.15992     0.07499     0.06191
 Rotational constants (GHZ):           3.33213     1.56264     1.29002
 Zero-point vibrational energy     426545.7 (Joules/Mol)
                                  101.94687 (Kcal/Mol)
 Warning -- explicit consideration of   7 degrees of freedom as
           vibrations may cause significant error
 Vibrational temperatures:    127.56   255.33   348.27   489.73   548.15
          (Kelvin)            620.01   864.23   926.87  1002.48  1125.78
                             1181.54  1196.83  1244.02  1253.70  1316.42
                             1346.49  1363.34  1399.56  1461.38  1496.83
                             1502.39  1523.19  1591.47  1609.78  1634.73
                             1726.08  1735.11  1767.42  1797.06  1822.50
                             1876.62  1887.15  1898.64  1923.60  1944.17
                             1961.09  2003.03  2076.45  2134.32  2144.11
                             2196.75  4277.93  4363.05  4375.06  4390.93
                             4432.86  4433.83  4463.23  4477.13  4519.77
                             4545.22

 Zero-point correction=                           0.162463 (Hartree/Particle)
 Thermal correction to Energy=                    0.169428
 Thermal correction to Enthalpy=                  0.170372
 Thermal correction to Gibbs Free Energy=         0.130929
 Sum of electronic and zero-point Energies=           -423.026971
 Sum of electronic and thermal Energies=              -423.020006
 Sum of electronic and thermal Enthalpies=            -423.019062
 Sum of electronic and thermal Free Energies=         -423.058505

                     E (Thermal)             CV                S
                      KCal/Mol        Cal/Mol-Kelvin    Cal/Mol-Kelvin
 Total                  106.318             27.940             83.015
 Electronic               0.000              0.000              0.000
 Translational            0.889              2.981             40.409
 Rotational               0.889              2.981             28.261
 Vibrational            104.540             21.979             14.345
 Vibration     1          0.601              1.957              3.690
 Vibration     2          0.628              1.870              2.355
 Vibration     3          0.658              1.776              1.788
 Vibration     4          0.720              1.595              1.210
 Vibration     5          0.751              1.511              1.035
 Vibration     6          0.792              1.403              0.856
 Vibration     7          0.959              1.030              0.449

 Optimization completed.
    -- Stationary point found.
 Normal termination of Gaussian 09 at Mon Jan 27 12:08:43 2020.
