 Gaussian 09, Revision D.01,
 Gaussian 09:  ES64L-G09RevD.01 24-Apr-2013

 -----------------------------
 # b3lyp 6-31G(2df,p) opt Freq
 -----------------------------

 -----
 titel
 -----
 Symbolic Z-matrix:
 Charge =  0 Multiplicity = 1

 SCF Done:  E(RB3LYP) =  -423.118342908     A.U. after   14 cycles
 Optimization completed.
    -- Stationary point found.
 Normal termination of Gaussian 09 at Tue Jan 28 12:10:14 2020.

 ----------------------------------------------------------------------
 #N Geom=AllCheck Guess=TCheck SCRF=Check GenChk RB3LYP/6-31G(2df,p) Fr
 eq
 ----------------------------------------------------------------------

 Structure from the checkpoint file:  "/scratch/puck/g09_e6b2ea09-4fab-4313-af0c-18e8ccd8ebbd/Gau-36773.chk"
 -----
 titel
 -----
 Charge =  0 Multiplicity = 1

                         Standard orientation:
 ---------------------------------------------------------------------
 Center     Atomic      Atomic             Coordinates (Angstroms)
 Number     Number       Type             X           Y           Z
 ---------------------------------------------------------------------
      1          6           0       -2.643928   -1.774132    0.035935
      2          8           0       -1.518694   -0.992856    0.357386
      3          6           0       -1.334681    0.085588   -0.524775
      4          6           0       -0.087741    0.846044   -0.125460
      5          6           0       -0.037492    2.299440   -0.391747
      6          8           0       -0.281739    1.818277    0.922206
      7          6           0        1.137772    0.087253   -0.070078
      8          6           0        2.155955   -0.554503   -0.043195
      9          6           0        3.385197   -1.330852    0.005247
     10          1           0       -2.697404   -2.583745    0.767328
     11          1           0       -3.576260   -1.189171    0.084339
     12          1           0       -2.564588   -2.209516   -0.973259
     13          1           0       -1.225033   -0.273395   -1.563003
     14          1           0       -2.193871    0.774953   -0.492313
     15          1           0        0.931759    2.766852   -0.554315
     16          1           0       -0.881450    2.783063   -0.884094
     17          1           0        3.975899   -1.073708    0.891285
     18          1           0        3.173666   -2.404784    0.047349
     19          1           0        4.010250   -1.146944   -0.875618
 ---------------------------------------------------------------------

 SCF Done:  E(RB3LYP) =  -423.118342908     A.U. after    1 cycles

 The electronic state is 1-A.
 Alpha  occ. eigenvalues --  -19.15314 -19.14112 -10.26023 -10.23792 -10.23518
 Alpha  occ. eigenvalues --  -10.22472 -10.20484 -10.17930 -10.16913  -1.07571
 Alpha  occ. eigenvalues --   -1.03536  -0.78412  -0.75774  -0.70618  -0.67321
 Alpha  occ. eigenvalues --   -0.64681  -0.61228  -0.52440  -0.49450  -0.48342
 Alpha  occ. eigenvalues --   -0.46972  -0.45665  -0.43408  -0.42809  -0.42723
 Alpha  occ. eigenvalues --   -0.41511  -0.38649  -0.37653  -0.33263  -0.32333
 Alpha  occ. eigenvalues --   -0.27485  -0.25740  -0.25695  -0.24366
 Alpha virt. eigenvalues --    0.03411   0.04985   0.09259   0.11041   0.11078
 Alpha virt. eigenvalues --    0.12010   0.13721   0.14811   0.15604   0.16869
 Alpha virt. eigenvalues --    0.16911   0.17478   0.17993   0.19690   0.21377

 Mulliken charges:
               1
     1  C   -0.222126
     2  O   -0.225444
     3  C   -0.126333
     4  C    0.194452
     5  C   -0.217978
     6  O   -0.258722
     7  C    0.031844
     8  C    0.117225
     9  C   -0.503350
    10  H    0.130684
    11  H    0.105065
    12  H    0.103007
    13  H    0.091617
    14  H    0.091833
    15  H    0.120706
    16  H    0.111430
    17  H    0.154937
    18  H    0.152897
    19  H    0.148256
 Sum of Mulliken charges =   0.00000

 Dipole moment (field-independent basis, Debye):
    X=              0.1322    Y=             -0.6995    Z=             -2.3626  Tot=              2.4675
 Quadrupole moment (field-independent basis, Debye-Ang):
   XX=            -43.0645   YY=            -49.4095   ZZ=            -55.3163
   XY=             -0.8893   XZ=              1.8361   YZ=             -3.2833

  Exact polarizability: 100.037 -12.417  88.983   1.065  -3.370  58.229
 Approx polarizability: 133.827 -27.081 123.249   0.158  -2.546  91.825

                      1                      2                      3
                      A                      A                      A
 Frequencies --     23.4775                56.6532                90.1606
 Red. masses --      1.0159                 3.3950                 2.3976
 Frc consts  --      0.0003                 0.0064                 0.0115
 IR Inten    --      0.0280                 1.5912                 5.4316

                      4                      5                      6
                      A                      A                      A
 Frequencies --    102.1835               129.2320               188.1192
 Red. masses --      3.0871                 4.2746                 3.2266
 Frc consts  --      0.0190                 0.0421                 0.0673
 IR Inten    --      0.3485                 2.4710                 1.2040

                      7                      8                      9
                      A                      A                      A
 Frequencies --    234.9814               293.9200               320.6848
 Red. masses --      1.2908                 3.3822                 3.5601
 Frc consts  --      0.0420                 0.1722                 0.2157
 IR Inten    --      2.6515                 3.7774                 2.2546

                     10                     11                     12
                      A                      A                      A
 Frequencies --    343.4107               373.2931               425.2209
 Red. masses --      2.9398                 3.4717                 4.3660
 Frc consts  --      0.2043                 0.2850                 0.4651
 IR Inten    --      2.0653                 2.1114                 2.7272

                     13                     14                     15
                      A                      A                      A
 Frequencies --    533.2054               563.9756               676.4245
 Red. masses --      6.3360                 5.2716                 3.4055
 Frc consts  --      1.0613                 0.9879                 0.9181
 IR Inten    --      1.8103                 6.4677                14.1602

                     16                     17                     18
                      A                      A                      A
 Frequencies --    795.5250               916.7283               945.6578
 Red. masses --      4.5155                 1.5614                 6.9174
 Frc consts  --      1.6837                 0.7731                 3.6447
 IR Inten    --     24.1993                 3.5265                44.0842

                     19                     20                     21
                      A                      A                      A
 Frequencies --   1014.9204              1027.2905              1051.0386
 Red. masses --      4.3063                 1.9527                 1.4115
 Frc consts  --      2.6135                 1.2141                 0.9187
 IR Inten    --     11.8449                 5.5007                 1.3638

                     22                     23                     24
                      A                      A                      A
 Frequencies --   1054.0564              1062.4389              1134.0228
 Red. masses --      1.4070                 2.8175                 1.2753
 Frc consts  --      0.9210                 1.8738                 0.9663
 IR Inten    --      0.4347                 4.4141                 5.0680

                     25                     26                     27
                      A                      A                      A
 Frequencies --   1159.0228              1172.8845              1184.0813
 Red. masses --      2.8875                 1.6116                 1.2882
 Frc consts  --      2.2854                 1.3062                 1.0641
 IR Inten    --    121.5006                32.4150                 2.8899

                     28                     29                     30
                      A                      A                      A
 Frequencies --   1228.9053              1258.7240              1300.8802
 Red. masses --      1.7954                 1.2654                 2.7228
 Frc consts  --      1.5975                 1.1812                 2.7149
 IR Inten    --     50.8226                 2.7301                26.0871

                     31                     32                     33
                      A                      A                      A
 Frequencies --   1370.8568              1413.5915              1427.1827
 Red. masses --      2.7428                 1.2746                 1.5526
 Frc consts  --      3.0369                 1.5006                 1.8633
 IR Inten    --     29.2417                 9.7023                24.4263

                     34                     35                     36
                      A                      A                      A
 Frequencies --   1475.9029              1476.9812              1477.4433
 Red. masses --      1.0406                 1.1475                 1.0402
 Frc consts  --      1.3355                 1.4749                 1.3379
 IR Inten    --      4.6641                 4.9730                 5.3591

                     37                     38                     39
                      A                      A                      A
 Frequencies --   1486.1892              1494.6631              1517.8642
 Red. masses --      1.0475                 1.0740                 1.0934
 Frc consts  --      1.3632                 1.4136                 1.4842
 IR Inten    --      5.2447                 8.2252                 1.8709

                     40                     41                     42
                      A                      A                      A
 Frequencies --   1521.5106              2373.4850              2951.0580
 Red. masses --      1.2380                11.8970                 1.0545
 Frc consts  --      1.6886                39.4876                 5.4107
 IR Inten    --      1.9885                16.0217                32.6687

                     43                     44                     45
                      A                      A                      A
 Frequencies --   2969.4334              2993.8388              3011.7712
 Red. masses --      1.0405                 1.1011                 1.1033
 Frc consts  --      5.4057                 5.8146                 5.8962
 IR Inten    --     75.1701                58.9555                48.0468

                     46                     47                     48
                      A                      A                      A
 Frequencies --   3028.3299              3078.5181              3089.0401
 Red. masses --      1.0347                 1.0508                 1.1002
 Frc consts  --      5.5908                 5.8678                 6.1854
 IR Inten    --     28.8021                29.8626                 9.5310

                     49                     50                     51
                      A                      A                      A
 Frequencies --   3092.2341              3118.1786              3171.7679
 Red. masses --      1.1001                 1.0955                 1.1188
 Frc consts  --      6.1978                 6.2759                 6.6312
 IR Inten    --      7.9712                25.9734                21.5957

 - Thermochemistry -
 -------------------
 Temperature   298.150 Kelvin.  Pressure   1.00000 Atm.
 Atom     1 has atomic number  6 and mass  12.00000

 Molecular mass:   126.06808 amu.
 Principal axes and moments of inertia in atomic units:
                           1         2         3
     Eigenvalues --   960.223371633.269602394.82959
           X            0.99995  -0.00392   0.00890
           Y            0.00408   0.99983  -0.01778
           Z           -0.00883   0.01781   0.99980
 This molecule is an asymmetric top.
 Rotational symmetry number  1.
 Warning -- assumption of classical behavior for rotation
           may cause significant error
 Rotational temperatures (Kelvin)      0.09020     0.05303     0.03617
 Rotational constants (GHZ):           1.87950     1.10499     0.75360
 Zero-point vibrational energy     407932.3 (Joules/Mol)
                                   97.49817 (Kcal/Mol)
 Warning -- explicit consideration of  14 degrees of freedom as
           vibrations may cause significant error
 Vibrational temperatures:     33.78    81.51   129.72   147.02   185.94
          (Kelvin)            270.66   338.09   422.88   461.39   494.09
                              537.08   611.80   767.16   811.43   973.22
                             1144.58  1318.97  1360.59  1460.24  1478.04
                             1512.21  1516.55  1528.61  1631.60  1667.57
                             1687.52  1703.63  1768.12  1811.02  1871.67
                             1972.35  2033.84  2053.40  2123.49  2125.04
                             2125.71  2138.29  2150.48  2183.87  2189.11
                             3414.91  4245.91  4272.35  4307.46  4333.26
                             4357.09  4429.30  4444.43  4449.03  4486.36
                             4563.46

 Zero-point correction=                           0.155373 (Hartree/Particle)
 Thermal correction to Energy=                    0.165995
 Thermal correction to Enthalpy=                  0.166940
 Thermal correction to Gibbs Free Energy=         0.117656
 Sum of electronic and zero-point Energies=           -422.962970
 Sum of electronic and thermal Energies=              -422.952348
 Sum of electronic and thermal Enthalpies=            -422.951403
 Sum of electronic and thermal Free Energies=         -423.000687

                     E (Thermal)             CV                S
                      KCal/Mol        Cal/Mol-Kelvin    Cal/Mol-Kelvin
 Total                  104.164             35.934            103.725
 Electronic               0.000              0.000              0.000
 Translational            0.889              2.981             40.409
 Rotational               0.889              2.981             29.708
 Vibrational            102.386             29.973             33.608
 Vibration     1          0.593              1.985              6.316
 Vibration     2          0.596              1.975              4.571
 Vibration     3          0.602              1.956              3.657
 Vibration     4          0.604              1.947              3.412
 Vibration     5          0.612              1.924              2.957
 Vibration     6          0.633              1.856              2.246
 Vibration     7          0.655              1.787              1.841
 Vibration     8          0.689              1.685              1.451
 Vibration     9          0.706              1.634              1.307
 Vibration    10          0.722              1.589              1.196
 Vibration    11          0.745              1.527              1.066
 Vibration    12          0.787              1.415              0.874
 Vibration    13          0.888              1.177              0.580
 Vibration    14          0.920              1.109              0.516

 Optimization completed on the basis of negligible forces.
    -- Stationary point found.
 Normal termination of Gaussian 09 at Tue Jan 28 12:46:31 2020.
