 Gaussian 09, Revision D.01,
 Gaussian 09:  ES64L-G09RevD.01 24-Apr-2013

 -----------------------------
 # b3lyp 6-31G(2df,p) opt Freq
 -----------------------------

 -----
 titel
 -----
 Symbolic Z-matrix:
 Charge =  0 Multiplicity = 1

 SCF Done:  E(RB3LYP) =  -423.188201310     A.U. after   13 cycles
 Optimization completed.
    -- Stationary point found.
 Normal termination of Gaussian 09 at Mon Jan 27 22:07:05 2020.

 ----------------------------------------------------------------------
 #N Geom=AllCheck Guess=TCheck SCRF=Check GenChk RB3LYP/6-31G(2df,p) Fr
 eq
 ----------------------------------------------------------------------

 Structure from the checkpoint file:  "/scratch/puck/g09_2efe2db6-d846-4298-a555-33f3d30e9616/Gau-116808.chk"
 -----
 titel
 -----
 Charge =  0 Multiplicity = 1

                         Standard orientation:
 ---------------------------------------------------------------------
 Center     Atomic      Atomic             Coordinates (Angstroms)
 Number     Number       Type             X           Y           Z
 ---------------------------------------------------------------------
      1          6           0        1.503439    1.733366    0.024270
      2          6           0        0.499106    0.798063   -0.641111
      3          6           0       -0.965853    1.114049   -0.363359
      4          6           0       -1.284526    0.313270    0.896938
      5          8           0       -0.119877   -0.391229    1.276057
      6          6           0        0.417324   -0.634026   -0.029713
      7          6           0        1.612953   -1.539306    0.002836
      8          8           0       -0.679590   -1.212698   -0.746148
      9          6           0       -1.660122   -0.237153   -0.454894
     10          1           0        1.397677    2.753706   -0.357561
     11          1           0        1.351327    1.756284    1.106552
     12          1           0        2.532876    1.415097   -0.171698
     13          1           0        0.688341    0.712253   -1.715832
     14          1           0       -1.442390    2.052191   -0.611995
     15          1           0       -1.945419    0.593020    1.703753
     16          1           0        1.965735   -1.727330   -1.013917
     17          1           0        2.419424   -1.079923    0.578505
     18          1           0        1.344604   -2.490847    0.466692
     19          1           0       -2.650358   -0.442614   -0.833567
 ---------------------------------------------------------------------

 SCF Done:  E(RB3LYP) =  -423.188201310     A.U. after    1 cycles

 The electronic state is 1-A.
 Alpha  occ. eigenvalues --  -19.14685 -19.14513 -10.27842 -10.23283 -10.23241
 Alpha  occ. eigenvalues --  -10.19096 -10.18969 -10.18165 -10.17539  -1.10412
 Alpha  occ. eigenvalues --   -0.99410  -0.83988  -0.79032  -0.72406  -0.66311
 Alpha  occ. eigenvalues --   -0.60207  -0.57650  -0.56254  -0.52626  -0.48323
 Alpha  occ. eigenvalues --   -0.46100  -0.43734  -0.41714  -0.41659  -0.39610
 Alpha  occ. eigenvalues --   -0.38652  -0.38458  -0.38019  -0.34958  -0.34468
 Alpha  occ. eigenvalues --   -0.30877  -0.30441  -0.25624  -0.23504
 Alpha virt. eigenvalues --    0.08329   0.10823   0.12519   0.12622   0.14246
 Alpha virt. eigenvalues --    0.14494   0.14678   0.15766   0.16285   0.17011
 Alpha virt. eigenvalues --    0.17356   0.19488   0.20650   0.21433   0.23366

 Mulliken charges:
               1
     1  C   -0.415042
     2  C   -0.014256
     3  C   -0.182871
     4  C    0.036805
     5  O   -0.279281
     6  C    0.438966
     7  C   -0.496088
     8  O   -0.280859
     9  C    0.025320
    10  H    0.113922
    11  H    0.132744
    12  H    0.113598
    13  H    0.082308
    14  H    0.093280
    15  H    0.110270
    16  H    0.132986
    17  H    0.135173
    18  H    0.142259
    19  H    0.110765
 Sum of Mulliken charges =   0.00000

 Dipole moment (field-independent basis, Debye):
    X=             -0.0731    Y=              1.4190    Z=             -0.5029  Tot=              1.5073
 Quadrupole moment (field-independent basis, Debye-Ang):
   XX=            -47.6478   YY=            -53.6778   ZZ=            -55.1849
   XY=             -2.8378   XZ=             -1.2519   YZ=             -0.3989

  Exact polarizability:  80.071  -1.690  73.191  -0.991  -0.234  63.877
 Approx polarizability: 109.071  -1.579 105.760  -0.176   0.568 104.570

                      1                      2                      3
                      A                      A                      A
 Frequencies --    162.0013               197.5721               213.8711
 Red. masses --      1.0564                 1.4863                 1.5813
 Frc consts  --      0.0163                 0.0342                 0.0426
 IR Inten    --      0.0505                 0.1317                 0.2807

                      4                      5                      6
                      A                      A                      A
 Frequencies --    232.5344               319.2743               343.1832
 Red. masses --      2.4600                 2.6710                 2.8391
 Frc consts  --      0.0784                 0.1604                 0.1970
 IR Inten    --      0.2591                 4.1998                 5.9045

                      7                      8                      9
                      A                      A                      A
 Frequencies --    520.7203               589.4543               618.8500
 Red. masses --      4.4012                 3.8878                 5.3461
 Frc consts  --      0.7031                 0.7959                 1.2063
 IR Inten    --      4.0808                 5.5152                 5.9833

                     10                     11                     12
                      A                      A                      A
 Frequencies --    645.7522               724.1009               741.7261
 Red. masses --      3.7747                 4.7217                 5.6186
 Frc consts  --      0.9274                 1.4586                 1.8212
 IR Inten    --      3.3638                 5.9313                 0.7160

                     13                     14                     15
                      A                      A                      A
 Frequencies --    781.4631               789.6998               803.1947
 Red. masses --      3.4689                 1.7349                 1.5790
 Frc consts  --      1.2481                 0.6374                 0.6002
 IR Inten    --      2.7285                30.8196                15.7116

                     16                     17                     18
                      A                      A                      A
 Frequencies --    836.5597               879.9464               934.2050
 Red. masses --      2.2781                 2.5370                 2.4156
 Frc consts  --      0.9393                 1.1574                 1.2421
 IR Inten    --     19.9641                20.3242                 9.1619

                     19                     20                     21
                      A                      A                      A
 Frequencies --    993.8073              1004.4843              1015.9853
 Red. masses --      1.6063                 2.3518                 2.6670
 Frc consts  --      0.9347                 1.3981                 1.6220
 IR Inten    --      2.8918                 5.1749                10.3242

                     22                     23                     24
                      A                      A                      A
 Frequencies --   1038.0915              1045.0275              1076.1072
 Red. masses --      1.3496                 1.4899                 2.2299
 Frc consts  --      0.8569                 0.9586                 1.5214
 IR Inten    --      0.4847                11.5876                55.7055

                     25                     26                     27
                      A                      A                      A
 Frequencies --   1079.2200              1098.7323              1120.0381
 Red. masses --      2.4922                 1.9760                 1.8816
 Frc consts  --      1.7103                 1.4055                 1.3907
 IR Inten    --     26.4137                 0.7757                11.3901

                     28                     29                     30
                      A                      A                      A
 Frequencies --   1145.9169              1165.3617              1220.8199
 Red. masses --      2.1661                 2.4380                 1.7945
 Frc consts  --      1.6758                 1.9507                 1.5758
 IR Inten    --      7.4260                48.4248                10.4455

                     31                     32                     33
                      A                      A                      A
 Frequencies --   1274.3159              1298.3737              1341.7518
 Red. masses --      1.5792                 1.6965                 2.2001
 Frc consts  --      1.5109                 1.6850                 2.3337
 IR Inten    --      5.6449                14.4345                 7.9653

                     34                     35                     36
                      A                      A                      A
 Frequencies --   1363.1136              1376.5614              1406.7154
 Red. masses --      1.7746                 1.9215                 1.2586
 Frc consts  --      1.9428                 2.1453                 1.4674
 IR Inten    --      3.4449                11.0767                 4.2145

                     37                     38                     39
                      A                      A                      A
 Frequencies --   1434.3583              1480.0822              1487.5914
 Red. masses --      2.1288                 1.0494                 1.0487
 Frc consts  --      2.5805                 1.3545                 1.3673
 IR Inten    --     42.9045                 1.7136                 5.6321

                     40                     41                     42
                      A                      A                      A
 Frequencies --   1498.3969              1501.5941              3037.2005
 Red. masses --      1.0455                 1.0521                 1.0363
 Frc consts  --      1.3830                 1.3977                 5.6322
 IR Inten    --      1.9820                 4.5007                26.2085

                     43                     44                     45
                      A                      A                      A
 Frequencies --   3060.3213              3063.9204              3097.7474
 Red. masses --      1.0407                 1.0781                 1.1008
 Frc consts  --      5.7427                 5.9630                 6.2236
 IR Inten    --      6.9394                16.5115                25.7684

                     46                     47                     48
                      A                      A                      A
 Frequencies --   3123.0708              3138.6185              3141.5946
 Red. masses --      1.1006                 1.1019                 1.1023
 Frc consts  --      6.3246                 6.3952                 6.4101
 IR Inten    --     18.1136                 9.4749                 9.5208

                     49                     50                     51
                      A                      A                      A
 Frequencies --   3212.6730              3228.6133              3238.5498
 Red. masses --      1.0921                 1.0917                 1.0997
 Frc consts  --      6.6409                 6.7049                 6.7954
 IR Inten    --      5.1474                 4.4724                13.5574

 - Thermochemistry -
 -------------------
 Temperature   298.150 Kelvin.  Pressure   1.00000 Atm.
 Atom     1 has atomic number  6 and mass  12.00000

 Molecular mass:   126.06808 amu.
 Principal axes and moments of inertia in atomic units:
                           1         2         3
     Eigenvalues --   755.28362 835.394791136.70426
           X            0.99662  -0.08182  -0.00777
           Y            0.08179   0.99664  -0.00500
           Z            0.00816   0.00435   0.99996
 This molecule is an asymmetric top.
 Rotational symmetry number  1.
 Warning -- assumption of classical behavior for rotation
           may cause significant error
 Rotational temperatures (Kelvin)      0.11468     0.10368     0.07620
 Rotational constants (GHZ):           2.38949     2.16035     1.58770
 Zero-point vibrational energy     419547.5 (Joules/Mol)
                                  100.27426 (Kcal/Mol)
 Warning -- explicit consideration of   9 degrees of freedom as
           vibrations may cause significant error
 Vibrational temperatures:    233.08   284.26   307.71   334.56   459.36
          (Kelvin)            493.76   749.20   848.09   890.39   929.09
                             1041.82  1067.18  1124.35  1136.20  1155.62
                             1203.62  1266.05  1344.11  1429.87  1445.23
                             1461.77  1493.58  1503.56  1548.28  1552.75
                             1580.83  1611.48  1648.72  1676.69  1756.49
                             1833.45  1868.07  1930.48  1961.21  1980.56
                             2023.95  2063.72  2129.51  2140.31  2155.86
                             2160.46  4369.85  4403.11  4408.29  4456.96
                             4493.40  4515.77  4520.05  4622.31  4645.25
                             4659.54

 Zero-point correction=                           0.159797 (Hartree/Particle)
 Thermal correction to Energy=                    0.167325
 Thermal correction to Enthalpy=                  0.168270
 Thermal correction to Gibbs Free Energy=         0.128324
 Sum of electronic and zero-point Energies=           -423.028404
 Sum of electronic and thermal Energies=              -423.020876
 Sum of electronic and thermal Enthalpies=            -423.019932
 Sum of electronic and thermal Free Energies=         -423.059878

                     E (Thermal)             CV                S
                      KCal/Mol        Cal/Mol-Kelvin    Cal/Mol-Kelvin
 Total                  104.998             30.595             84.073
 Electronic               0.000              0.000              0.000
 Translational            0.889              2.981             40.409
 Rotational               0.889              2.981             28.063
 Vibrational            103.221             24.633             15.601
 Vibration     1          0.622              1.889              2.526
 Vibration     2          0.637              1.843              2.156
 Vibration     3          0.644              1.820              2.010
 Vibration     4          0.653              1.791              1.859
 Vibration     5          0.705              1.637              1.314
 Vibration     6          0.722              1.589              1.197
 Vibration     7          0.876              1.204              0.608
 Vibration     8          0.947              1.054              0.468
 Vibration     9          0.979              0.992              0.418

 Optimization completed.
    -- Stationary point found.
 Normal termination of Gaussian 09 at Mon Jan 27 23:05:25 2020.
