 Gaussian 09, Revision D.01,
 Gaussian 09:  ES64L-G09RevD.01 24-Apr-2013

 -----------------------------
 # b3lyp 6-31G(2df,p) opt Freq
 -----------------------------

 -----
 titel
 -----
 Symbolic Z-matrix:
 Charge =  0 Multiplicity = 1

 SCF Done:  E(RB3LYP) =  -423.226987468     A.U. after   14 cycles
 Optimization completed.
    -- Stationary point found.
 Normal termination of Gaussian 09 at Mon Jan 27 17:11:35 2020.

 ----------------------------------------------------------------------
 #N Geom=AllCheck Guess=TCheck SCRF=Check GenChk RB3LYP/6-31G(2df,p) Fr
 eq
 ----------------------------------------------------------------------

 Structure from the checkpoint file:  "/scratch/puck/g09_b88d3599-9790-427c-99e9-364966bf7c20/Gau-59927.chk"
 -----
 titel
 -----
 Charge =  0 Multiplicity = 1

                         Standard orientation:
 ---------------------------------------------------------------------
 Center     Atomic      Atomic             Coordinates (Angstroms)
 Number     Number       Type             X           Y           Z
 ---------------------------------------------------------------------
      1          6           0        2.368307   -1.064854    0.000007
      2          6           0        1.062800   -0.292245    0.000017
      3          6           0        0.817442    0.816820   -1.072626
      4          6           0       -0.058558    1.498810    0.000005
      5          6           0        0.817367    0.816789    1.072677
      6          8           0       -1.386366    0.940679   -0.000055
      7          6           0       -1.492600   -0.414496    0.000006
      8          8           0       -2.574589   -0.931482    0.000020
      9          6           0       -0.176716   -1.196918   -0.000037
     10          1           0        2.447937   -1.707503   -0.884457
     11          1           0        3.227332   -0.385836    0.000351
     12          1           0        2.447660   -1.708060    0.884089
     13          1           0        1.723411    1.395006   -1.272380
     14          1           0        0.336649    0.541646   -2.015239
     15          1           0       -0.196819    2.579112    0.000020
     16          1           0        1.723320    1.394974    1.272507
     17          1           0        0.336513    0.541595    2.015254
     18          1           0       -0.193310   -1.854028    0.877324
     19          1           0       -0.193302   -1.853919   -0.877483
 ---------------------------------------------------------------------

 SCF Done:  E(RB3LYP) =  -423.226987468     A.U. after    1 cycles

 The electronic state is 1-A.
 Alpha  occ. eigenvalues --  -19.17660 -19.11418 -10.30165 -10.25424 -10.21599
 Alpha  occ. eigenvalues --  -10.20169 -10.19641 -10.19640 -10.18819  -1.09368
 Alpha  occ. eigenvalues --   -1.01335  -0.87340  -0.76857  -0.72045  -0.68214
 Alpha  occ. eigenvalues --   -0.65332  -0.57456  -0.53471  -0.50367  -0.47528
 Alpha  occ. eigenvalues --   -0.47433  -0.45750  -0.44913  -0.42450  -0.40093
 Alpha  occ. eigenvalues --   -0.39873  -0.39529  -0.38245  -0.35041  -0.34530
 Alpha  occ. eigenvalues --   -0.31953  -0.30423  -0.28188  -0.25867
 Alpha virt. eigenvalues --    0.01277   0.06969   0.08885   0.11049   0.12256
 Alpha virt. eigenvalues --    0.13180   0.14555   0.14949   0.15088   0.16549
 Alpha virt. eigenvalues --    0.16818   0.17682   0.18805   0.20068   0.21061

 Mulliken charges:
               1
     1  C   -0.477226
     2  C    0.300712
     3  C   -0.275309
     4  C    0.116878
     5  C   -0.275317
     6  O   -0.234308
     7  C    0.413010
     8  O   -0.333336
     9  C   -0.387122
    10  H    0.120681
    11  H    0.114783
    12  H    0.120677
    13  H    0.106941
    14  H    0.109106
    15  H    0.092843
    16  H    0.106941
    17  H    0.109107
    18  H    0.135468
    19  H    0.135470
 Sum of Mulliken charges =   0.00000

 Dipole moment (field-independent basis, Debye):
    X=              4.4749    Y=              0.7146    Z=              0.0000  Tot=              4.5316
 Quadrupole moment (field-independent basis, Debye-Ang):
   XX=            -64.1011   YY=            -51.7326   ZZ=            -51.3436
   XY=             -1.4619   XZ=              0.0000   YZ=              0.0002

  Exact polarizability:  82.845   3.648  76.930   0.000   0.000  64.942
 Approx polarizability: 117.050   9.826 113.754   0.000   0.000  99.149

                      1                      2                      3
                      A                      A                      A
 Frequencies --    105.7307               216.2701               244.9406
 Red. masses --      4.0149                 1.1791                 2.1484
 Frc consts  --      0.0264                 0.0325                 0.0759
 IR Inten    --      2.1353                 0.1677                 1.7600

                      4                      5                      6
                      A                      A                      A
 Frequencies --    264.6797               367.2989               400.5849
 Red. masses --      2.7125                 2.0468                 2.8863
 Frc consts  --      0.1120                 0.1627                 0.2729
 IR Inten    --      1.2747                 1.2978                 1.3799

                      7                      8                      9
                      A                      A                      A
 Frequencies --    433.4342               443.2423               495.6382
 Red. masses --      4.6420                 2.2679                 3.4846
 Frc consts  --      0.5138                 0.2625                 0.5044
 IR Inten    --      0.2770                 0.5783                 2.6625

                     10                     11                     12
                      A                      A                      A
 Frequencies --    583.0806               608.4802               663.6532
 Red. masses --      2.8245                 3.5856                 3.4173
 Frc consts  --      0.5658                 0.7822                 0.8868
 IR Inten    --      5.2689                 2.3289                 2.5308

                     13                     14                     15
                      A                      A                      A
 Frequencies --    793.5764               836.0495               849.2002
 Red. masses --      3.9546                 1.8212                 2.3115
 Frc consts  --      1.4673                 0.7500                 0.9821
 IR Inten    --      8.4852                 0.7119                 2.2615

                     16                     17                     18
                      A                      A                      A
 Frequencies --    899.1241               923.7324               928.6318
 Red. masses --      3.5050                 2.8171                 1.6020
 Frc consts  --      1.6695                 1.4163                 0.8139
 IR Inten    --     11.4720                 2.5208                 0.1880

                     19                     20                     21
                      A                      A                      A
 Frequencies --    945.4465              1011.6072              1014.2740
 Red. masses --      1.9924                 1.8194                 1.6784
 Frc consts  --      1.0493                 1.0970                 1.0173
 IR Inten    --      7.9701                 5.8140                 0.4566

                     22                     23                     24
                      A                      A                      A
 Frequencies --   1026.9931              1076.2907              1119.3192
 Red. masses --      2.3591                 1.0662                 1.7916
 Frc consts  --      1.4660                 0.7277                 1.3225
 IR Inten    --     61.7619                 0.6716                 1.5736

                     25                     26                     27
                      A                      A                      A
 Frequencies --   1155.4327              1191.0080              1203.1641
 Red. masses --      2.4871                 2.9038                 1.4857
 Frc consts  --      1.9563                 2.4269                 1.2672
 IR Inten    --     36.0327               154.3590                 1.6873

                     28                     29                     30
                      A                      A                      A
 Frequencies --   1219.9979              1241.0319              1261.0616
 Red. masses --      2.6783                 1.3431                 1.6126
 Frc consts  --      2.3487                 1.2188                 1.5109
 IR Inten    --     43.4479                 0.0166                 7.0763

                     31                     32                     33
                      A                      A                      A
 Frequencies --   1278.1954              1287.7376              1357.2712
 Red. masses --      1.6755                 2.4180                 2.1005
 Frc consts  --      1.6128                 2.3624                 2.2798
 IR Inten    --      0.5453                 6.9744                23.7922

                     34                     35                     36
                      A                      A                      A
 Frequencies --   1390.8914              1413.4102              1457.3562
 Red. masses --      1.4450                 1.2801                 1.0888
 Frc consts  --      1.6471                 1.5067                 1.3625
 IR Inten    --     39.3474                 3.3625                 1.5074

                     37                     38                     39
                      A                      A                      A
 Frequencies --   1467.4088              1491.3927              1492.3779
 Red. masses --      1.0925                 1.0492                 1.0639
 Frc consts  --      1.3861                 1.3750                 1.3961
 IR Inten    --      4.9553                 4.2564                 2.7022

                     40                     41                     42
                      A                      A                      A
 Frequencies --   1499.6512              1856.0609              3022.7672
 Red. masses --      1.1263                12.8333                 1.0356
 Frc consts  --      1.4924                26.0479                 5.5752
 IR Inten    --      2.6899               358.0380                23.3761

                     43                     44                     45
                      A                      A                      A
 Frequencies --   3040.7660              3054.7098              3061.1057
 Red. masses --      1.0598                 1.0564                 1.0583
 Frc consts  --      5.7735                 5.8080                 5.8428
 IR Inten    --     15.2572                36.3027                 4.4943

                     46                     47                     48
                      A                      A                      A
 Frequencies --   3078.4133              3088.4444              3096.3905
 Red. masses --      1.1018                 1.1005                 1.1015
 Frc consts  --      6.1516                 6.1849                 6.2222
 IR Inten    --      4.5979                23.5858                19.7131

                     49                     50                     51
                      A                      A                      A
 Frequencies --   3116.3493              3118.2140              3125.7854
 Red. masses --      1.1097                 1.1077                 1.0914
 Frc consts  --      6.3496                 6.3459                 6.2829
 IR Inten    --      8.9377                27.3697                50.6456

 - Thermochemistry -
 -------------------
 Temperature   298.150 Kelvin.  Pressure   1.00000 Atm.
 Atom     1 has atomic number  6 and mass  12.00000

 Molecular mass:   126.06808 amu.
 Principal axes and moments of inertia in atomic units:
                           1         2         3
     Eigenvalues --   611.109981181.891991491.66600
           X            0.99964  -0.02680   0.00000
           Y            0.02680   0.99964   0.00000
           Z            0.00000   0.00000   1.00000
 This molecule is an asymmetric top.
 Rotational symmetry number  1.
 Warning -- assumption of classical behavior for rotation
           may cause significant error
 Rotational temperatures (Kelvin)      0.14173     0.07328     0.05807
 Rotational constants (GHZ):           2.95322     1.52699     1.20988
 Zero-point vibrational energy     420593.1 (Joules/Mol)
                                  100.52416 (Kcal/Mol)
 Warning -- explicit consideration of  11 degrees of freedom as
           vibrations may cause significant error
 Vibrational temperatures:    152.12   311.16   352.41   380.81   528.46
          (Kelvin)            576.35   623.61   637.73   713.11   838.92
                              875.47   954.85  1141.78  1202.89  1221.81
                             1293.64  1329.04  1336.09  1360.28  1455.48
                             1459.31  1477.61  1548.54  1610.45  1662.41
                             1713.59  1731.08  1755.30  1785.57  1814.38
                             1839.04  1852.76  1952.81  2001.18  2033.58
                             2096.81  2111.27  2145.78  2147.20  2157.66
                             2670.45  4349.08  4374.98  4395.04  4404.24
                             4429.14  4443.58  4455.01  4483.73  4486.41
                             4497.30

 Zero-point correction=                           0.160195 (Hartree/Particle)
 Thermal correction to Energy=                    0.167864
 Thermal correction to Enthalpy=                  0.168808
 Thermal correction to Gibbs Free Energy=         0.128355
 Sum of electronic and zero-point Energies=           -423.066792
 Sum of electronic and thermal Energies=              -423.059123
 Sum of electronic and thermal Enthalpies=            -423.058179
 Sum of electronic and thermal Free Energies=         -423.098632

                     E (Thermal)             CV                S
                      KCal/Mol        Cal/Mol-Kelvin    Cal/Mol-Kelvin
 Total                  105.336             30.852             85.141
 Electronic               0.000              0.000              0.000
 Translational            0.889              2.981             40.409
 Rotational               0.889              2.981             28.468
 Vibrational            103.559             24.891             16.265
 Vibration     1          0.605              1.945              3.346
 Vibration     2          0.645              1.816              1.990
 Vibration     3          0.660              1.771              1.767
 Vibration     4          0.671              1.738              1.631
 Vibration     5          0.740              1.540              1.091
 Vibration     6          0.766              1.469              0.961
 Vibration     7          0.794              1.397              0.848
 Vibration     8          0.803              1.376              0.816
 Vibration     9          0.851              1.260              0.669
 Vibration    10          0.940              1.068              0.480
 Vibration    11          0.967              1.014              0.435

 Optimization completed.
    -- Stationary point found.
 Normal termination of Gaussian 09 at Mon Jan 27 17:56:00 2020.
