 Gaussian 09, Revision D.01,
 Gaussian 09:  ES64L-G09RevD.01 24-Apr-2013

 -----------------------------
 # b3lyp 6-31G(2df,p) opt Freq
 -----------------------------

 -----
 titel
 -----
 Symbolic Z-matrix:
 Charge =  0 Multiplicity = 1

 SCF Done:  E(RB3LYP) =  -423.126779655     A.U. after   12 cycles
 Optimization completed.
    -- Stationary point found.
 Normal termination of Gaussian 09 at Mon Jan 27 18:12:32 2020.

 ----------------------------------------------------------------------
 #N Geom=AllCheck Guess=TCheck SCRF=Check GenChk RB3LYP/6-31G(2df,p) Fr
 eq
 ----------------------------------------------------------------------

 Structure from the checkpoint file:  "/scratch/puck/g09_f1d2545d-3f47-40dd-85ba-c43735a97ca1/Gau-42171.chk"
 -----
 titel
 -----
 Charge =  0 Multiplicity = 1

                         Standard orientation:
 ---------------------------------------------------------------------
 Center     Atomic      Atomic             Coordinates (Angstroms)
 Number     Number       Type             X           Y           Z
 ---------------------------------------------------------------------
      1          6           0        1.999736   -0.944645   -0.376510
      2          6           0        0.530679   -0.664157   -0.280691
      3          6           0       -0.645897   -1.581656   -0.610349
      4          6           0       -1.543780   -0.535862    0.106432
      5          6           0       -1.482471    0.717873   -0.816983
      6          6           0       -0.015866    0.805756   -0.410800
      7          8           0        0.839283    1.881388   -0.542755
      8          6           0       -0.229147    0.000761    0.842930
      9          8           0        0.136122    0.168566    2.151396
     10          1           0        2.582101   -0.096550   -0.004230
     11          1           0        2.275974   -1.824709    0.214500
     12          1           0        2.305315   -1.135021   -1.413094
     13          1           0       -0.872355   -1.790028   -1.663457
     14          1           0       -0.583785   -2.524141   -0.057165
     15          1           0       -2.478224   -0.823101    0.582725
     16          1           0       -1.736210    0.566281   -1.873085
     17          1           0       -2.056800    1.557880   -0.414580
     18          1           0        1.249222    1.847823   -1.414641
     19          1           0       -0.167997    1.033507    2.449725
 ---------------------------------------------------------------------

 SCF Done:  E(RB3LYP) =  -423.126779655     A.U. after    1 cycles

 The electronic state is 1-A.
 Alpha  occ. eigenvalues --  -19.15372 -19.15142 -10.22997 -10.22787 -10.18859
 Alpha  occ. eigenvalues --  -10.18662 -10.17920 -10.17774 -10.17451  -1.04368
 Alpha  occ. eigenvalues --   -1.02913  -0.91131  -0.74469  -0.70524  -0.67907
 Alpha  occ. eigenvalues --   -0.60843  -0.56064  -0.55852  -0.49491  -0.46976
 Alpha  occ. eigenvalues --   -0.46015  -0.43959  -0.42525  -0.40504  -0.39669
 Alpha  occ. eigenvalues --   -0.38482  -0.36908  -0.35408  -0.34683  -0.31894
 Alpha  occ. eigenvalues --   -0.30431  -0.28019  -0.22828  -0.22491
 Alpha virt. eigenvalues --    0.05958   0.08975   0.11288   0.12048   0.13103
 Alpha virt. eigenvalues --    0.14041   0.14271   0.15909   0.16286   0.17619
 Alpha virt. eigenvalues --    0.18646   0.18704   0.20043   0.22233   0.23354

 Mulliken charges:
               1
     1  C   -0.515926
     2  C    0.216080
     3  C   -0.277801
     4  C   -0.137094
     5  C   -0.294019
     6  C    0.257908
     7  O   -0.465766
     8  C    0.293598
     9  O   -0.455906
    10  H    0.131329
    11  H    0.123721
    12  H    0.109819
    13  H    0.081139
    14  H    0.099022
    15  H    0.073456
    16  H    0.083536
    17  H    0.096413
    18  H    0.286713
    19  H    0.293780
 Sum of Mulliken charges =   0.00000

 Dipole moment (field-independent basis, Debye):
    X=             -0.4047    Y=              0.4100    Z=             -1.1726  Tot=              1.3065
 Quadrupole moment (field-independent basis, Debye-Ang):
   XX=            -51.9650   YY=            -53.5066   ZZ=            -50.8406
   XY=             -0.5434   XZ=             -3.6829   YZ=              1.2774

  Exact polarizability:  78.728  -1.808  75.854  -0.648   1.134  71.991
 Approx polarizability: 107.992  -0.833 111.910  -1.606   1.140 111.647

                      1                      2                      3
                      A                      A                      A
 Frequencies --    153.3477               161.6480               179.8757
 Red. masses --      3.5027                 1.0453                 3.0533
 Frc consts  --      0.0485                 0.0161                 0.0582
 IR Inten    --     12.3695                 2.4177                 4.7490

                      4                      5                      6
                      A                      A                      A
 Frequencies --    245.0107               257.4169               291.3095
 Red. masses --      2.1743                 2.7911                 1.1673
 Frc consts  --      0.0769                 0.1090                 0.0584
 IR Inten    --      6.4867                 5.2630                95.7132

                      7                      8                      9
                      A                      A                      A
 Frequencies --    305.9821               372.6245               418.9708
 Red. masses --      1.4325                 2.3927                 3.3864
 Frc consts  --      0.0790                 0.1957                 0.3502
 IR Inten    --     77.5638                 6.6712                 7.0977

                     10                     11                     12
                      A                      A                      A
 Frequencies --    457.0673               554.0509               605.9136
 Red. masses --      2.1816                 3.8598                 3.7007
 Frc consts  --      0.2685                 0.6981                 0.8005
 IR Inten    --      0.6503                 8.6889                 0.7728

                     13                     14                     15
                      A                      A                      A
 Frequencies --    629.0178               695.1952               705.1256
 Red. masses --      3.5571                 4.1819                 5.0551
 Frc consts  --      0.8292                 1.1908                 1.4809
 IR Inten    --      5.2494                 5.2666                 5.2911

                     16                     17                     18
                      A                      A                      A
 Frequencies --    802.9112               851.4766               909.9157
 Red. masses --      3.1222                 3.1874                 2.0624
 Frc consts  --      1.1859                 1.3616                 1.0061
 IR Inten    --     10.4797                10.9921                 9.1610

                     19                     20                     21
                      A                      A                      A
 Frequencies --    932.4124               961.8182               987.2189
 Red. masses --      2.1317                 2.0626                 1.5569
 Frc consts  --      1.0919                 1.1242                 0.8940
 IR Inten    --      0.4146                 6.7570                 7.4805

                     22                     23                     24
                      A                      A                      A
 Frequencies --   1031.9357              1051.7323              1088.9227
 Red. masses --      1.4034                 1.9322                 1.3561
 Frc consts  --      0.8805                 1.2593                 0.9474
 IR Inten    --     11.9270                 1.5882                 1.7842

                     25                     26                     27
                      A                      A                      A
 Frequencies --   1118.2657              1142.5953              1163.5449
 Red. masses --      2.0283                 1.6619                 1.7123
 Frc consts  --      1.4944                 1.2783                 1.3658
 IR Inten    --      8.5873                 7.8261                 6.1776

                     28                     29                     30
                      A                      A                      A
 Frequencies --   1204.8273              1216.6423              1243.4727
 Red. masses --      1.7149                 2.1541                 1.8382
 Frc consts  --      1.4667                 1.8786                 1.6746
 IR Inten    --      8.2570                17.2421                66.1213

                     31                     32                     33
                      A                      A                      A
 Frequencies --   1252.0675              1285.2866              1289.3554
 Red. masses --      1.8413                 1.5381                 1.4816
 Frc consts  --      1.7007                 1.4970                 1.4512
 IR Inten    --      0.5932               110.2128                75.1980

                     34                     35                     36
                      A                      A                      A
 Frequencies --   1330.9502              1393.0768              1419.2207
 Red. masses --      3.2708                 1.7128                 1.7005
 Frc consts  --      3.4137                 1.9584                 2.0180
 IR Inten    --     27.5703                 9.8244                 1.8226

                     37                     38                     39
                      A                      A                      A
 Frequencies --   1484.1251              1490.8307              1494.0909
 Red. masses --      1.4175                 1.0948                 1.1959
 Frc consts  --      1.8395                 1.4336                 1.5729
 IR Inten    --      5.4915                 8.1269                 2.1585

                     40                     41                     42
                      A                      A                      A
 Frequencies --   1499.8493              1533.8257              3018.9053
 Red. masses --      1.1083                 2.2309                 1.0485
 Frc consts  --      1.4689                 3.0923                 5.6299
 IR Inten    --      5.0703                36.4417                24.2789

                     43                     44                     45
                      A                      A                      A
 Frequencies --   3020.9761              3029.1912              3076.7986
 Red. masses --      1.0507                 1.0586                 1.0981
 Frc consts  --      5.6498                 5.7229                 6.1251
 IR Inten    --     68.0584                66.2749                18.3558

                     46                     47                     48
                      A                      A                      A
 Frequencies --   3082.4622              3090.3104              3106.6184
 Red. masses --      1.1035                 1.1051                 1.0990
 Frc consts  --      6.1777                 6.2178                 6.2491
 IR Inten    --     34.1919                29.5138                13.8188

                     49                     50                     51
                      A                      A                      A
 Frequencies --   3142.8574              3782.3922              3782.8864
 Red. masses --      1.0916                 1.0664                 1.0661
 Frc consts  --      6.3527                 8.9885                 8.9890
 IR Inten    --     32.3824                29.5697                12.6519

 - Thermochemistry -
 -------------------
 Temperature   298.150 Kelvin.  Pressure   1.00000 Atm.
 Atom     1 has atomic number  6 and mass  12.00000

 Molecular mass:   126.06808 amu.
 Principal axes and moments of inertia in atomic units:
                           1         2         3
     Eigenvalues --   939.59372 997.176411071.34982
           X            0.96836  -0.24718  -0.03441
           Y            0.24946   0.96269   0.10487
           Z            0.00721  -0.11013   0.99389
 This molecule is an asymmetric top.
 Rotational symmetry number  1.
 Warning -- assumption of classical behavior for rotation
           may cause significant error
 Rotational temperatures (Kelvin)      0.09218     0.08686     0.08085
 Rotational constants (GHZ):           1.92077     1.80985     1.68455
 Zero-point vibrational energy     414783.1 (Joules/Mol)
                                   99.13555 (Kcal/Mol)
 Warning -- explicit consideration of  12 degrees of freedom as
           vibrations may cause significant error
 Vibrational temperatures:    220.63   232.58   258.80   352.52   370.37
          (Kelvin)            419.13   440.24   536.12   602.80   657.62
                              797.15   871.77   905.02  1000.23  1014.52
                             1155.21  1225.08  1309.16  1341.53  1383.84
                             1420.39  1484.72  1513.21  1566.71  1608.93
                             1643.94  1674.08  1733.48  1750.47  1789.08
                             1801.44  1849.24  1855.09  1914.94  2004.32
                             2041.94  2135.32  2144.97  2149.66  2157.95
                             2206.83  4343.53  4346.51  4358.33  4426.82
                             4434.97  4446.26  4469.73  4521.87  5442.01
                             5442.72

 Zero-point correction=                           0.157983 (Hartree/Particle)
 Thermal correction to Energy=                    0.166691
 Thermal correction to Enthalpy=                  0.167635
 Thermal correction to Gibbs Free Energy=         0.125413
 Sum of electronic and zero-point Energies=           -422.968797
 Sum of electronic and thermal Energies=              -422.960089
 Sum of electronic and thermal Enthalpies=            -422.959145
 Sum of electronic and thermal Free Energies=         -423.001367

                     E (Thermal)             CV                S
                      KCal/Mol        Cal/Mol-Kelvin    Cal/Mol-Kelvin
 Total                  104.600             34.014             88.864
 Electronic               0.000              0.000              0.000
 Translational            0.889              2.981             40.409
 Rotational               0.889              2.981             28.397
 Vibrational            102.822             28.052             20.058
 Vibration     1          0.619              1.899              2.630
 Vibration     2          0.622              1.889              2.530
 Vibration     3          0.629              1.867              2.330
 Vibration     4          0.660              1.771              1.766
 Vibration     5          0.667              1.750              1.679
 Vibration     6          0.687              1.690              1.466
 Vibration     7          0.696              1.662              1.384
 Vibration     8          0.744              1.528              1.069
 Vibration     9          0.782              1.429              0.895
 Vibration    10          0.815              1.345              0.775
 Vibration    11          0.909              1.131              0.536
 Vibration    12          0.965              1.019              0.440

 Optimization completed.
    -- Stationary point found.
 Normal termination of Gaussian 09 at Mon Jan 27 19:01:52 2020.
