 Gaussian 09, Revision D.01,
 Gaussian 09:  ES64L-G09RevD.01 24-Apr-2013

 -----------------------------
 # b3lyp 6-31G(2df,p) opt Freq
 -----------------------------

 -----
 titel
 -----
 Symbolic Z-matrix:
 Charge =  0 Multiplicity = 1

 SCF Done:  E(RB3LYP) =  -423.175335396     A.U. after   14 cycles
 Optimization completed.
    -- Stationary point found.
 Normal termination of Gaussian 09 at Mon Jan 27 22:56:12 2020.

 ----------------------------------------------------------------------
 #N Geom=AllCheck Guess=TCheck SCRF=Check GenChk RB3LYP/6-31G(2df,p) Fr
 eq
 ----------------------------------------------------------------------

 Structure from the checkpoint file:  "/scratch/puck/g09_2f0edc77-854d-4933-b3d4-ca38be3d18c1/Gau-75291.chk"
 -----
 titel
 -----
 Charge =  0 Multiplicity = 1

                         Standard orientation:
 ---------------------------------------------------------------------
 Center     Atomic      Atomic             Coordinates (Angstroms)
 Number     Number       Type             X           Y           Z
 ---------------------------------------------------------------------
      1          6           0       -1.323698    1.909605   -0.171048
      2          6           0        0.031633    1.230777   -0.319352
      3          6           0        0.660151    0.534698    0.928657
      4          8           0       -0.307230   -0.472169    1.264713
      5          6           0       -0.559540   -1.134910   -0.013610
      6          6           0       -2.043882   -1.349329   -0.258615
      7          6           0        0.235587   -0.201640   -0.955651
      8          6           0        1.543296   -0.176148   -0.123337
      9          8           0        2.692329   -0.445269   -0.291599
     10          1           0       -1.184677    2.933893    0.189839
     11          1           0       -1.853871    1.967018   -1.126902
     12          1           0       -1.954022    1.385596    0.548460
     13          1           0        0.755143    1.915164   -0.775288
     14          1           0        1.012171    1.048907    1.819575
     15          1           0       -0.075726   -2.122511    0.016460
     16          1           0       -2.587189   -0.421305   -0.437902
     17          1           0       -2.182103   -2.002358   -1.126661
     18          1           0       -2.485334   -1.846885    0.610711
     19          1           0        0.213534   -0.396327   -2.025476
 ---------------------------------------------------------------------

 SCF Done:  E(RB3LYP) =  -423.175335396     A.U. after    1 cycles

 The electronic state is 1-A.
 Alpha  occ. eigenvalues --  -19.15006 -19.14638 -10.27524 -10.24729 -10.24419
 Alpha  occ. eigenvalues --  -10.21176 -10.20660 -10.18684 -10.18424  -1.06379
 Alpha  occ. eigenvalues --   -1.04300  -0.84623  -0.77555  -0.73673  -0.67563
 Alpha  occ. eigenvalues --   -0.59536  -0.57254  -0.55353  -0.52102  -0.47182
 Alpha  occ. eigenvalues --   -0.45660  -0.44923  -0.42381  -0.41723  -0.41033
 Alpha  occ. eigenvalues --   -0.40014  -0.38293  -0.37359  -0.35587  -0.34694
 Alpha  occ. eigenvalues --   -0.34052  -0.32914  -0.27795  -0.22620
 Alpha virt. eigenvalues --   -0.01672   0.08480   0.11014   0.11453   0.12170
 Alpha virt. eigenvalues --    0.12550   0.13686   0.14259   0.15628   0.16027
 Alpha virt. eigenvalues --    0.17538   0.18075   0.18854   0.19294   0.21359

 Mulliken charges:
               1
     1  C   -0.441246
     2  C    0.017212
     3  C   -0.040056
     4  O   -0.296600
     5  C    0.154893
     6  C   -0.425418
     7  C   -0.232694
     8  C    0.436841
     9  O   -0.316343
    10  H    0.120915
    11  H    0.122087
    12  H    0.142739
    13  H    0.097774
    14  H    0.097967
    15  H    0.092254
    16  H    0.126107
    17  H    0.119592
    18  H    0.133649
    19  H    0.090326
 Sum of Mulliken charges =   0.00000

 Dipole moment (field-independent basis, Debye):
    X=             -2.4060    Y=              1.0350    Z=             -1.0134  Tot=              2.8084
 Quadrupole moment (field-independent basis, Debye-Ang):
   XX=            -61.2361   YY=            -50.0301   ZZ=            -53.7001
   XY=              2.8261   XZ=              2.3848   YZ=              1.3719

  Exact polarizability:  84.071   0.071  76.832   1.301   2.750  66.025
 Approx polarizability: 122.443  -2.288 109.026  -0.736   3.259 105.333

                      1                      2                      3
                      A                      A                      A
 Frequencies --    139.2236               175.9956               182.7001
 Red. masses --      6.0229                 1.7434                 1.1508
 Frc consts  --      0.0688                 0.0318                 0.0226
 IR Inten    --      2.4575                 0.1577                 0.3224

                      4                      5                      6
                      A                      A                      A
 Frequencies --    225.7856               259.6377               275.8948
 Red. masses --      2.7867                 2.4962                 1.7868
 Frc consts  --      0.0837                 0.0991                 0.0801
 IR Inten    --      2.3746                 0.5408                 1.3144

                      7                      8                      9
                      A                      A                      A
 Frequencies --    300.6678               443.3207               512.5710
 Red. masses --      2.3344                 3.4409                 3.4823
 Frc consts  --      0.1243                 0.3984                 0.5390
 IR Inten    --      1.3600                 4.8980                 4.5711

                     10                     11                     12
                      A                      A                      A
 Frequencies --    530.6254               655.9382               682.6358
 Red. masses --      5.4586                 3.8669                 3.1094
 Frc consts  --      0.9055                 0.9803                 0.8537
 IR Inten    --      0.3662                 1.0383                 4.3082

                     13                     14                     15
                      A                      A                      A
 Frequencies --    725.1246               751.8140               795.9450
 Red. masses --      2.9672                 3.3950                 3.2532
 Frc consts  --      0.9192                 1.1306                 1.2143
 IR Inten    --      2.1313                 7.7423                 1.5050

                     16                     17                     18
                      A                      A                      A
 Frequencies --    837.8845               880.3617               959.6025
 Red. masses --      3.3745                 2.2633                 4.3498
 Frc consts  --      1.3958                 1.0335                 2.3599
 IR Inten    --     15.1862                 9.0319                34.0551

                     19                     20                     21
                      A                      A                      A
 Frequencies --   1000.2569              1026.0680              1051.5150
 Red. masses --      2.1077                 1.3289                 3.0689
 Frc consts  --      1.2424                 0.8243                 1.9992
 IR Inten    --      6.7719                 6.8760                 7.6159

                     22                     23                     24
                      A                      A                      A
 Frequencies --   1059.9939              1073.3708              1087.1730
 Red. masses --      1.4433                 2.2634                 1.5718
 Frc consts  --      0.9555                 1.5364                 1.0946
 IR Inten    --     14.5849                17.9594                15.9628

                     25                     26                     27
                      A                      A                      A
 Frequencies --   1115.7809              1128.1371              1135.8193
 Red. masses --      1.8628                 1.9312                 2.0461
 Frc consts  --      1.3664                 1.4481                 1.5552
 IR Inten    --      1.9789                10.6991                13.5009

                     28                     29                     30
                      A                      A                      A
 Frequencies --   1195.3155              1215.7930              1265.1067
 Red. masses --      1.8444                 2.2115                 1.4572
 Frc consts  --      1.5527                 1.9260                 1.3741
 IR Inten    --      4.9477                11.7382                 4.4072

                     31                     32                     33
                      A                      A                      A
 Frequencies --   1280.5623              1331.0064              1390.7535
 Red. masses --      1.5281                 1.3921                 1.2877
 Frc consts  --      1.4764                 1.4530                 1.4674
 IR Inten    --      2.9508                 3.9669                 1.9138

                     34                     35                     36
                      A                      A                      A
 Frequencies --   1404.1310              1407.1671              1423.3552
 Red. masses --      1.3042                 1.2174                 1.3624
 Frc consts  --      1.5149                 1.4203                 1.6263
 IR Inten    --      2.5912                 1.9912                28.3783

                     37                     38                     39
                      A                      A                      A
 Frequencies --   1487.3475              1491.2790              1497.5541
 Red. masses --      1.0607                 1.0462                 1.0463
 Frc consts  --      1.3824                 1.3708                 1.3825
 IR Inten    --      3.8217                 6.0018                 3.0010

                     40                     41                     42
                      A                      A                      A
 Frequencies --   1516.7236              1912.3356              2985.9626
 Red. masses --      1.0486                12.2369                 1.0845
 Frc consts  --      1.4213                26.3662                 5.6969
 IR Inten    --      3.5371               317.8422                46.5752

                     43                     44                     45
                      A                      A                      A
 Frequencies --   3041.3244              3046.9370              3054.8855
 Red. masses --      1.0406                 1.0390                 1.0811
 Frc consts  --      5.6710                 5.6829                 5.9445
 IR Inten    --     25.5029                18.8640                13.8687

                     46                     47                     48
                      A                      A                      A
 Frequencies --   3099.6597              3108.7199              3141.3240
 Red. masses --      1.1013                 1.1006                 1.0991
 Frc consts  --      6.2341                 6.2667                 6.3900
 IR Inten    --     20.3527                12.7750                19.3013

                     49                     50                     51
                      A                      A                      A
 Frequencies --   3153.0032              3155.1279              3161.8219
 Red. masses --      1.0906                 1.0969                 1.0930
 Frc consts  --      6.3878                 6.4336                 6.4379
 IR Inten    --     16.1726                12.4201                17.0207

 - Thermochemistry -
 -------------------
 Temperature   298.150 Kelvin.  Pressure   1.00000 Atm.
 Atom     1 has atomic number  6 and mass  12.00000

 Molecular mass:   126.06808 amu.
 Principal axes and moments of inertia in atomic units:
                           1         2         3
     Eigenvalues --   728.771611130.306841414.77186
           X            0.99955   0.02225   0.02026
           Y           -0.02265   0.99954   0.02004
           Z           -0.01981  -0.02049   0.99959
 This molecule is an asymmetric top.
 Rotational symmetry number  1.
 Warning -- assumption of classical behavior for rotation
           may cause significant error
 Rotational temperatures (Kelvin)      0.11885     0.07663     0.06122
 Rotational constants (GHZ):           2.47642     1.59668     1.27564
 Zero-point vibrational energy     417383.3 (Joules/Mol)
                                   99.75700 (Kcal/Mol)
 Warning -- explicit consideration of  10 degrees of freedom as
           vibrations may cause significant error
 Vibrational temperatures:    200.31   253.22   262.86   324.85   373.56
          (Kelvin)            396.95   432.59   637.84   737.47   763.45
                              943.75   982.16  1043.29  1081.69  1145.19
                             1205.53  1266.64  1380.65  1439.14  1476.28
                             1512.89  1525.09  1544.34  1564.20  1605.36
                             1623.14  1634.19  1719.79  1749.25  1820.20
                             1842.44  1915.02  2000.98  2020.23  2024.60
                             2047.89  2139.96  2145.62  2154.64  2182.22
                             2751.42  4296.13  4375.78  4383.86  4395.29
                             4459.71  4472.75  4519.66  4536.46  4539.52
                             4549.15

 Zero-point correction=                           0.158973 (Hartree/Particle)
 Thermal correction to Energy=                    0.167272
 Thermal correction to Enthalpy=                  0.168217
 Thermal correction to Gibbs Free Energy=         0.126499
 Sum of electronic and zero-point Energies=           -423.016362
 Sum of electronic and thermal Energies=              -423.008063
 Sum of electronic and thermal Enthalpies=            -423.007119
 Sum of electronic and thermal Free Energies=         -423.048836

                     E (Thermal)             CV                S
                      KCal/Mol        Cal/Mol-Kelvin    Cal/Mol-Kelvin
 Total                  104.965             32.152             87.802
 Electronic               0.000              0.000              0.000
 Translational            0.889              2.981             40.409
 Rotational               0.889              2.981             28.546
 Vibrational            103.188             26.191             18.848
 Vibration     1          0.615              1.914              2.815
 Vibration     2          0.628              1.872              2.370
 Vibration     3          0.630              1.863              2.301
 Vibration     4          0.650              1.802              1.912
 Vibration     5          0.668              1.746              1.664
 Vibration     6          0.678              1.718              1.559
 Vibration     7          0.693              1.672              1.413
 Vibration     8          0.803              1.376              0.816
 Vibration     9          0.868              1.222              0.627
 Vibration    10          0.886              1.182              0.586

 Optimization completed.
    -- Stationary point found.
 Normal termination of Gaussian 09 at Mon Jan 27 23:41:42 2020.
