 Gaussian 09, Revision D.01,
 Gaussian 09:  ES64L-G09RevD.01 24-Apr-2013

 -----------------------------
 # b3lyp 6-31G(2df,p) opt Freq
 -----------------------------

 -----
 titel
 -----
 Symbolic Z-matrix:
 Charge =  0 Multiplicity = 1

 SCF Done:  E(RB3LYP) =  -423.149888392     A.U. after   14 cycles
 Optimization completed.
    -- Stationary point found.
 Normal termination of Gaussian 09 at Mon Jan 27 13:52:04 2020.

 ----------------------------------------------------------------------
 #N Geom=AllCheck Guess=TCheck SCRF=Check GenChk RB3LYP/6-31G(2df,p) Fr
 eq
 ----------------------------------------------------------------------

 Structure from the checkpoint file:  "/scratch/puck/g09_0277711d-caf3-415a-bf17-821383648068/Gau-76198.chk"
 -----
 titel
 -----
 Charge =  0 Multiplicity = 1

                         Standard orientation:
 ---------------------------------------------------------------------
 Center     Atomic      Atomic             Coordinates (Angstroms)
 Number     Number       Type             X           Y           Z
 ---------------------------------------------------------------------
      1          8           0        3.856789   -0.503022   -0.544834
      2          6           0        3.083374    0.178141    0.076620
      3          6           0        1.702466   -0.252236    0.515591
      4          6           0        0.614388    0.698381   -0.019156
      5          6           0       -0.779662    0.365525    0.505259
      6          6           0       -1.935273    1.222578   -0.133208
      7          6           0       -2.519201   -0.072996   -0.710814
      8          8           0       -2.776781   -0.950262    0.391738
      9          6           0       -1.442690   -0.882202   -0.117388
     10          1           0        3.349498    1.221410    0.371870
     11          1           0        1.540714   -1.283833    0.190746
     12          1           0        1.682720   -0.233469    1.615125
     13          1           0        0.863396    1.730754    0.259745
     14          1           0        0.612829    0.667399   -1.116687
     15          1           0       -0.781325    0.342728    1.599943
     16          1           0       -2.591014    1.763921    0.552611
     17          1           0       -1.561482    1.906807   -0.900055
     18          1           0       -3.109172   -0.221569   -1.607700
     19          1           0       -0.986642   -1.811023   -0.442263
 ---------------------------------------------------------------------

 SCF Done:  E(RB3LYP) =  -423.149888392     A.U. after    1 cycles

 The electronic state is 1-A.
 Alpha  occ. eigenvalues --  -19.15362 -19.14275 -10.27495 -10.24138 -10.24008
 Alpha  occ. eigenvalues --  -10.20545 -10.20438 -10.20126 -10.19511  -1.08097
 Alpha  occ. eigenvalues --   -1.04955  -0.83224  -0.78023  -0.69191  -0.65185
 Alpha  occ. eigenvalues --   -0.61919  -0.57967  -0.55610  -0.52507  -0.48724
 Alpha  occ. eigenvalues --   -0.46486  -0.45907  -0.44296  -0.42529  -0.41482
 Alpha  occ. eigenvalues --   -0.39572  -0.38227  -0.36440  -0.35172  -0.34691
 Alpha  occ. eigenvalues --   -0.33188  -0.29381  -0.25860  -0.25356
 Alpha virt. eigenvalues --   -0.02467   0.08135   0.08818   0.10155   0.11082
 Alpha virt. eigenvalues --    0.11766   0.12351   0.12763   0.14108   0.14646
 Alpha virt. eigenvalues --    0.16677   0.17484   0.18532   0.19487   0.19804

 Mulliken charges:
               1
     1  O   -0.234530
     2  C    0.159592
     3  C   -0.277466
     4  C   -0.224862
     5  C   -0.005231
     6  C   -0.286459
     7  C    0.038438
     8  O   -0.246268
     9  C    0.028156
    10  H    0.070432
    11  H    0.124256
    12  H    0.121689
    13  H    0.108083
    14  H    0.111093
    15  H    0.082599
    16  H    0.112635
    17  H    0.106819
    18  H    0.105248
    19  H    0.105774
 Sum of Mulliken charges =   0.00000

 Dipole moment (field-independent basis, Debye):
    X=             -0.9327    Y=              1.8772    Z=              0.1152  Tot=              2.0993
 Quadrupole moment (field-independent basis, Debye-Ang):
   XX=            -69.8814   YY=            -52.7937   ZZ=            -52.0859
   XY=              0.7530   XZ=              8.3248   YZ=              0.4814

  Exact polarizability:  93.110  -2.383  72.923   1.034   1.972  63.424
 Approx polarizability: 119.647  -6.301 111.676  -4.249   2.449 102.082

                      1                      2                      3
                      A                      A                      A
 Frequencies --     49.2755                60.4758               105.8717
 Red. masses --      5.3357                 3.6099                 2.5326
 Frc consts  --      0.0076                 0.0078                 0.0167
 IR Inten    --      4.7416                 6.7268                 0.1843

                      4                      5                      6
                      A                      A                      A
 Frequencies --    131.6754               205.5720               276.3164
 Red. masses --      3.4018                 2.3170                 3.1662
 Frc consts  --      0.0348                 0.0577                 0.1424
 IR Inten    --      0.3380                 0.2809                 2.7358

                      7                      8                      9
                      A                      A                      A
 Frequencies --    347.0662               420.7686               516.1857
 Red. masses --      4.2163                 2.0213                 3.6914
 Frc consts  --      0.2992                 0.2108                 0.5795
 IR Inten    --      0.1995                 4.2816                10.8374

                     10                     11                     12
                      A                      A                      A
 Frequencies --    523.8792               735.8061               768.4941
 Red. masses --      2.5980                 2.5529                 1.5647
 Frc consts  --      0.4201                 0.8143                 0.5444
 IR Inten    --     10.2452                 3.9323                 0.8556

                     13                     14                     15
                      A                      A                      A
 Frequencies --    832.0508               834.9943               852.6974
 Red. masses --      1.7092                 2.2811                 3.1165
 Frc consts  --      0.6972                 0.9370                 1.3351
 IR Inten    --      6.6155                 6.8196                 2.3978

                     16                     17                     18
                      A                      A                      A
 Frequencies --    865.1550               916.5997               946.6729
 Red. masses --      2.1267                 1.8829                 2.3315
 Frc consts  --      0.9379                 0.9321                 1.2311
 IR Inten    --     25.7492                 3.3232                 2.5995

                     19                     20                     21
                      A                      A                      A
 Frequencies --    987.5260               996.6715              1009.6014
 Red. masses --      2.1957                 2.3876                 2.5059
 Frc consts  --      1.2616                 1.3974                 1.5049
 IR Inten    --     17.5827                12.6749                14.4730

                     22                     23                     24
                      A                      A                      A
 Frequencies --   1041.0914              1075.5688              1115.0945
 Red. masses --      1.2208                 2.1765                 2.2379
 Frc consts  --      0.7796                 1.4835                 1.6395
 IR Inten    --      0.5877                 1.7476                16.4825

                     25                     26                     27
                      A                      A                      A
 Frequencies --   1119.2992              1166.5318              1200.6942
 Red. masses --      2.1076                 1.4990                 1.4169
 Frc consts  --      1.5557                 1.2018                 1.2035
 IR Inten    --      0.4438                 6.4178                 6.6480

                     28                     29                     30
                      A                      A                      A
 Frequencies --   1225.1729              1230.0948              1241.7267
 Red. masses --      1.4972                 1.3476                 1.3294
 Frc consts  --      1.3241                 1.2014                 1.2077
 IR Inten    --      1.4815                 7.5906                 0.5211

                     31                     32                     33
                      A                      A                      A
 Frequencies --   1258.6630              1291.4233              1306.9073
 Red. masses --      1.4065                 1.5161                 1.2242
 Frc consts  --      1.3128                 1.4897                 1.2320
 IR Inten    --      2.4627                 0.7609                 9.1528

                     34                     35                     36
                      A                      A                      A
 Frequencies --   1354.8231              1384.1812              1387.8179
 Red. masses --      1.3711                 1.6362                 3.1538
 Frc consts  --      1.4829                 1.8470                 3.5789
 IR Inten    --      9.8279                 2.8562                18.5219

                     37                     38                     39
                      A                      A                      A
 Frequencies --   1428.0261              1463.7547              1471.5764
 Red. masses --      1.1942                 1.0855                 1.1171
 Frc consts  --      1.4349                 1.3703                 1.4253
 IR Inten    --      6.5079                 1.8527                 1.8301

                     40                     41                     42
                      A                      A                      A
 Frequencies --   1491.3719              1837.6913              2846.8521
 Red. masses --      1.0929                10.1243                 1.0814
 Frc consts  --      1.4322                20.1447                 5.1640
 IR Inten    --      4.8339               193.6485               113.6298

                     43                     44                     45
                      A                      A                      A
 Frequencies --   3010.5974              3017.5598              3045.7922
 Red. masses --      1.0622                 1.0623                 1.0934
 Frc consts  --      5.6722                 5.6991                 5.9764
 IR Inten    --      3.6088                22.6241                 4.8606

                     46                     47                     48
                      A                      A                      A
 Frequencies --   3061.6911              3063.1026              3102.2023
 Red. masses --      1.0710                 1.0789                 1.0967
 Frc consts  --      5.9153                 5.9645                 6.2184
 IR Inten    --     32.6846                32.8619                19.1053

                     49                     50                     51
                      A                      A                      A
 Frequencies --   3119.9600              3173.9881              3192.2322
 Red. masses --      1.1080                 1.0879                 1.1003
 Frc consts  --      6.3547                 6.4575                 6.6059
 IR Inten    --     21.8119                17.1766                19.8077

 - Thermochemistry -
 -------------------
 Temperature   298.150 Kelvin.  Pressure   1.00000 Atm.
 Atom     1 has atomic number  8 and mass  15.99491

 Molecular mass:   126.06808 amu.
 Principal axes and moments of inertia in atomic units:
                           1         2         3
     Eigenvalues --   363.432212631.375072776.91284
           X            0.99993  -0.00287   0.01162
           Y            0.00273   0.99992   0.01209
           Z           -0.01165  -0.01205   0.99986
 This molecule is an asymmetric top.
 Rotational symmetry number  1.
 Rotational temperatures (Kelvin)      0.23832     0.03292     0.03119
 Rotational constants (GHZ):           4.96583     0.68585     0.64991
 Zero-point vibrational energy     413362.7 (Joules/Mol)
                                   98.79605 (Kcal/Mol)
 Warning -- explicit consideration of  10 degrees of freedom as
           vibrations may cause significant error
 Vibrational temperatures:     70.90    87.01   152.33   189.45   295.77
          (Kelvin)            397.56   499.35   605.39   742.68   753.74
                             1058.66  1105.69  1197.13  1201.37  1226.84
                             1244.76  1318.78  1362.05  1420.83  1433.99
                             1452.59  1497.90  1547.50  1604.37  1610.42
                             1678.38  1727.53  1762.75  1769.83  1786.57
                             1810.93  1858.07  1880.35  1949.29  1991.53
                             1996.76  2054.61  2106.01  2117.27  2145.75
                             2644.02  4095.98  4331.57  4341.59  4382.21
                             4405.09  4407.12  4463.37  4488.92  4566.66
                             4592.90

 Zero-point correction=                           0.157442 (Hartree/Particle)
 Thermal correction to Energy=                    0.166328
 Thermal correction to Enthalpy=                  0.167272
 Thermal correction to Gibbs Free Energy=         0.122305
 Sum of electronic and zero-point Energies=           -422.992447
 Sum of electronic and thermal Energies=              -422.983560
 Sum of electronic and thermal Enthalpies=            -422.982616
 Sum of electronic and thermal Free Energies=         -423.027584

                     E (Thermal)             CV                S
                      KCal/Mol        Cal/Mol-Kelvin    Cal/Mol-Kelvin
 Total                  104.373             31.909             94.643
 Electronic               0.000              0.000              0.000
 Translational            0.889              2.981             40.409
 Rotational               0.889              2.981             29.364
 Vibrational            102.595             25.948             24.870
 Vibration     1          0.595              1.978              4.846
 Vibration     2          0.597              1.973              4.442
 Vibration     3          0.605              1.945              3.343
 Vibration     4          0.612              1.922              2.921
 Vibration     5          0.640              1.832              2.083
 Vibration     6          0.678              1.717              1.556
 Vibration     7          0.725              1.581              1.179
 Vibration     8          0.783              1.425              0.889
 Vibration     9          0.871              1.214              0.619
 Vibration    10          0.879              1.197              0.601

 Normal termination of Gaussian 09 at Mon Jan 27 14:28:48 2020.
