 Gaussian 09, Revision D.01,
 Gaussian 09:  ES64L-G09RevD.01 24-Apr-2013

 -----------------------------
 # b3lyp 6-31G(2df,p) opt Freq
 -----------------------------

 -----
 titel
 -----
 Symbolic Z-matrix:
 Charge =  0 Multiplicity = 1

 SCF Done:  E(RB3LYP) =  -423.172699799     A.U. after   14 cycles
 Optimization completed.
    -- Stationary point found.
 Normal termination of Gaussian 09 at Mon Jan 27 22:14:42 2020.

 ----------------------------------------------------------------------
 #N Geom=AllCheck Guess=TCheck SCRF=Check GenChk RB3LYP/6-31G(2df,p) Fr
 eq
 ----------------------------------------------------------------------

 Structure from the checkpoint file:  "/scratch/puck/g09_9a50c33b-0ea5-4dc8-833c-e342f67d8e81/Gau-28565.chk"
 -----
 titel
 -----
 Charge =  0 Multiplicity = 1

                         Standard orientation:
 ---------------------------------------------------------------------
 Center     Atomic      Atomic             Coordinates (Angstroms)
 Number     Number       Type             X           Y           Z
 ---------------------------------------------------------------------
      1          6           0       -2.569804   -0.789352    0.722908
      2          6           0       -1.473472   -0.514384   -0.317692
      3          6           0       -1.438074    0.941908   -0.755530
      4          6           0       -0.293415    1.552155   -0.436437
      5          6           0        0.671713    0.607857    0.177484
      6          8           0        1.545937    1.085183    1.143611
      7          6           0        1.104837   -0.549751   -0.702930
      8          8           0        2.274986   -1.209132   -0.281976
      9          6           0       -0.062874   -0.738445    0.228961
     10          1           0       -2.571974   -1.843900    1.018795
     11          1           0       -2.411443   -0.181829    1.619484
     12          1           0       -3.560133   -0.549005    0.322567
     13          1           0       -1.653506   -1.162954   -1.187195
     14          1           0       -2.271065    1.404021   -1.273809
     15          1           0       -0.040326    2.588930   -0.624657
     16          1           0        2.250567    0.425675    1.208722
     17          1           0        0.944427   -0.515398   -1.781025
     18          1           0        3.016262   -0.814799   -0.755208
     19          1           0        0.096341   -1.419082    1.058661
 ---------------------------------------------------------------------

 SCF Done:  E(RB3LYP) =  -423.172699799     A.U. after    1 cycles

 The electronic state is 1-A.
 Alpha  occ. eigenvalues --  -19.16143 -19.13812 -10.23517 -10.23315 -10.19332
 Alpha  occ. eigenvalues --  -10.18044 -10.17952 -10.17800 -10.17321  -1.04972
 Alpha  occ. eigenvalues --   -1.01778  -0.87286  -0.76920  -0.73606  -0.64334
 Alpha  occ. eigenvalues --   -0.60798  -0.56411  -0.54148  -0.53854  -0.48997
 Alpha  occ. eigenvalues --   -0.48432  -0.43737  -0.41975  -0.39922  -0.38914
 Alpha  occ. eigenvalues --   -0.37744  -0.37316  -0.35814  -0.34387  -0.33084
 Alpha  occ. eigenvalues --   -0.31994  -0.28254  -0.25400  -0.21015
 Alpha virt. eigenvalues --    0.01652   0.05929   0.10890   0.11967   0.13067
 Alpha virt. eigenvalues --    0.14096   0.14621   0.15122   0.16569   0.16986
 Alpha virt. eigenvalues --    0.17993   0.19190   0.20724   0.22595   0.23624

 Mulliken charges:
               1
     1  C   -0.397331
     2  C   -0.042474
     3  C   -0.089842
     4  C   -0.146246
     5  C    0.385102
     6  O   -0.485113
     7  C   -0.012545
     8  O   -0.437258
     9  C   -0.158122
    10  H    0.113450
    11  H    0.125731
    12  H    0.111521
    13  H    0.081787
    14  H    0.094531
    15  H    0.100584
    16  H    0.279328
    17  H    0.088082
    18  H    0.293946
    19  H    0.094868
 Sum of Mulliken charges =   0.00000

 Dipole moment (field-independent basis, Debye):
    X=              0.4388    Y=             -0.4239    Z=             -1.5897  Tot=              1.7027
 Quadrupole moment (field-independent basis, Debye-Ang):
   XX=            -45.9325   YY=            -56.4319   ZZ=            -53.1359
   XY=              0.0401   XZ=             -1.8975   YZ=             -2.3361

  Exact polarizability:  94.643   2.487  73.891   2.590  -2.390  62.855
 Approx polarizability: 134.162   7.034 113.598   8.265   0.390  96.622

                      1                      2                      3
                      A                      A                      A
 Frequencies --    128.0611               188.3201               231.6037
 Red. masses --      3.4868                 2.8951                 2.2353
 Frc consts  --      0.0337                 0.0605                 0.0706
 IR Inten    --      1.5679                 1.2942                 3.4791

                      4                      5                      6
                      A                      A                      A
 Frequencies --    243.5855               289.8063               299.7819
 Red. masses --      1.5043                 1.3521                 2.8903
 Frc consts  --      0.0526                 0.0669                 0.1530
 IR Inten    --      1.9017               114.9696                 9.2246

                      7                      8                      9
                      A                      A                      A
 Frequencies --    319.8485               390.8424               408.2846
 Red. masses --      2.7152                 3.1134                 2.7366
 Frc consts  --      0.1637                 0.2802                 0.2688
 IR Inten    --      8.0122                 6.9510                 4.3897

                     10                     11                     12
                      A                      A                      A
 Frequencies --    507.2770               520.6779               575.6338
 Red. masses --      1.1563                 4.0821                 3.0312
 Frc consts  --      0.1753                 0.6520                 0.5918
 IR Inten    --     50.6144                20.3806                 3.7296

                     13                     14                     15
                      A                      A                      A
 Frequencies --    665.5200               734.5055               759.2030
 Red. masses --      3.7103                 3.4018                 2.1766
 Frc consts  --      0.9682                 1.0813                 0.7392
 IR Inten    --      1.5279                16.6605                12.2180

                     16                     17                     18
                      A                      A                      A
 Frequencies --    787.5242               844.1359               899.9289
 Red. masses --      2.2327                 2.7189                 3.5941
 Frc consts  --      0.8158                 1.1415                 1.7150
 IR Inten    --     14.6516                 2.5335                25.7481

                     19                     20                     21
                      A                      A                      A
 Frequencies --    928.1597               965.1117               969.1863
 Red. masses --      1.6835                 1.7080                 1.3288
 Frc consts  --      0.8545                 0.9374                 0.7354
 IR Inten    --      0.4952                 4.9014                 1.5898

                     22                     23                     24
                      A                      A                      A
 Frequencies --   1026.5499              1036.9155              1055.2707
 Red. masses --      3.5273                 1.5191                 1.4152
 Frc consts  --      2.1901                 0.9623                 0.9285
 IR Inten    --      1.0522                 5.8998                 4.6880

                     25                     26                     27
                      A                      A                      A
 Frequencies --   1084.9629              1109.2402              1131.0345
 Red. masses --      2.0086                 1.2554                 2.0895
 Frc consts  --      1.3931                 0.9101                 1.5748
 IR Inten    --     17.9992                 9.0699                10.5892

                     28                     29                     30
                      A                      A                      A
 Frequencies --   1145.3604              1171.5838              1237.8571
 Red. masses --      1.7360                 1.7098                 1.5095
 Frc consts  --      1.3418                 1.3828                 1.3627
 IR Inten    --     18.2476                42.3167                66.6971

                     31                     32                     33
                      A                      A                      A
 Frequencies --   1274.6381              1286.4614              1307.9190
 Red. masses --      1.4327                 1.6406                 2.1508
 Frc consts  --      1.3714                 1.5997                 2.1678
 IR Inten    --     53.5481                 2.0739                51.6211

                     34                     35                     36
                      A                      A                      A
 Frequencies --   1330.7072              1362.7828              1403.7767
 Red. masses --      1.4229                 1.4603                 1.2369
 Frc consts  --      1.4845                 1.5979                 1.4361
 IR Inten    --     35.8761                90.1973                 3.3062

                     37                     38                     39
                      A                      A                      A
 Frequencies --   1437.0986              1447.9551              1493.5014
 Red. masses --      2.2221                 2.3093                 1.0446
 Frc consts  --      2.7039                 2.8527                 1.3728
 IR Inten    --     14.4368                29.0319                 3.5240

                     40                     41                     42
                      A                      A                      A
 Frequencies --   1499.9671              1664.4331              2999.8079
 Red. masses --      1.0524                 6.6690                 1.0821
 Frc consts  --      1.3951                10.8853                 5.7373
 IR Inten    --      2.3788                 4.6307                26.6826

                     43                     44                     45
                      A                      A                      A
 Frequencies --   3030.3289              3092.9934              3099.7408
 Red. masses --      1.0344                 1.0891                 1.1016
 Frc consts  --      5.5967                 6.1385                 6.2364
 IR Inten    --     30.2368                27.0448                23.6540

                     46                     47                     48
                      A                      A                      A
 Frequencies --   3108.5018              3174.1192              3187.1004
 Red. masses --      1.1021                 1.0901                 1.0852
 Frc consts  --      6.2746                 6.4706                 6.4949
 IR Inten    --     26.0000                 4.8457                 4.9431

                     49                     50                     51
                      A                      A                      A
 Frequencies --   3212.6188              3745.8338              3799.7034
 Red. masses --      1.1035                 1.0647                 1.0661
 Frc consts  --      6.7102                 8.8015                 9.0687
 IR Inten    --     16.0409                46.4537                31.2695

 - Thermochemistry -
 -------------------
 Temperature   298.150 Kelvin.  Pressure   1.00000 Atm.
 Atom     1 has atomic number  6 and mass  12.00000

 Molecular mass:   126.06808 amu.
 Principal axes and moments of inertia in atomic units:
                           1         2         3
     Eigenvalues --   654.406321355.612551588.09133
           X            0.99972   0.01769  -0.01564
           Y           -0.01858   0.99808  -0.05907
           Z            0.01456   0.05935   0.99813
 This molecule is an asymmetric top.
 Rotational symmetry number  1.
 Warning -- assumption of classical behavior for rotation
           may cause significant error
 Rotational temperatures (Kelvin)      0.13235     0.06389     0.05454
 Rotational constants (GHZ):           2.75783     1.33131     1.13642
 Zero-point vibrational energy     416394.7 (Joules/Mol)
                                   99.52073 (Kcal/Mol)
 Warning -- explicit consideration of  12 degrees of freedom as
           vibrations may cause significant error
 Vibrational temperatures:    184.25   270.95   333.23   350.46   416.97
          (Kelvin)            431.32   460.19   562.33   587.43   729.86
                              749.14   828.21   957.53  1056.79  1092.32
                             1133.07  1214.52  1294.80  1335.41  1388.58
                             1394.44  1476.97  1491.89  1518.30  1561.02
                             1595.95  1627.30  1647.92  1685.65  1781.00
                             1833.92  1850.93  1881.80  1914.59  1960.74
                             2019.72  2067.66  2083.28  2148.81  2158.12
                             2394.74  4316.05  4359.96  4450.12  4459.83
                             4472.44  4566.84  4585.52  4622.24  5389.41
                             5466.92

 Zero-point correction=                           0.158596 (Hartree/Particle)
 Thermal correction to Energy=                    0.167130
 Thermal correction to Enthalpy=                  0.168074
 Thermal correction to Gibbs Free Energy=         0.126085
 Sum of electronic and zero-point Energies=           -423.014103
 Sum of electronic and thermal Energies=              -423.005570
 Sum of electronic and thermal Enthalpies=            -423.004626
 Sum of electronic and thermal Free Energies=         -423.046615

                     E (Thermal)             CV                S
                      KCal/Mol        Cal/Mol-Kelvin    Cal/Mol-Kelvin
 Total                  104.876             33.873             88.374
 Electronic               0.000              0.000              0.000
 Translational            0.889              2.981             40.409
 Rotational               0.889              2.981             28.734
 Vibrational            103.098             27.912             19.231
 Vibration     1          0.611              1.925              2.975
 Vibration     2          0.633              1.856              2.244
 Vibration     3          0.653              1.793              1.866
 Vibration     4          0.659              1.773              1.777
 Vibration     5          0.686              1.693              1.475
 Vibration     6          0.692              1.674              1.418
 Vibration     7          0.706              1.636              1.311
 Vibration     8          0.759              1.490              0.997
 Vibration     9          0.773              1.452              0.933
 Vibration    10          0.862              1.234              0.640
 Vibration    11          0.876              1.204              0.608
 Vibration    12          0.932              1.084              0.494

 Normal termination of Gaussian 09 at Tue Jan 28 00:28:04 2020.
