 Gaussian 09, Revision D.01,
 Gaussian 09:  ES64L-G09RevD.01 24-Apr-2013

 -----------------------------
 # b3lyp 6-31G(2df,p) opt Freq
 -----------------------------

 -----
 titel
 -----
 Symbolic Z-matrix:
 Charge =  0 Multiplicity = 1

 SCF Done:  E(RB3LYP) =  -423.229477984     A.U. after   14 cycles
 Optimization completed.
    -- Stationary point found.
 Normal termination of Gaussian 09 at Mon Jan 27 18:25:26 2020.

 ----------------------------------------------------------------------
 #N Geom=AllCheck Guess=TCheck SCRF=Check GenChk RB3LYP/6-31G(2df,p) Fr
 eq
 ----------------------------------------------------------------------

 Structure from the checkpoint file:  "/scratch/puck/g09_e6086dff-55bc-4536-b88f-fe86db8d45b4/Gau-81707.chk"
 -----
 titel
 -----
 Charge =  0 Multiplicity = 1

                         Standard orientation:
 ---------------------------------------------------------------------
 Center     Atomic      Atomic             Coordinates (Angstroms)
 Number     Number       Type             X           Y           Z
 ---------------------------------------------------------------------
      1          6           0       -2.361536   -0.826267    0.128631
      2          6           0       -0.976419   -0.250095   -0.052980
      3          6           0       -0.880219    1.063815   -0.876723
      4          6           0        0.399709    1.725681   -0.289274
      5          6           0        0.818229    0.668834    0.765847
      6          8           0       -0.432759    0.157407    1.227609
      7          6           0        1.380482   -0.528888   -0.013415
      8          8           0        2.529346   -0.830486   -0.190288
      9          6           0        0.116548   -1.230232   -0.539307
     10          1           0       -2.332994   -1.708161    0.774970
     11          1           0       -3.025349   -0.085609    0.584150
     12          1           0       -2.783334   -1.120681   -0.837252
     13          1           0       -0.810835    0.873870   -1.950790
     14          1           0       -1.763809    1.681866   -0.701711
     15          1           0        1.180303    1.911584   -1.031291
     16          1           0        0.170722    2.671046    0.207024
     17          1           0        1.436845    1.017393    1.590505
     18          1           0        0.168606   -1.389175   -1.619188
     19          1           0        0.006390   -2.204586   -0.051646
 ---------------------------------------------------------------------

 SCF Done:  E(RB3LYP) =  -423.229477984     A.U. after    1 cycles

 The electronic state is 1-A.
 Alpha  occ. eigenvalues --  -19.14681 -19.13451 -10.26847 -10.24789 -10.23679
 Alpha  occ. eigenvalues --  -10.19601 -10.19253 -10.19213 -10.18543  -1.06075
 Alpha  occ. eigenvalues --   -1.03908  -0.80529  -0.77883  -0.74334  -0.68608
 Alpha  occ. eigenvalues --   -0.60944  -0.57002  -0.54149  -0.50253  -0.48534
 Alpha  occ. eigenvalues --   -0.46705  -0.44233  -0.42826  -0.41347  -0.40989
 Alpha  occ. eigenvalues --   -0.39303  -0.37938  -0.36799  -0.35545  -0.35372
 Alpha  occ. eigenvalues --   -0.33764  -0.32374  -0.28390  -0.23136
 Alpha virt. eigenvalues --   -0.01698   0.07038   0.10749   0.11169   0.13210
 Alpha virt. eigenvalues --    0.13958   0.14590   0.15190   0.16114   0.16639
 Alpha virt. eigenvalues --    0.17684   0.18054   0.18863   0.19861   0.21365

 Mulliken charges:
               1
     1  C   -0.477676
     2  C    0.386341
     3  C   -0.252458
     4  C   -0.238186
     5  C   -0.041861
     6  O   -0.289314
     7  C    0.422832
     8  O   -0.318841
     9  C   -0.375371
    10  H    0.127810
    11  H    0.128017
    12  H    0.122884
    13  H    0.105119
    14  H    0.108033
    15  H    0.119328
    16  H    0.116789
    17  H    0.098257
    18  H    0.125314
    19  H    0.132983
 Sum of Mulliken charges =   0.00000

 Dipole moment (field-independent basis, Debye):
    X=             -2.4071    Y=              0.8682    Z=             -1.0446  Tot=              2.7639
 Quadrupole moment (field-independent basis, Debye-Ang):
   XX=            -59.9415   YY=            -50.8870   ZZ=            -53.5312
   XY=              3.9535   XZ=              2.4881   YZ=              0.0712

  Exact polarizability:  83.690   1.372  74.604   1.384   1.696  63.965
 Approx polarizability: 120.319  -1.495 104.836  -0.925   3.119 101.810

                      1                      2                      3
                      A                      A                      A
 Frequencies --    103.6296               205.1502               207.8842
 Red. masses --      3.6193                 1.5847                 1.2518
 Frc consts  --      0.0229                 0.0393                 0.0319
 IR Inten    --      4.3381                 0.7376                 0.1979

                      4                      5                      6
                      A                      A                      A
 Frequencies --    279.3949               305.1417               389.1614
 Red. masses --      2.7436                 2.5300                 2.0833
 Frc consts  --      0.1262                 0.1388                 0.1859
 IR Inten    --      0.1156                 1.7432                 1.2339

                      7                      8                      9
                      A                      A                      A
 Frequencies --    459.2748               508.8721               546.4253
 Red. masses --      4.2354                 3.9161                 3.4246
 Frc consts  --      0.5264                 0.5975                 0.6025
 IR Inten    --      7.2059                10.2384                 6.3153

                     10                     11                     12
                      A                      A                      A
 Frequencies --    589.7272               625.0021               699.4053
 Red. masses --      4.0607                 3.0997                 3.3660
 Frc consts  --      0.8321                 0.7134                 0.9701
 IR Inten    --      1.6685                 2.3396                 2.4818

                     13                     14                     15
                      A                      A                      A
 Frequencies --    787.0641               826.8724               838.0547
 Red. masses --      2.9955                 1.9309                 2.9475
 Frc consts  --      1.0933                 0.7778                 1.2197
 IR Inten    --      5.3735                 4.4280                13.2277

                     16                     17                     18
                      A                      A                      A
 Frequencies --    880.1194               893.2990               908.9724
 Red. masses --      2.3992                 2.4182                 2.1300
 Frc consts  --      1.0950                 1.1369                 1.0369
 IR Inten    --      9.8839                 3.9444                 2.5861

                     19                     20                     21
                      A                      A                      A
 Frequencies --    949.9184               975.1156              1013.0117
 Red. masses --      1.8296                 2.2203                 2.3350
 Frc consts  --      0.9727                 1.2439                 1.4117
 IR Inten    --      1.3390                 1.1782                25.0374

                     22                     23                     24
                      A                      A                      A
 Frequencies --   1033.9447              1063.8104              1088.3223
 Red. masses --      3.8830                 1.5584                 1.6771
 Frc consts  --      2.4457                 1.0391                 1.1703
 IR Inten    --     42.0379                 0.2276                 6.0332

                     25                     26                     27
                      A                      A                      A
 Frequencies --   1159.7146              1171.3422              1197.7589
 Red. masses --      1.5991                 2.1547                 1.5005
 Frc consts  --      1.2671                 1.7418                 1.2683
 IR Inten    --      0.1499                34.7054                 1.9139

                     28                     29                     30
                      A                      A                      A
 Frequencies --   1215.0299              1232.0688              1267.5483
 Red. masses --      1.3895                 1.6005                 1.7459
 Frc consts  --      1.2086                 1.4315                 1.6527
 IR Inten    --      2.0365                 9.1719                19.0742

                     31                     32                     33
                      A                      A                      A
 Frequencies --   1277.3133              1308.9635              1319.9437
 Red. masses --      1.6360                 1.5957                 1.4918
 Frc consts  --      1.5726                 1.6108                 1.5313
 IR Inten    --      3.2980                 8.6993                 2.0899

                     34                     35                     36
                      A                      A                      A
 Frequencies --   1347.0526              1414.7296              1444.8713
 Red. masses --      2.0465                 1.3975                 1.1153
 Frc consts  --      2.1879                 1.6479                 1.3719
 IR Inten    --     20.8281                13.6732                 6.3378

                     37                     38                     39
                      A                      A                      A
 Frequencies --   1480.9291              1485.5477              1494.7734
 Red. masses --      1.0643                 1.0680                 1.0513
 Frc consts  --      1.3753                 1.3887                 1.3840
 IR Inten    --      2.4443                 0.8863                 3.7982

                     40                     41                     42
                      A                      A                      A
 Frequencies --   1504.6913              1866.6872              3041.4421
 Red. masses --      1.1018                12.6081                 1.0353
 Frc consts  --      1.4698                25.8846                 5.6423
 IR Inten    --      3.1280               236.2589                14.5751

                     43                     44                     45
                      A                      A                      A
 Frequencies --   3056.4695              3063.7963              3073.1193
 Red. masses --      1.0610                 1.0588                 1.0603
 Frc consts  --      5.8396                 5.8558                 5.8999
 IR Inten    --      8.0428                24.9721                21.4262

                     46                     47                     48
                      A                      A                      A
 Frequencies --   3103.9569              3112.3243              3115.7628
 Red. masses --      1.1070                 1.1023                 1.1015
 Frc consts  --      6.2839                 6.2910                 6.3002
 IR Inten    --      0.3228                 0.8316                13.2842

                     49                     50                     51
                      A                      A                      A
 Frequencies --   3117.9913              3124.1506              3148.4796
 Red. masses --      1.1021                 1.1062                 1.0903
 Frc consts  --      6.3126                 6.3612                 6.3681
 IR Inten    --     18.2894                35.9888                16.7397

 - Thermochemistry -
 -------------------
 Temperature   298.150 Kelvin.  Pressure   1.00000 Atm.
 Atom     1 has atomic number  6 and mass  12.00000

 Molecular mass:   126.06808 amu.
 Principal axes and moments of inertia in atomic units:
                           1         2         3
     Eigenvalues --   644.912801120.132151351.80768
           X            0.99834   0.05623   0.01258
           Y           -0.05610   0.99837  -0.01064
           Z           -0.01316   0.00992   0.99986
 This molecule is an asymmetric top.
 Rotational symmetry number  1.
 Warning -- assumption of classical behavior for rotation
           may cause significant error
 Rotational temperatures (Kelvin)      0.13430     0.07732     0.06407
 Rotational constants (GHZ):           2.79843     1.61119     1.33506
 Zero-point vibrational energy     420631.1 (Joules/Mol)
                                  100.53325 (Kcal/Mol)
 Warning -- explicit consideration of  10 degrees of freedom as
           vibrations may cause significant error
 Vibrational temperatures:    149.10   295.16   299.10   401.99   439.03
          (Kelvin)            559.92   660.79   732.15   786.18   848.48
                              899.24  1006.29  1132.41  1189.68  1205.77
                             1266.29  1285.26  1307.81  1366.72  1402.97
                             1457.50  1487.61  1530.58  1565.85  1668.57
                             1685.30  1723.31  1748.15  1772.67  1823.72
                             1837.77  1883.30  1899.10  1938.11  2035.48
                             2078.84  2130.72  2137.37  2150.64  2164.91
                             2685.74  4375.95  4397.57  4408.11  4421.53
                             4465.90  4477.93  4482.88  4486.09  4494.95
                             4529.95

 Zero-point correction=                           0.160210 (Hartree/Particle)
 Thermal correction to Energy=                    0.167913
 Thermal correction to Enthalpy=                  0.168857
 Thermal correction to Gibbs Free Energy=         0.128305
 Sum of electronic and zero-point Energies=           -423.069268
 Sum of electronic and thermal Energies=              -423.061565
 Sum of electronic and thermal Enthalpies=            -423.060621
 Sum of electronic and thermal Free Energies=         -423.101173

                     E (Thermal)             CV                S
                      KCal/Mol        Cal/Mol-Kelvin    Cal/Mol-Kelvin
 Total                  105.367             30.860             85.349
 Electronic               0.000              0.000              0.000
 Translational            0.889              2.981             40.409
 Rotational               0.889              2.981             28.370
 Vibrational            103.590             24.899             16.570
 Vibration     1          0.605              1.946              3.385
 Vibration     2          0.640              1.833              2.086
 Vibration     3          0.641              1.829              2.062
 Vibration     4          0.680              1.712              1.537
 Vibration     5          0.696              1.664              1.389
 Vibration     6          0.757              1.493              1.003
 Vibration     7          0.817              1.340              0.768
 Vibration     8          0.864              1.230              0.636
 Vibration     9          0.902              1.148              0.552
 Vibration    10          0.947              1.054              0.468

 Normal termination of Gaussian 09 at Mon Jan 27 19:19:20 2020.
