 Gaussian 09, Revision D.01,
 Gaussian 09:  ES64L-G09RevD.01 24-Apr-2013

 -----------------------------
 # b3lyp 6-31G(2df,p) opt Freq
 -----------------------------

 -----
 titel
 -----
 Symbolic Z-matrix:
 Charge =  0 Multiplicity = 1

 SCF Done:  E(RB3LYP) =  -423.133979398     A.U. after   14 cycles
 Optimization completed.
    -- Stationary point found.
 Normal termination of Gaussian 09 at Mon Jan 27 23:03:06 2020.

 ----------------------------------------------------------------------
 #N Geom=AllCheck Guess=TCheck SCRF=Check GenChk RB3LYP/6-31G(2df,p) Fr
 eq
 ----------------------------------------------------------------------

 Structure from the checkpoint file:  "/scratch/puck/g09_4b3a883d-dc32-4db4-b98a-36fa41169499/Gau-128733.chk"
 -----
 titel
 -----
 Charge =  0 Multiplicity = 1

                         Standard orientation:
 ---------------------------------------------------------------------
 Center     Atomic      Atomic             Coordinates (Angstroms)
 Number     Number       Type             X           Y           Z
 ---------------------------------------------------------------------
      1          6           0       -1.595172    1.639293   -0.433686
      2          6           0       -0.667655    0.532380   -0.934470
      3          6           0       -0.935423   -1.007520   -0.772479
      4          6           0        0.579075   -1.211968   -1.083287
      5          6           0        0.536280   -0.027550   -0.085825
      6          6           0        1.687171    0.721716    0.480233
      7          8           0        2.845370    0.431541    0.296716
      8          6           0       -0.511220   -0.926062    0.716196
      9          8           0       -1.355514   -0.425097    1.711545
     10          1           0       -1.237471    2.609787   -0.792598
     11          1           0       -2.608678    1.509177   -0.832064
     12          1           0       -1.653494    1.709254    0.653397
     13          1           0       -0.360120    0.772881   -1.958167
     14          1           0       -1.769593   -1.578830   -1.185596
     15          1           0        1.035050   -2.138052   -0.728860
     16          1           0        0.899026   -0.965640   -2.096204
     17          1           0        1.409588    1.591192    1.119143
     18          1           0       -0.047000   -1.828373    1.125230
     19          1           0       -2.144489   -0.054676    1.309541
 ---------------------------------------------------------------------

 SCF Done:  E(RB3LYP) =  -423.133979398     A.U. after    1 cycles

 The electronic state is 1-A.
 Alpha  occ. eigenvalues --  -19.15385 -19.13576 -10.26611 -10.25356 -10.21332
 Alpha  occ. eigenvalues --  -10.21314 -10.21130 -10.19806 -10.19092  -1.04249
 Alpha  occ. eigenvalues --   -1.03927  -0.91780  -0.75337  -0.69092  -0.66653
 Alpha  occ. eigenvalues --   -0.63763  -0.58583  -0.56806  -0.50224  -0.48597
 Alpha  occ. eigenvalues --   -0.46522  -0.44239  -0.42961  -0.42021  -0.41442
 Alpha  occ. eigenvalues --   -0.39544  -0.36748  -0.36616  -0.34323  -0.33371
 Alpha  occ. eigenvalues --   -0.32134  -0.31189  -0.27283  -0.24084
 Alpha virt. eigenvalues --   -0.02754   0.06361   0.10051   0.10986   0.11245
 Alpha virt. eigenvalues --    0.13037   0.13514   0.13650   0.15328   0.16611
 Alpha virt. eigenvalues --    0.17333   0.18427   0.18838   0.19266   0.20413

 Mulliken charges:
               1
     1  C   -0.477774
     2  C    0.002093
     3  C   -0.141883
     4  C   -0.262127
     5  C    0.200144
     6  C    0.018776
     7  O   -0.250641
     8  C    0.135510
     9  O   -0.443048
    10  H    0.128300
    11  H    0.122222
    12  H    0.132658
    13  H    0.080093
    14  H    0.076348
    15  H    0.107321
    16  H    0.108177
    17  H    0.074676
    18  H    0.094967
    19  H    0.294188
 Sum of Mulliken charges =   0.00000

 Dipole moment (field-independent basis, Debye):
    X=             -3.3345    Y=              0.3168    Z=             -1.3783  Tot=              3.6220
 Quadrupole moment (field-independent basis, Debye-Ang):
   XX=            -60.3149   YY=            -51.0145   ZZ=            -55.5623
   XY=             -1.7343   XZ=              0.6409   YZ=              0.6800

  Exact polarizability:  86.468  -2.854  76.179  -0.187   2.296  69.291
 Approx polarizability: 132.471  -3.232 108.902  -3.329   1.982 105.898

                      1                      2                      3
                      A                      A                      A
 Frequencies --     59.0700               106.0741               143.0655
 Red. masses --      3.6350                 1.1845                 3.7833
 Frc consts  --      0.0075                 0.0079                 0.0456
 IR Inten    --      8.8209                28.1215                 1.6471

                      4                      5                      6
                      A                      A                      A
 Frequencies --    163.1823               182.4991               293.1095
 Red. masses --      2.4346                 2.1979                 2.6770
 Frc consts  --      0.0382                 0.0431                 0.1355
 IR Inten    --     29.7427                13.8577                 5.5853

                      7                      8                      9
                      A                      A                      A
 Frequencies --    329.2748               361.4108               383.7546
 Red. masses --      3.3160                 1.6375                 2.9003
 Frc consts  --      0.2118                 0.1260                 0.2516
 IR Inten    --      3.0867                22.0182                 0.8558

                     10                     11                     12
                      A                      A                      A
 Frequencies --    516.1251               523.1731               626.1071
 Red. masses --      2.6304                 3.6785                 4.5193
 Frc consts  --      0.4128                 0.5932                 1.0438
 IR Inten    --      0.6920                 5.0551                 9.8485

                     13                     14                     15
                      A                      A                      A
 Frequencies --    726.9203               759.8764               794.5805
 Red. masses --      3.7584                 2.9501                 2.9958
 Frc consts  --      1.1701                 1.0036                 1.1144
 IR Inten    --     18.7020                 6.3647                 4.5800

                     16                     17                     18
                      A                      A                      A
 Frequencies --    805.1881               868.0557               936.8979
 Red. masses --      2.4346                 2.5763                 2.1345
 Frc consts  --      0.9300                 1.1438                 1.1039
 IR Inten    --      3.1309                 8.3029                25.8393

                     19                     20                     21
                      A                      A                      A
 Frequencies --    994.8386              1012.8043              1024.6510
 Red. masses --      1.8488                 1.6509                 1.2345
 Frc consts  --      1.0781                 0.9977                 0.7636
 IR Inten    --      1.5641                 8.6160                 1.2641

                     22                     23                     24
                      A                      A                      A
 Frequencies --   1040.5315              1076.9827              1103.9390
 Red. masses --      1.8316                 1.4499                 1.5740
 Frc consts  --      1.1684                 0.9908                 1.1302
 IR Inten    --     14.0322                49.4011                 3.8600

                     25                     26                     27
                      A                      A                      A
 Frequencies --   1132.1202              1143.6842              1162.9809
 Red. masses --      1.6814                 2.2601                 2.1136
 Frc consts  --      1.2697                 1.7418                 1.6843
 IR Inten    --      4.2514                16.4669                37.7864

                     28                     29                     30
                      A                      A                      A
 Frequencies --   1187.5196              1195.2067              1236.9241
 Red. masses --      1.6833                 2.0285                 1.6918
 Frc consts  --      1.3986                 1.7073                 1.5250
 IR Inten    --      0.4275                80.1530                 4.3862

                     31                     32                     33
                      A                      A                      A
 Frequencies --   1257.8171              1305.6228              1313.3481
 Red. masses --      2.0417                 1.7314                 2.7877
 Frc consts  --      1.9032                 1.7390                 2.8330
 IR Inten    --     33.1574                16.2462                18.9948

                     34                     35                     36
                      A                      A                      A
 Frequencies --   1405.3827              1416.4543              1426.9825
 Red. masses --      1.2062                 1.2355                 1.2810
 Frc consts  --      1.4037                 1.4605                 1.5368
 IR Inten    --      2.8767                 9.9750                10.5029

                     37                     38                     39
                      A                      A                      A
 Frequencies --   1457.5904              1495.5072              1522.5317
 Red. masses --      1.1402                 1.0463                 1.1120
 Frc consts  --      1.4272                 1.3787                 1.5188
 IR Inten    --     27.8743                 2.8589                 7.2560

                     40                     41                     42
                      A                      A                      A
 Frequencies --   1525.9985              1806.0498              2868.3905
 Red. masses --      1.0832                10.6316                 1.0815
 Frc consts  --      1.4861                20.4319                 5.2426
 IR Inten    --      7.2619               194.3825               110.8195

                     43                     44                     45
                      A                      A                      A
 Frequencies --   3031.6418              3039.3358              3065.0792
 Red. masses --      1.0490                 1.0763                 1.0841
 Frc consts  --      5.6804                 5.8578                 6.0006
 IR Inten    --     22.7707                36.0710                29.5214

                     46                     47                     48
                      A                      A                      A
 Frequencies --   3076.5495              3089.7814              3093.3742
 Red. masses --      1.0593                 1.0975                 1.0892
 Frc consts  --      5.9074                 6.1735                 6.1409
 IR Inten    --     34.0166                30.9283                45.5146

                     49                     50                     51
                      A                      A                      A
 Frequencies --   3132.4146              3145.9291              3861.9686
 Red. masses --      1.0975                 1.1114                 1.0662
 Frc consts  --      6.3445                 6.4808                 9.3693
 IR Inten    --     14.9735                27.0692                33.3459

 - Thermochemistry -
 -------------------
 Temperature   298.150 Kelvin.  Pressure   1.00000 Atm.
 Atom     1 has atomic number  6 and mass  12.00000

 Molecular mass:   126.06808 amu.
 Principal axes and moments of inertia in atomic units:
                           1         2         3
     Eigenvalues --   791.193571358.116381383.70303
           X            0.99866  -0.05165  -0.00227
           Y            0.05121   0.98227   0.18035
           Z           -0.00708  -0.18022   0.98360
 This molecule is an asymmetric top.
 Rotational symmetry number  1.
 Warning -- assumption of classical behavior for rotation
           may cause significant error
 Rotational temperatures (Kelvin)      0.10947     0.06377     0.06260
 Rotational constants (GHZ):           2.28104     1.32886     1.30428
 Zero-point vibrational energy     414077.2 (Joules/Mol)
                                   98.96682 (Kcal/Mol)
 Warning -- explicit consideration of  11 degrees of freedom as
           vibrations may cause significant error
 Vibrational temperatures:     84.99   152.62   205.84   234.78   262.58
          (Kelvin)            421.72   473.75   519.99   552.14   742.59
                              752.73   900.83  1045.87  1093.29  1143.22
                             1158.48  1248.94  1347.99  1431.35  1457.20
                             1474.24  1497.09  1549.54  1588.32  1628.87
                             1645.50  1673.27  1708.57  1719.63  1779.66
                             1809.72  1878.50  1889.61  2022.03  2037.96
                             2053.11  2097.14  2151.70  2190.58  2195.57
                             2598.50  4126.97  4361.85  4372.92  4409.96
                             4426.46  4445.50  4450.67  4506.84  4526.28
                             5556.50

 Zero-point correction=                           0.157714 (Hartree/Particle)
 Thermal correction to Energy=                    0.166840
 Thermal correction to Enthalpy=                  0.167784
 Thermal correction to Gibbs Free Energy=         0.123481
 Sum of electronic and zero-point Energies=           -422.976266
 Sum of electronic and thermal Energies=              -422.967139
 Sum of electronic and thermal Enthalpies=            -422.966195
 Sum of electronic and thermal Free Energies=         -423.010498

                     E (Thermal)             CV                S
                      KCal/Mol        Cal/Mol-Kelvin    Cal/Mol-Kelvin
 Total                  104.694             33.513             93.243
 Electronic               0.000              0.000              0.000
 Translational            0.889              2.981             40.409
 Rotational               0.889              2.981             28.788
 Vibrational            102.916             27.551             24.046
 Vibration     1          0.596              1.974              4.488
 Vibration     2          0.605              1.944              3.340
 Vibration     3          0.616              1.910              2.762
 Vibration     4          0.623              1.888              2.513
 Vibration     5          0.630              1.864              2.303
 Vibration     6          0.688              1.687              1.456
 Vibration     7          0.712              1.617              1.264
 Vibration     8          0.736              1.552              1.116
 Vibration     9          0.753              1.505              1.024
 Vibration    10          0.871              1.214              0.619
 Vibration    11          0.878              1.199              0.603

 Normal termination of Gaussian 09 at Mon Jan 27 23:45:05 2020.
