 Gaussian 09, Revision D.01,
 Gaussian 09:  ES64L-G09RevD.01 24-Apr-2013

 -----------------------------
 # b3lyp 6-31G(2df,p) opt Freq
 -----------------------------

 -----
 titel
 -----
 Symbolic Z-matrix:
 Charge =  0 Multiplicity = 1

 SCF Done:  E(RB3LYP) =  -423.214989756     A.U. after   14 cycles
 Optimization completed.
    -- Stationary point found.
 Normal termination of Gaussian 09 at Tue Jan 28 12:12:26 2020.

 ----------------------------------------------------------------------
 #N Geom=AllCheck Guess=TCheck SCRF=Check GenChk RB3LYP/6-31G(2df,p) Fr
 eq
 ----------------------------------------------------------------------

 Structure from the checkpoint file:  "/scratch/puck/g09_ca017dae-93ec-4c55-87a1-b89e8db289c6/Gau-6362.chk"
 -----
 titel
 -----
 Charge =  0 Multiplicity = 1

                         Standard orientation:
 ---------------------------------------------------------------------
 Center     Atomic      Atomic             Coordinates (Angstroms)
 Number     Number       Type             X           Y           Z
 ---------------------------------------------------------------------
      1          6           0       -2.953495   -0.548107    0.129042
      2          6           0       -1.849295    0.435141   -0.262414
      3          6           0       -0.479008    0.035535    0.270829
      4          8           0       -0.096401   -1.186900   -0.352361
      5          6           0        1.143449   -1.691670    0.081481
      6          6           0        2.242172   -0.672604    0.013685
      7          6           0        1.973116    0.635107   -0.062085
      8          6           0        0.584043    1.123001    0.045055
      9          8           0        0.304421    2.304689    0.033887
     10          1           0       -3.914729   -0.243696   -0.295343
     11          1           0       -2.724928   -1.554684   -0.231218
     12          1           0       -3.071468   -0.598760    1.217522
     13          1           0       -1.777429    0.510881   -1.353744
     14          1           0       -2.063171    1.441060    0.108533
     15          1           0       -0.541215   -0.114575    1.367446
     16          1           0        1.075539   -2.088045    1.113916
     17          1           0        1.375563   -2.544315   -0.566659
     18          1           0        3.265286   -1.041053    0.033702
     19          1           0        2.746508    1.392464   -0.139927
 ---------------------------------------------------------------------

 SCF Done:  E(RB3LYP) =  -423.214989756     A.U. after    1 cycles

 The electronic state is 1-A.
 Alpha  occ. eigenvalues --  -19.15297 -19.12846 -10.26525 -10.25097 -10.23935
 Alpha  occ. eigenvalues --  -10.21851 -10.19856 -10.17962 -10.17068  -1.05324
 Alpha  occ. eigenvalues --   -1.03363  -0.81476  -0.79088  -0.72823  -0.66758
 Alpha  occ. eigenvalues --   -0.62124  -0.59184  -0.53168  -0.51216  -0.49554
 Alpha  occ. eigenvalues --   -0.45746  -0.45168  -0.43125  -0.42060  -0.40983
 Alpha  occ. eigenvalues --   -0.39631  -0.38451  -0.36109  -0.34677  -0.34127
 Alpha  occ. eigenvalues --   -0.32311  -0.28958  -0.27683  -0.23335
 Alpha virt. eigenvalues --   -0.05586   0.04954   0.08873   0.11349   0.12022
 Alpha virt. eigenvalues --    0.13284   0.14384   0.15158   0.15757   0.17082
 Alpha virt. eigenvalues --    0.17440   0.18071   0.20399   0.20711   0.22403

 Mulliken charges:
               1
     1  C   -0.394259
     2  C   -0.181877
     3  C    0.001217
     4  O   -0.256502
     5  C   -0.125439
     6  C   -0.071318
     7  C   -0.140575
     8  C    0.360052
     9  O   -0.329605
    10  H    0.113467
    11  H    0.130135
    12  H    0.110078
    13  H    0.108550
    14  H    0.124614
    15  H    0.084085
    16  H    0.108745
    17  H    0.128231
    18  H    0.116177
    19  H    0.114226
 Sum of Mulliken charges =   0.00000

 Dipole moment (field-independent basis, Debye):
    X=              1.5235    Y=             -2.6119    Z=              0.7412  Tot=              3.1132
 Quadrupole moment (field-independent basis, Debye-Ang):
   XX=            -47.2705   YY=            -59.0804   ZZ=            -53.1094
   XY=             -3.4563   XZ=             -0.0692   YZ=             -0.8718

  Exact polarizability:  90.756  -7.448  90.780  -0.766  -2.049  55.336
 Approx polarizability: 113.685 -19.220 154.487  -0.139  -2.724  88.008

                      1                      2                      3
                      A                      A                      A
 Frequencies --     72.4750                93.8326               167.2229
 Red. masses --      4.1613                 2.1742                 3.4311
 Frc consts  --      0.0129                 0.0113                 0.0565
 IR Inten    --      3.1443                 0.4731                 2.5317

                      4                      5                      6
                      A                      A                      A
 Frequencies --    197.7319               246.9105               317.9297
 Red. masses --      1.5859                 1.5599                 2.4884
 Frc consts  --      0.0365                 0.0560                 0.1482
 IR Inten    --      0.7995                 1.8458                 2.3746

                      7                      8                      9
                      A                      A                      A
 Frequencies --    319.6895               399.4858               466.4326
 Red. masses --      4.3312                 3.2122                 4.0291
 Frc consts  --      0.2608                 0.3020                 0.5165
 IR Inten    --      8.3157                 3.2290                 3.1329

                     10                     11                     12
                      A                      A                      A
 Frequencies --    506.6595               526.2724               629.2716
 Red. masses --      5.5974                 5.1665                 2.0596
 Frc consts  --      0.8466                 0.8431                 0.4805
 IR Inten    --      4.6957                 3.6608                 5.5908

                     13                     14                     15
                      A                      A                      A
 Frequencies --    731.8262               767.9730               808.4799
 Red. masses --      2.1114                 1.2834                 4.1306
 Frc consts  --      0.6663                 0.4460                 1.5907
 IR Inten    --     13.4332                 6.4454                 5.6585

                     16                     17                     18
                      A                      A                      A
 Frequencies --    885.4152               906.0186               938.5018
 Red. masses --      2.5713                 2.6138                 2.3635
 Frc consts  --      1.1877                 1.2641                 1.2265
 IR Inten    --      1.5059                 6.5433                 4.8681

                     19                     20                     21
                      A                      A                      A
 Frequencies --    971.3866              1011.6274              1045.3753
 Red. masses --      1.9997                 1.2979                 1.7848
 Frc consts  --      1.1118                 0.7826                 1.1492
 IR Inten    --     13.9163                 7.7214                 8.4003

                     22                     23                     24
                      A                      A                      A
 Frequencies --   1061.3874              1108.2459              1129.9097
 Red. masses --      2.2095                 1.9913                 1.8757
 Frc consts  --      1.4665                 1.4410                 1.4109
 IR Inten    --      2.1239                70.4112                13.3749

                     25                     26                     27
                      A                      A                      A
 Frequencies --   1151.4093              1185.8036              1232.3120
 Red. masses --      2.3223                 2.6118                 1.5281
 Frc consts  --      1.8140                 2.1638                 1.3672
 IR Inten    --      6.1752                27.9668                57.5726

                     28                     29                     30
                      A                      A                      A
 Frequencies --   1262.3166              1301.9045              1309.1950
 Red. masses --      1.1994                 1.1953                 1.6420
 Frc consts  --      1.1260                 1.1937                 1.6582
 IR Inten    --     17.7116                 3.0081                 9.1147

                     31                     32                     33
                      A                      A                      A
 Frequencies --   1347.3592              1388.4799              1395.7468
 Red. masses --      1.2835                 1.5681                 1.4235
 Frc consts  --      1.3728                 1.7812                 1.6339
 IR Inten    --     15.9588                 4.2748                13.6892

                     34                     35                     36
                      A                      A                      A
 Frequencies --   1407.3526              1410.3370              1474.7759
 Red. masses --      1.8050                 1.2497                 1.0877
 Frc consts  --      2.1063                 1.4646                 1.3939
 IR Inten    --      5.6001                 0.6683                 6.6597

                     37                     38                     39
                      A                      A                      A
 Frequencies --   1478.0843              1497.1375              1509.9250
 Red. masses --      1.0796                 1.0428                 1.0566
 Frc consts  --      1.3896                 1.3772                 1.4193
 IR Inten    --      0.2868                 4.8487                 4.2144

                     40                     41                     42
                      A                      A                      A
 Frequencies --   1685.3141              1781.0754              2906.4469
 Red. masses --      6.8337                12.0834                 1.0790
 Frc consts  --     11.4358                22.5841                 5.3702
 IR Inten    --     11.4800               188.3934                33.1055

                     43                     44                     45
                      A                      A                      A
 Frequencies --   2917.2653              3035.0864              3047.1557
 Red. masses --      1.0721                 1.0389                 1.0641
 Frc consts  --      5.3759                 5.6384                 5.8213
 IR Inten    --     47.1015                23.0694                18.4846

                     46                     47                     48
                      A                      A                      A
 Frequencies --   3061.0949              3094.7667              3106.0140
 Red. masses --      1.0864                 1.0947                 1.1013
 Frc consts  --      5.9976                 6.1773                 6.2600
 IR Inten    --     21.3995                 9.5091                28.2748

                     49                     50                     51
                      A                      A                      A
 Frequencies --   3123.8690              3157.9241              3192.0443
 Red. masses --      1.1007                 1.0872                 1.0966
 Frc consts  --      6.3288                 6.3877                 6.5834
 IR Inten    --     25.7893                 9.3677                 9.8782

 - Thermochemistry -
 -------------------
 Temperature   298.150 Kelvin.  Pressure   1.00000 Atm.
 Atom     1 has atomic number  6 and mass  12.00000

 Molecular mass:   126.06808 amu.
 Principal axes and moments of inertia in atomic units:
                           1         2         3
     Eigenvalues --   725.410691247.489171894.34040
           X            0.99992  -0.01287  -0.00121
           Y            0.01286   0.99985  -0.01176
           Z            0.00136   0.01174   0.99993
 This molecule is an asymmetric top.
 Rotational symmetry number  1.
 Warning -- assumption of classical behavior for rotation
           may cause significant error
 Rotational temperatures (Kelvin)      0.11940     0.06943     0.04572
 Rotational constants (GHZ):           2.48789     1.44670     0.95270
 Zero-point vibrational energy     417318.8 (Joules/Mol)
                                   99.74159 (Kcal/Mol)
 Warning -- explicit consideration of  11 degrees of freedom as
           vibrations may cause significant error
 Vibrational temperatures:    104.28   135.00   240.60   284.49   355.25
          (Kelvin)            457.43   459.96   574.77   671.09   728.97
                              757.19   905.38  1052.93  1104.94  1163.22
                             1273.91  1303.56  1350.29  1397.61  1455.50
                             1504.06  1527.10  1594.52  1625.69  1656.62
                             1706.10  1773.02  1816.19  1873.15  1883.64
                             1938.55  1997.71  2008.17  2024.86  2029.16
                             2121.87  2126.63  2154.04  2172.44  2424.79
                             2562.57  4181.72  4197.29  4366.81  4384.17
                             4404.23  4452.67  4468.86  4494.55  4543.54
                             4592.63

 Zero-point correction=                           0.158948 (Hartree/Particle)
 Thermal correction to Energy=                    0.167663
 Thermal correction to Enthalpy=                  0.168607
 Thermal correction to Gibbs Free Energy=         0.125229
 Sum of electronic and zero-point Energies=           -423.056041
 Sum of electronic and thermal Energies=              -423.047326
 Sum of electronic and thermal Enthalpies=            -423.046382
 Sum of electronic and thermal Free Energies=         -423.089760

                     E (Thermal)             CV                S
                      KCal/Mol        Cal/Mol-Kelvin    Cal/Mol-Kelvin
 Total                  105.210             32.389             91.297
 Electronic               0.000              0.000              0.000
 Translational            0.889              2.981             40.409
 Rotational               0.889              2.981             28.929
 Vibrational            103.433             26.427             21.959
 Vibration     1          0.599              1.967              4.085
 Vibration     2          0.603              1.954              3.579
 Vibration     3          0.624              1.883              2.466
 Vibration     4          0.637              1.843              2.154
 Vibration     5          0.661              1.768              1.753
 Vibration     6          0.704              1.639              1.321
 Vibration     7          0.706              1.636              1.312
 Vibration     8          0.766              1.471              0.965
 Vibration     9          0.824              1.325              0.748
 Vibration    10          0.862              1.235              0.642
 Vibration    11          0.881              1.192              0.596

 Optimization completed.
    -- Stationary point found.
 Normal termination of Gaussian 09 at Tue Jan 28 13:51:12 2020.
