 Gaussian 09, Revision D.01,
 Gaussian 09:  ES64L-G09RevD.01 24-Apr-2013

 -----------------------------
 # b3lyp 6-31G(2df,p) opt Freq
 -----------------------------

 -----
 titel
 -----
 Symbolic Z-matrix:
 Charge =  0 Multiplicity = 1

 SCF Done:  E(RB3LYP) =  -423.133754954     A.U. after   14 cycles
 Optimization completed.
    -- Stationary point found.
 Normal termination of Gaussian 09 at Mon Jan 27 14:13:16 2020.

 ----------------------------------------------------------------------
 #N Geom=AllCheck Guess=TCheck SCRF=Check GenChk RB3LYP/6-31G(2df,p) Fr
 eq
 ----------------------------------------------------------------------

 Structure from the checkpoint file:  "/scratch/puck/g09_47438866-9da5-4ae4-bee0-f0d6bb6ea5d4/Gau-171151.chk"
 -----
 titel
 -----
 Charge =  0 Multiplicity = 1

                         Standard orientation:
 ---------------------------------------------------------------------
 Center     Atomic      Atomic             Coordinates (Angstroms)
 Number     Number       Type             X           Y           Z
 ---------------------------------------------------------------------
      1          6           0        3.269152   -0.473479    0.113582
      2          6           0        1.910405    0.187522   -0.033179
      3          8           0        1.768549    1.386554    0.058599
      4          6           0        0.732798   -0.743400   -0.292877
      5          6           0       -0.546545   -0.003391   -0.626713
      6          6           0       -1.903541   -0.738745   -0.437816
      7          6           0       -2.619975    0.627608   -0.339667
      8          6           0       -1.343917    0.654879    0.532039
      9          8           0       -1.700114   -0.701233    1.031110
     10          1           0        3.230702   -1.278091    0.855920
     11          1           0        3.565262   -0.933143   -0.836657
     12          1           0        4.014560    0.267463    0.404729
     13          1           0        1.006837   -1.447885   -1.089800
     14          1           0        0.573316   -1.351315    0.606819
     15          1           0       -0.456246    0.605353   -1.530332
     16          1           0       -2.252101   -1.677959   -0.870031
     17          1           0       -2.652446    1.261976   -1.228939
     18          1           0       -3.557366    0.614619    0.216482
     19          1           0       -1.010264    1.390450    1.261926
 ---------------------------------------------------------------------

 SCF Done:  E(RB3LYP) =  -423.133754954     A.U. after    1 cycles

 The electronic state is 1-A.
 Alpha  occ. eigenvalues --  -19.13087 -19.12869 -10.27101 -10.24844 -10.24514
 Alpha  occ. eigenvalues --  -10.19929 -10.19202 -10.19025 -10.18946  -1.05382
 Alpha  occ. eigenvalues --   -1.03873  -0.80263  -0.76898  -0.72838  -0.64929
 Alpha  occ. eigenvalues --   -0.64453  -0.54341  -0.52280  -0.51352  -0.47546
 Alpha  occ. eigenvalues --   -0.46351  -0.45221  -0.43688  -0.41542  -0.40166
 Alpha  occ. eigenvalues --   -0.39296  -0.38514  -0.34991  -0.34366  -0.33054
 Alpha  occ. eigenvalues --   -0.32155  -0.31222  -0.24536  -0.23903
 Alpha virt. eigenvalues --   -0.00992   0.08605   0.10019   0.11938   0.12080
 Alpha virt. eigenvalues --    0.13180   0.13538   0.14365   0.14519   0.15359
 Alpha virt. eigenvalues --    0.16444   0.17002   0.18185   0.18446   0.21192

 Mulliken charges:
               1
     1  C   -0.474013
     2  C    0.384226
     3  O   -0.298418
     4  C   -0.356495
     5  C    0.046824
     6  C    0.022168
     7  C   -0.224758
     8  C    0.060096
     9  O   -0.320439
    10  H    0.138583
    11  H    0.139444
    12  H    0.142162
    13  H    0.110901
    14  H    0.145350
    15  H    0.079698
    16  H    0.091049
    17  H    0.098240
    18  H    0.109045
    19  H    0.106337
 Sum of Mulliken charges =   0.00000

 Dipole moment (field-independent basis, Debye):
    X=              0.4345    Y=             -1.5054    Z=             -1.6516  Tot=              2.2766
 Quadrupole moment (field-independent basis, Debye-Ang):
   XX=            -50.1238   YY=            -55.5212   ZZ=            -53.0860
   XY=             -6.2789   XZ=              2.6746   YZ=              2.1249

  Exact polarizability:  91.934  -3.378  73.650   1.557   1.866  63.046
 Approx polarizability: 109.575  -1.258 123.182   0.279   1.506 102.813

                      1                      2                      3
                      A                      A                      A
 Frequencies --     43.3978                76.7310               117.5851
 Red. masses --      3.2745                 3.8536                 1.1298
 Frc consts  --      0.0036                 0.0134                 0.0092
 IR Inten    --      3.5017                 0.6998                 0.1357

                      4                      5                      6
                      A                      A                      A
 Frequencies --    127.9790               273.8987               310.4478
 Red. masses --      3.7913                 2.9799                 3.9940
 Frc consts  --      0.0366                 0.1317                 0.2268
 IR Inten    --      7.3886                 4.3811                 0.9928

                      7                      8                      9
                      A                      A                      A
 Frequencies --    342.8296               476.4882               526.2270
 Red. masses --      2.7429                 1.9621                 2.5052
 Frc consts  --      0.1899                 0.2625                 0.4087
 IR Inten    --      5.0566                 0.2810                21.0736

                     10                     11                     12
                      A                      A                      A
 Frequencies --    602.2359               663.1702               734.6780
 Red. masses --      3.2377                 3.3569                 4.4429
 Frc consts  --      0.6919                 0.8698                 1.4129
 IR Inten    --      2.9977                 3.3484                10.1084

                     13                     14                     15
                      A                      A                      A
 Frequencies --    771.4811               803.7416               833.4737
 Red. masses --      2.8538                 2.6240                 3.1892
 Frc consts  --      1.0008                 0.9987                 1.3053
 IR Inten    --      3.7030                 2.4302                 3.7909

                     16                     17                     18
                      A                      A                      A
 Frequencies --    880.9585               890.0835               911.0549
 Red. masses --      2.4853                 2.0073                 1.8466
 Frc consts  --      1.1364                 0.9369                 0.9030
 IR Inten    --     21.6966                 2.8982                 1.0179

                     19                     20                     21
                      A                      A                      A
 Frequencies --    922.8293               969.4810              1024.0546
 Red. masses --      2.7037                 1.9373                 1.5841
 Frc consts  --      1.3566                 1.0728                 0.9788
 IR Inten    --     13.7017                13.6004                 2.3975

                     22                     23                     24
                      A                      A                      A
 Frequencies --   1033.0765              1051.4221              1121.7255
 Red. masses --      1.1038                 1.7690                 1.6396
 Frc consts  --      0.6941                 1.1522                 1.2155
 IR Inten    --      0.9320                 9.3071                 6.0206

                     25                     26                     27
                      A                      A                      A
 Frequencies --   1126.6289              1137.2866              1150.2249
 Red. masses --      1.4556                 3.0142                 2.4235
 Frc consts  --      1.0885                 2.2970                 1.8891
 IR Inten    --      4.8518                 5.0342                 0.7737

                     28                     29                     30
                      A                      A                      A
 Frequencies --   1180.1178              1190.1167              1206.8716
 Red. masses --      1.7856                 1.4207                 1.4315
 Frc consts  --      1.4651                 1.1855                 1.2285
 IR Inten    --     53.2941                 8.2004                11.2199

                     31                     32                     33
                      A                      A                      A
 Frequencies --   1221.1483              1260.4909              1283.5700
 Red. masses --      1.4896                 1.6471                 1.5048
 Frc consts  --      1.3088                 1.5419                 1.4607
 IR Inten    --     30.9610                 6.4640                 1.1464

                     34                     35                     36
                      A                      A                      A
 Frequencies --   1346.9804              1384.0157              1413.7518
 Red. masses --      1.6505                 1.3666                 1.6587
 Frc consts  --      1.7643                 1.5423                 1.9532
 IR Inten    --     17.6790                37.0353                14.7042

                     37                     38                     39
                      A                      A                      A
 Frequencies --   1447.5204              1464.3762              1476.8356
 Red. masses --      1.0906                 1.0578                 1.0498
 Frc consts  --      1.3464                 1.3364                 1.3490
 IR Inten    --      9.6189                15.0141                 7.9620

                     40                     41                     42
                      A                      A                      A
 Frequencies --   1487.8874              1806.0839              3022.7984
 Red. masses --      1.1778                10.4402                 1.0606
 Frc consts  --      1.5362                20.0648                 5.7096
 IR Inten    --      1.5926               120.1499                18.4814

                     43                     44                     45
                      A                      A                      A
 Frequencies --   3037.1139              3060.3250              3064.7908
 Red. masses --      1.0389                 1.0900                 1.0627
 Frc consts  --      5.6462                 6.0144                 5.8811
 IR Inten    --      8.8461                 7.3115                22.9865

                     46                     47                     48
                      A                      A                      A
 Frequencies --   3081.7813              3097.3165              3107.9224
 Red. masses --      1.0837                 1.0979                 1.0926
 Frc consts  --      6.0642                 6.2054                 6.2180
 IR Inten    --     33.7150                 9.9893                59.6121

                     49                     50                     51
                      A                      A                      A
 Frequencies --   3139.3952              3152.1997              3153.2011
 Red. masses --      1.0948                 1.1020                 1.1091
 Frc consts  --      6.3576                 6.4513                 6.4973
 IR Inten    --     21.0346                10.8002                23.8767

 - Thermochemistry -
 -------------------
 Temperature   298.150 Kelvin.  Pressure   1.00000 Atm.
 Atom     1 has atomic number  6 and mass  12.00000

 Molecular mass:   126.06808 amu.
 Principal axes and moments of inertia in atomic units:
                           1         2         3
     Eigenvalues --   419.671301902.381412040.65729
           X            0.99953  -0.02923   0.00888
           Y            0.02891   0.99899   0.03447
           Z           -0.00988  -0.03420   0.99937
 This molecule is an asymmetric top.
 Rotational symmetry number  1.
 Rotational temperatures (Kelvin)      0.20638     0.04553     0.04244
 Rotational constants (GHZ):           4.30037     0.94867     0.88439
 Zero-point vibrational energy     412770.3 (Joules/Mol)
                                   98.65446 (Kcal/Mol)
 Warning -- explicit consideration of  10 degrees of freedom as
           vibrations may cause significant error
 Vibrational temperatures:     62.44   110.40   169.18   184.13   394.08
          (Kelvin)            446.66   493.25   685.56   757.12   866.48
                              954.15  1057.04  1109.99  1156.40  1199.18
                             1267.50  1280.63  1310.80  1327.74  1394.87
                             1473.38  1486.36  1512.76  1613.91  1620.97
                             1636.30  1654.92  1697.92  1712.31  1736.42
                             1756.96  1813.56  1846.77  1938.00  1991.29
                             2034.07  2082.66  2106.91  2124.83  2140.74
                             2598.55  4349.13  4369.72  4403.12  4409.54
                             4433.99  4456.34  4471.60  4516.88  4535.31
                             4536.75

 Zero-point correction=                           0.157216 (Hartree/Particle)
 Thermal correction to Energy=                    0.165940
 Thermal correction to Enthalpy=                  0.166884
 Thermal correction to Gibbs Free Energy=         0.122664
 Sum of electronic and zero-point Energies=           -422.976539
 Sum of electronic and thermal Energies=              -422.967815
 Sum of electronic and thermal Enthalpies=            -422.966871
 Sum of electronic and thermal Free Energies=         -423.011091

                     E (Thermal)             CV                S
                      KCal/Mol        Cal/Mol-Kelvin    Cal/Mol-Kelvin
 Total                  104.129             32.139             93.069
 Electronic               0.000              0.000              0.000
 Translational            0.889              2.981             40.409
 Rotational               0.889              2.981             28.879
 Vibrational            102.351             26.177             23.782
 Vibration     1          0.595              1.980              5.098
 Vibration     2          0.599              1.965              3.973
 Vibration     3          0.608              1.935              3.140
 Vibration     4          0.611              1.925              2.976
 Vibration     5          0.676              1.722              1.571
 Vibration     6          0.699              1.654              1.360
 Vibration     7          0.722              1.590              1.199
 Vibration     8          0.833              1.302              0.720
 Vibration     9          0.881              1.192              0.596
 Vibration    10          0.961              1.027              0.446

 Optimization completed.
    -- Stationary point found.
 Normal termination of Gaussian 09 at Mon Jan 27 14:56:23 2020.
