 Gaussian 09, Revision D.01,
 Gaussian 09:  ES64L-G09RevD.01 24-Apr-2013

 -----------------------------
 # b3lyp 6-31G(2df,p) opt Freq
 -----------------------------

 -----
 titel
 -----
 Symbolic Z-matrix:
 Charge =  0 Multiplicity = 1

 SCF Done:  E(RB3LYP) =  -423.127185189     A.U. after   13 cycles
 Optimization completed.
    -- Stationary point found.
 Normal termination of Gaussian 09 at Tue Jan 28 02:41:55 2020.

 ----------------------------------------------------------------------
 #N Geom=AllCheck Guess=TCheck SCRF=Check GenChk RB3LYP/6-31G(2df,p) Fr
 eq
 ----------------------------------------------------------------------

 Structure from the checkpoint file:  "/scratch/puck/g09_a2fd3965-c64e-4fb5-84b6-abe99ab4f739/Gau-172416.chk"
 -----
 titel
 -----
 Charge =  0 Multiplicity = 1

                         Standard orientation:
 ---------------------------------------------------------------------
 Center     Atomic      Atomic             Coordinates (Angstroms)
 Number     Number       Type             X           Y           Z
 ---------------------------------------------------------------------
      1          8           0        2.876093    0.073739   -0.810049
      2          6           0        1.995044   -0.078379    0.279890
      3          6           0        0.980263    1.108708    0.476816
      4          6           0       -0.151944    0.146996    0.066316
      5          8           0       -0.089939   -0.948098    0.997641
      6          6           0        0.806486   -0.960635   -0.121777
      7          6           0       -1.457040    0.472537   -0.550832
      8          6           0       -2.688824    0.592775    0.320966
      9          6           0       -2.543577   -0.569702   -0.625499
     10          1           0        3.542894    0.723938   -0.568060
     11          1           0        2.513999   -0.410330    1.188569
     12          1           0        0.888919    1.547638    1.473592
     13          1           0        1.168101    1.885753   -0.269028
     14          1           0        0.796666   -1.824522   -0.776533
     15          1           0       -1.383458    1.168479   -1.381560
     16          1           0       -2.568614    0.390271    1.379246
     17          1           0       -3.405329    1.371458    0.085154
     18          1           0       -2.324637   -1.537464   -0.190643
     19          1           0       -3.160217   -0.594154   -1.516757
 ---------------------------------------------------------------------

 SCF Done:  E(RB3LYP) =  -423.127185189     A.U. after    1 cycles

 The electronic state is 1-A.
 Alpha  occ. eigenvalues --  -19.14925 -19.14257 -10.23916 -10.23718 -10.22859
 Alpha  occ. eigenvalues --  -10.19490 -10.18461 -10.18328 -10.18323  -1.07631
 Alpha  occ. eigenvalues --   -1.02397  -0.85544  -0.78757  -0.67887  -0.64311
 Alpha  occ. eigenvalues --   -0.59722  -0.58572  -0.54481  -0.52360  -0.50420
 Alpha  occ. eigenvalues --   -0.47707  -0.45596  -0.44463  -0.40858  -0.39023
 Alpha  occ. eigenvalues --   -0.36754  -0.36121  -0.35323  -0.33297  -0.32003
 Alpha  occ. eigenvalues --   -0.29606  -0.28702  -0.25929  -0.24344
 Alpha virt. eigenvalues --    0.06695   0.08891   0.10264   0.11876   0.12626
 Alpha virt. eigenvalues --    0.13294   0.14097   0.14868   0.15149   0.16773
 Alpha virt. eigenvalues --    0.17799   0.18421   0.19408   0.21068   0.22959

 Mulliken charges:
               1
     1  O   -0.438101
     2  C    0.110950
     3  C   -0.336395
     4  C    0.445477
     5  O   -0.291683
     6  C   -0.065058
     7  C   -0.138904
     8  C   -0.263645
     9  C   -0.266339
    10  H    0.287724
    11  H    0.076241
    12  H    0.101212
    13  H    0.105892
    14  H    0.106350
    15  H    0.088966
    16  H    0.125820
    17  H    0.111330
    18  H    0.130143
    19  H    0.110019
 Sum of Mulliken charges =   0.00000

 Dipole moment (field-independent basis, Debye):
    X=              0.5470    Y=              1.6159    Z=             -0.3862  Tot=              1.7492
 Quadrupole moment (field-independent basis, Debye-Ang):
   XX=            -48.1595   YY=            -51.4770   ZZ=            -55.0405
   XY=              2.3013   XZ=              3.7103   YZ=              0.9146

  Exact polarizability:  92.518  -0.587  71.038   0.551   2.427  64.349
 Approx polarizability: 116.039  -1.644 109.245  -4.100   0.848 101.836

                      1                      2                      3
                      A                      A                      A
 Frequencies --     69.7394               102.8045               184.0568
 Red. masses --      3.1661                 3.8047                 2.4078
 Frc consts  --      0.0091                 0.0237                 0.0481
 IR Inten    --      0.3148                 0.5241                 5.4056

                      4                      5                      6
                      A                      A                      A
 Frequencies --    213.9715               262.7052               354.4956
 Red. masses --      3.4936                 1.1578                 4.2097
 Frc consts  --      0.0942                 0.0471                 0.3117
 IR Inten    --      0.6393               104.2646                10.5305

                      7                      8                      9
                      A                      A                      A
 Frequencies --    368.0623               450.0782               484.1679
 Red. masses --      2.8450                 3.3532                 2.2806
 Frc consts  --      0.2271                 0.4002                 0.3150
 IR Inten    --      1.7658                 9.6262                 3.4714

                     10                     11                     12
                      A                      A                      A
 Frequencies --    510.2074               633.8529               747.5595
 Red. masses --      7.3705                 2.6173                 3.2894
 Frc consts  --      1.1304                 0.6196                 1.0831
 IR Inten    --      3.6763                 2.8551                 2.3281

                     13                     14                     15
                      A                      A                      A
 Frequencies --    791.2436               823.7130               828.4031
 Red. masses --      1.1087                 1.2537                 2.6317
 Frc consts  --      0.4090                 0.5012                 1.0641
 IR Inten    --      0.9388                 5.6029                 1.0786

                     16                     17                     18
                      A                      A                      A
 Frequencies --    885.5123               895.5771               914.9289
 Red. masses --      3.3140                 2.8898                 3.2998
 Frc consts  --      1.5310                 1.3656                 1.6275
 IR Inten    --     18.0412                16.1808                 2.9727

                     19                     20                     21
                      A                      A                      A
 Frequencies --    954.5568               973.8839              1010.3316
 Red. masses --      2.8002                 3.0762                 2.3027
 Frc consts  --      1.5033                 1.7190                 1.3849
 IR Inten    --      1.6543                31.4051                10.2418

                     22                     23                     24
                      A                      A                      A
 Frequencies --   1035.3629              1063.5028              1078.8067
 Red. masses --      1.8167                 1.2942                 1.6681
 Frc consts  --      1.1474                 0.8625                 1.1438
 IR Inten    --      2.2707                13.8781                46.1255

                     25                     26                     27
                      A                      A                      A
 Frequencies --   1088.3953              1122.9477              1129.5276
 Red. masses --      1.3622                 1.8836                 1.1289
 Frc consts  --      0.9508                 1.3995                 0.8486
 IR Inten    --      1.0335                21.8951                 0.3937

                     28                     29                     30
                      A                      A                      A
 Frequencies --   1142.4119              1175.3748              1200.5158
 Red. masses --      2.5757                 1.5252                 1.3116
 Frc consts  --      1.9806                 1.2414                 1.1137
 IR Inten    --      9.6054                20.2552                 8.3431

                     31                     32                     33
                      A                      A                      A
 Frequencies --   1206.6424              1217.2731              1228.0051
 Red. masses --      1.4039                 2.0227                 1.5495
 Frc consts  --      1.2044                 1.7659                 1.3767
 IR Inten    --      8.7161                19.9963                52.9163

                     34                     35                     36
                      A                      A                      A
 Frequencies --   1242.1993              1305.9842              1380.2235
 Red. masses --      1.4539                 1.3497                 1.8574
 Frc consts  --      1.3218                 1.3563                 2.0848
 IR Inten    --      9.4283                30.2466                 8.0911

                     37                     38                     39
                      A                      A                      A
 Frequencies --   1416.6376              1451.5419              1460.5246
 Red. masses --      1.5245                 1.3036                 1.0920
 Frc consts  --      1.8026                 1.6183                 1.3725
 IR Inten    --     10.9375                 8.1992                 2.1519

                     40                     41                     42
                      A                      A                      A
 Frequencies --   1485.7859              1505.5649              3017.5473
 Red. masses --      1.8244                 2.0329                 1.0851
 Frc consts  --      2.3729                 2.7150                 5.8216
 IR Inten    --      6.4876                 3.9608                62.5002

                     43                     44                     45
                      A                      A                      A
 Frequencies --   3058.7372              3122.4907              3138.0394
 Red. masses --      1.0575                 1.1088                 1.0519
 Frc consts  --      5.8291                 6.3697                 6.1028
 IR Inten    --     24.5199                17.4067                16.2122

                     46                     47                     48
                      A                      A                      A
 Frequencies --   3142.5870              3150.1338              3190.3008
 Red. masses --      1.0590                 1.0856                 1.0946
 Frc consts  --      6.1618                 6.3471                 6.5639
 IR Inten    --     12.4957                10.1635                11.7951

                     49                     50                     51
                      A                      A                      A
 Frequencies --   3222.2318              3237.7706              3821.2712
 Red. masses --      1.1180                 1.1159                 1.0662
 Frc consts  --      6.8395                 6.8921                 9.1731
 IR Inten    --      1.7248                11.0515                27.5714

 - Thermochemistry -
 -------------------
 Temperature   298.150 Kelvin.  Pressure   1.00000 Atm.
 Atom     1 has atomic number  8 and mass  15.99491

 Molecular mass:   126.06808 amu.
 Principal axes and moments of inertia in atomic units:
                           1         2         3
     Eigenvalues --   422.145211776.676061839.66824
           X            0.99992   0.00274   0.01218
           Y           -0.00447   0.98961   0.14373
           Z           -0.01166  -0.14377   0.98954
 This molecule is an asymmetric top.
 Rotational symmetry number  1.
 Rotational temperatures (Kelvin)      0.20518     0.04875     0.04708
 Rotational constants (GHZ):           4.27517     1.01580     0.98101
 Zero-point vibrational energy     415691.5 (Joules/Mol)
                                   99.35265 (Kcal/Mol)
 Warning -- explicit consideration of  10 degrees of freedom as
           vibrations may cause significant error
 Vibrational temperatures:    100.34   147.91   264.82   307.86   377.97
          (Kelvin)            510.04   529.56   647.56   696.61   734.07
                              911.97  1075.57  1138.42  1185.14  1191.89
                             1274.05  1288.53  1316.38  1373.39  1401.20
                             1453.64  1489.65  1530.14  1552.16  1565.96
                             1615.67  1625.14  1643.67  1691.10  1727.27
                             1736.09  1751.38  1766.82  1787.25  1879.02
                             1985.83  2038.22  2088.44  2101.37  2137.71
                             2166.17  4341.57  4400.84  4492.56  4514.93
                             4521.48  4532.33  4590.13  4636.07  4658.42
                             5497.95

 Zero-point correction=                           0.158329 (Hartree/Particle)
 Thermal correction to Energy=                    0.166761
 Thermal correction to Enthalpy=                  0.167705
 Thermal correction to Gibbs Free Energy=         0.125060
 Sum of electronic and zero-point Energies=           -422.968857
 Sum of electronic and thermal Energies=              -422.960424
 Sum of electronic and thermal Enthalpies=            -422.959480
 Sum of electronic and thermal Free Energies=         -423.002125

                     E (Thermal)             CV                S
                      KCal/Mol        Cal/Mol-Kelvin    Cal/Mol-Kelvin
 Total                  104.644             32.447             89.754
 Electronic               0.000              0.000              0.000
 Translational            0.889              2.981             40.409
 Rotational               0.889              2.981             28.713
 Vibrational            102.867             26.485             20.632
 Vibration     1          0.598              1.969              4.161
 Vibration     2          0.605              1.947              3.400
 Vibration     3          0.631              1.862              2.287
 Vibration     4          0.644              1.820              2.010
 Vibration     5          0.670              1.741              1.644
 Vibration     6          0.730              1.566              1.146
 Vibration     7          0.741              1.538              1.088
 Vibration     8          0.809              1.361              0.796
 Vibration     9          0.840              1.285              0.699
 Vibration    10          0.865              1.227              0.633

 Normal termination of Gaussian 09 at Tue Jan 28 03:14:49 2020.
