 Gaussian 09, Revision D.01,
 Gaussian 09:  ES64L-G09RevD.01 24-Apr-2013

 -----------------------------
 # b3lyp 6-31G(2df,p) opt Freq
 -----------------------------

 -----
 titel
 -----
 Symbolic Z-matrix:
 Charge =  0 Multiplicity = 1

 SCF Done:  E(RB3LYP) =  -423.132056903     A.U. after   13 cycles
 Optimization completed.
    -- Stationary point found.
 Normal termination of Gaussian 09 at Tue Jan 28 14:05:37 2020.

 ----------------------------------------------------------------------
 #N Geom=AllCheck Guess=TCheck SCRF=Check GenChk RB3LYP/6-31G(2df,p) Fr
 eq
 ----------------------------------------------------------------------

 Structure from the checkpoint file:  "/scratch/puck/g09_8a43c474-243a-4240-b84c-a21a0c7d90a6/Gau-122923.chk"
 -----
 titel
 -----
 Charge =  0 Multiplicity = 1

                         Standard orientation:
 ---------------------------------------------------------------------
 Center     Atomic      Atomic             Coordinates (Angstroms)
 Number     Number       Type             X           Y           Z
 ---------------------------------------------------------------------
      1          6           0        2.979832    0.015817   -0.336276
      2          6           0        1.800122   -0.335384    0.576794
      3          6           0        0.497676   -0.570627   -0.185395
      4          6           0       -0.177085    0.687249   -0.783034
      5          8           0       -0.366366    1.527649    0.396644
      6          6           0       -1.363415    0.581088    0.774519
      7          6           0       -1.702114    0.205756   -0.667640
      8          8           0       -1.735169   -1.193914   -0.401625
      9          6           0       -0.762177   -0.900087    0.647532
     10          1           0        3.152920   -0.767140   -1.083225
     11          1           0        2.804425    0.954066   -0.872880
     12          1           0        3.901584    0.134417    0.241255
     13          1           0        2.037859   -1.244904    1.143353
     14          1           0        1.648586    0.462717    1.309664
     15          1           0        0.618350   -1.354580   -0.940200
     16          1           0        0.250905    1.213443   -1.633447
     17          1           0       -2.027866    0.869004    1.586534
     18          1           0       -2.482620    0.600417   -1.315059
     19          1           0       -0.728895   -1.640192    1.444857
 ---------------------------------------------------------------------

 SCF Done:  E(RB3LYP) =  -423.132056903     A.U. after    1 cycles

 The electronic state is 1-A.
 Alpha  occ. eigenvalues --  -19.14508 -19.14307 -10.24239 -10.24216 -10.24021
 Alpha  occ. eigenvalues --  -10.23982 -10.18983 -10.18100 -10.17470  -1.08637
 Alpha  occ. eigenvalues --   -1.02552  -0.80072  -0.73960  -0.70281  -0.69913
 Alpha  occ. eigenvalues --   -0.62249  -0.56225  -0.54201  -0.53894  -0.49135
 Alpha  occ. eigenvalues --   -0.46436  -0.44313  -0.42994  -0.40860  -0.39225
 Alpha  occ. eigenvalues --   -0.38569  -0.37606  -0.34958  -0.33975  -0.32710
 Alpha  occ. eigenvalues --   -0.31608  -0.31242  -0.26046  -0.24135
 Alpha virt. eigenvalues --    0.06182   0.09083   0.11256   0.11677   0.12564
 Alpha virt. eigenvalues --    0.13997   0.14574   0.14988   0.15732   0.15966
 Alpha virt. eigenvalues --    0.16703   0.18285   0.18837   0.20262   0.20710

 Mulliken charges:
               1
     1  C   -0.382114
     2  C   -0.211016
     3  C    0.047507
     4  C    0.010847
     5  O   -0.288087
     6  C    0.057730
     7  C    0.055772
     8  O   -0.291281
     9  C   -0.005231
    10  H    0.113309
    11  H    0.119828
    12  H    0.114135
    13  H    0.092947
    14  H    0.117246
    15  H    0.083830
    16  H    0.086029
    17  H    0.097935
    18  H    0.096789
    19  H    0.083825
 Sum of Mulliken charges =   0.00000

 Dipole moment (field-independent basis, Debye):
    X=              0.3741    Y=             -0.0582    Z=              0.0501  Tot=              0.3819
 Quadrupole moment (field-independent basis, Debye-Ang):
   XX=            -52.8633   YY=            -57.4343   ZZ=            -50.3661
   XY=             -3.6089   XZ=             -1.2105   YZ=             -3.0694

  Exact polarizability:  84.165  -1.989  67.456  -0.946  -3.140  68.656
 Approx polarizability: 109.065   0.860 109.858  -0.248  -2.186 106.562

                      1                      2                      3
                      A                      A                      A
 Frequencies --     76.5650               168.6257               201.8276
 Red. masses --      2.4840                 2.9464                 1.3932
 Frc consts  --      0.0086                 0.0494                 0.0334
 IR Inten    --      0.0173                 0.0339                 0.2208

                      4                      5                      6
                      A                      A                      A
 Frequencies --    281.0124               354.4939               482.3263
 Red. masses --      1.7583                 3.4829                 3.9085
 Frc consts  --      0.0818                 0.2579                 0.5357
 IR Inten    --      0.5935                 0.3087                 7.3107

                      7                      8                      9
                      A                      A                      A
 Frequencies --    529.3353               581.2759               706.6797
 Red. masses --      5.2513                 3.9270                 3.2205
 Frc consts  --      0.8669                 0.7818                 0.9476
 IR Inten    --     11.6424                 4.5992                 0.9416

                     10                     11                     12
                      A                      A                      A
 Frequencies --    737.5935               761.9231               798.2549
 Red. masses --      2.9467                 2.4254                 2.0871
 Frc consts  --      0.9446                 0.8296                 0.7836
 IR Inten    --      3.9630                 9.0730                 5.8413

                     13                     14                     15
                      A                      A                      A
 Frequencies --    844.1898               848.7194               875.4313
 Red. masses --      2.2496                 1.6422                 3.8336
 Frc consts  --      0.9446                 0.6969                 1.7310
 IR Inten    --      2.1915                14.8225                19.6070

                     16                     17                     18
                      A                      A                      A
 Frequencies --    901.5131               938.4588               953.0101
 Red. masses --      2.4076                 3.9781                 3.2211
 Frc consts  --      1.1529                 2.0642                 1.7236
 IR Inten    --     14.3865                20.4996                13.3192

                     19                     20                     21
                      A                      A                      A
 Frequencies --    961.3079               993.8006              1025.7328
 Red. masses --      2.4188                 2.5952                 2.2484
 Frc consts  --      1.3170                 1.5102                 1.3938
 IR Inten    --      0.6612                46.3780                40.7439

                     22                     23                     24
                      A                      A                      A
 Frequencies --   1045.4216              1073.3506              1105.8926
 Red. masses --      2.5234                 1.8151                 1.9792
 Frc consts  --      1.6249                 1.2321                 1.4262
 IR Inten    --      1.7000                 1.4845                 0.3918

                     25                     26                     27
                      A                      A                      A
 Frequencies --   1116.1288              1140.8970              1161.9768
 Red. masses --      1.7380                 2.0778                 1.9772
 Frc consts  --      1.2756                 1.5935                 1.5729
 IR Inten    --      1.5676                 0.8737                 2.1427

                     28                     29                     30
                      A                      A                      A
 Frequencies --   1164.2072              1198.5935              1227.3340
 Red. masses --      1.6010                 1.2443                 1.3309
 Frc consts  --      1.2785                 1.0532                 1.1812
 IR Inten    --      2.3661                 0.8923                 1.4010

                     31                     32                     33
                      A                      A                      A
 Frequencies --   1254.0558              1277.0359              1294.6290
 Red. masses --      1.5323                 1.4500                 1.4045
 Frc consts  --      1.4198                 1.3933                 1.3870
 IR Inten    --      7.9041                 5.2027                 2.2713

                     34                     35                     36
                      A                      A                      A
 Frequencies --   1304.3826              1345.7589              1356.2890
 Red. masses --      1.7143                 1.5753                 1.4646
 Frc consts  --      1.7185                 1.6809                 1.5873
 IR Inten    --     17.7246                 6.7982                 0.2665

                     37                     38                     39
                      A                      A                      A
 Frequencies --   1389.9985              1414.7034              1488.2618
 Red. masses --      1.5921                 1.2309                 1.0675
 Frc consts  --      1.8123                 1.4514                 1.3931
 IR Inten    --      1.6657                 1.7023                 1.0484

                     40                     41                     42
                      A                      A                      A
 Frequencies --   1501.1982              1505.4319              3026.8259
 Red. masses --      1.0430                 1.0602                 1.0674
 Frc consts  --      1.3849                 1.4157                 5.7615
 IR Inten    --      4.9113                 3.8017                24.0126

                     43                     44                     45
                      A                      A                      A
 Frequencies --   3032.0698              3060.6074              3081.2703
 Red. masses --      1.0364                 1.0838                 1.0943
 Frc consts  --      5.6136                 5.9818                 6.1213
 IR Inten    --     26.6886                 9.5553                 1.6548

                     46                     47                     48
                      A                      A                      A
 Frequencies --   3103.8356              3105.3534              3139.2161
 Red. masses --      1.1003                 1.1009                 1.0905
 Frc consts  --      6.2457                 6.2551                 6.3315
 IR Inten    --     43.4387                34.7684                 6.4523

                     49                     50                     51
                      A                      A                      A
 Frequencies --   3142.8872              3148.7099              3157.3723
 Red. masses --      1.0907                 1.0896                 1.0994
 Frc consts  --      6.3475                 6.3650                 6.4575
 IR Inten    --     35.2817                59.9154                14.4944

 - Thermochemistry -
 -------------------
 Temperature   298.150 Kelvin.  Pressure   1.00000 Atm.
 Atom     1 has atomic number  6 and mass  12.00000

 Molecular mass:   126.06808 amu.
 Principal axes and moments of inertia in atomic units:
                           1         2         3
     Eigenvalues --   523.298711302.283751464.45278
           X            0.99982  -0.01726  -0.00818
           Y            0.01664   0.99735  -0.07087
           Z            0.00938   0.07072   0.99745
 This molecule is an asymmetric top.
 Rotational symmetry number  1.
 Warning -- assumption of classical behavior for rotation
           may cause significant error
 Rotational temperatures (Kelvin)      0.16552     0.06651     0.05914
 Rotational constants (GHZ):           3.44878     1.38583     1.23237
 Zero-point vibrational energy     421000.4 (Joules/Mol)
                                  100.62151 (Kcal/Mol)
 Warning -- explicit consideration of   8 degrees of freedom as
           vibrations may cause significant error
 Vibrational temperatures:    110.16   242.61   290.38   404.31   510.04
          (Kelvin)            693.96   761.59   836.33  1016.75  1061.23
                             1096.24  1148.51  1214.60  1221.12  1259.55
                             1297.07  1350.23  1371.17  1383.11  1429.86
                             1475.80  1504.13  1544.31  1591.13  1605.86
                             1641.49  1671.82  1675.03  1724.51  1765.86
                             1804.30  1837.37  1862.68  1876.71  1936.24
                             1951.39  1999.90  2035.44  2141.27  2159.89
                             2165.98  4354.92  4362.47  4403.53  4433.26
                             4465.72  4467.91  4516.63  4521.91  4530.29
                             4542.75

 Zero-point correction=                           0.160351 (Hartree/Particle)
 Thermal correction to Energy=                    0.167667
 Thermal correction to Enthalpy=                  0.168611
 Thermal correction to Gibbs Free Energy=         0.128370
 Sum of electronic and zero-point Energies=           -422.971706
 Sum of electronic and thermal Energies=              -422.964390
 Sum of electronic and thermal Enthalpies=            -422.963446
 Sum of electronic and thermal Free Energies=         -423.003687

                     E (Thermal)             CV                S
                      KCal/Mol        Cal/Mol-Kelvin    Cal/Mol-Kelvin
 Total                  105.212             29.226             84.693
 Electronic               0.000              0.000              0.000
 Translational            0.889              2.981             40.409
 Rotational               0.889              2.981             28.392
 Vibrational            103.435             23.264             15.893
 Vibration     1          0.599              1.965              3.977
 Vibration     2          0.625              1.881              2.451
 Vibration     3          0.639              1.837              2.116
 Vibration     4          0.681              1.709              1.528
 Vibration     5          0.730              1.566              1.146
 Vibration     6          0.839              1.289              0.704
 Vibration     7          0.884              1.185              0.589
 Vibration     8          0.938              1.072              0.483

 Optimization completed.
    -- Stationary point found.
 Normal termination of Gaussian 09 at Tue Jan 28 14:47:43 2020.
