 Gaussian 09, Revision D.01,
 Gaussian 09:  ES64L-G09RevD.01 24-Apr-2013

 -----------------------------
 # b3lyp 6-31G(2df,p) opt Freq
 -----------------------------

 -----
 titel
 -----
 Symbolic Z-matrix:
 Charge =  0 Multiplicity = 1

 SCF Done:  E(RB3LYP) =  -423.178185564     A.U. after   14 cycles
 Optimization completed.
    -- Stationary point found.
 Normal termination of Gaussian 09 at Mon Jan 27 14:13:36 2020.

 ----------------------------------------------------------------------
 #N Geom=AllCheck Guess=TCheck SCRF=Check GenChk RB3LYP/6-31G(2df,p) Fr
 eq
 ----------------------------------------------------------------------

 Structure from the checkpoint file:  "/scratch/puck/g09_6e1e741c-900a-4597-9556-375f105e4035/Gau-171101.chk"
 -----
 titel
 -----
 Charge =  0 Multiplicity = 1

                         Standard orientation:
 ---------------------------------------------------------------------
 Center     Atomic      Atomic             Coordinates (Angstroms)
 Number     Number       Type             X           Y           Z
 ---------------------------------------------------------------------
      1          6           0        3.056792    0.553149   -0.000065
      2          6           0        1.718914   -0.145831    0.000044
      3          8           0        1.549003   -1.337142   -0.000008
      4          8           0        0.712861    0.765180    0.000187
      5          6           0       -0.606017    0.273933    0.000054
      6          6           0       -1.310367   -0.586776    1.082973
      7          6           0       -2.378905   -0.249156   -0.000078
      8          6           0       -1.828415    1.211196   -0.000316
      9          6           0       -1.310102   -0.587164   -1.082735
     10          1           0        3.854101   -0.188972    0.000325
     11          1           0        3.143418    1.195696   -0.880883
     12          1           0        3.143197    1.196457    0.880214
     13          1           0       -0.991191   -1.626079    1.159034
     14          1           0       -1.446127   -0.119544    2.061901
     15          1           0       -3.423304   -0.549150   -0.000150
     16          1           0       -1.994824    1.798781   -0.906657
     17          1           0       -1.995072    1.799159    0.905732
     18          1           0       -0.990899   -1.626485   -1.158345
     19          1           0       -1.445618   -0.120277   -2.061864
 ---------------------------------------------------------------------

 SCF Done:  E(RB3LYP) =  -423.178185564     A.U. after    1 cycles

 The electronic state is 1-A.
 Alpha  occ. eigenvalues --  -19.18116 -19.12412 -10.30759 -10.25567 -10.20621
 Alpha  occ. eigenvalues --  -10.19361 -10.19027 -10.18669 -10.18669  -1.09999
 Alpha  occ. eigenvalues --   -1.01507  -0.91653  -0.75592  -0.67507  -0.67138
 Alpha  occ. eigenvalues --   -0.65007  -0.56900  -0.53867  -0.48767  -0.47811
 Alpha  occ. eigenvalues --   -0.47078  -0.45325  -0.44942  -0.41193  -0.40112
 Alpha  occ. eigenvalues --   -0.40037  -0.35575  -0.34536  -0.33718  -0.32364
 Alpha  occ. eigenvalues --   -0.32337  -0.31245  -0.28484  -0.26622
 Alpha virt. eigenvalues --    0.01365   0.10473   0.10755   0.12473   0.14193
 Alpha virt. eigenvalues --    0.14971   0.15168   0.15938   0.16028   0.16546
 Alpha virt. eigenvalues --    0.16644   0.17275   0.18215   0.20155   0.23446

 Mulliken charges:
               1
     1  C   -0.484290
     2  C    0.394171
     3  O   -0.343480
     4  O   -0.299396
     5  C    0.466674
     6  C   -0.267958
     7  C   -0.060726
     8  C   -0.278654
     9  C   -0.267941
    10  H    0.147560
    11  H    0.150471
    12  H    0.150461
    13  H    0.116112
    14  H    0.091752
    15  H    0.086536
    16  H    0.095423
    17  H    0.095418
    18  H    0.116119
    19  H    0.091750
 Sum of Mulliken charges =   0.00000

 Dipole moment (field-independent basis, Debye):
    X=             -0.2779    Y=              1.5404    Z=             -0.0003  Tot=              1.5652
 Quadrupole moment (field-independent basis, Debye-Ang):
   XX=            -47.9593   YY=            -56.5383   ZZ=            -51.6472
   XY=              3.5288   XZ=             -0.0004   YZ=             -0.0005

  Exact polarizability:  89.053  -0.979  73.409  -0.001   0.000  67.255
 Approx polarizability: 111.334  -1.696 119.704  -0.001   0.001 100.367

                      1                      2                      3
                      A                      A                      A
 Frequencies --     62.3182                79.2438                99.7102
 Red. masses --      2.0438                 2.0500                 2.0883
 Frc consts  --      0.0047                 0.0076                 0.0122
 IR Inten    --      2.2241                 0.0972                 1.4217

                      4                      5                      6
                      A                      A                      A
 Frequencies --    151.5488               339.7934               343.3907
 Red. masses --      4.4750                 3.1337                 4.0803
 Frc consts  --      0.0606                 0.2132                 0.2835
 IR Inten    --      4.2885                 2.4698                 4.5950

                      7                      8                      9
                      A                      A                      A
 Frequencies --    378.3157               546.0595               554.0988
 Red. masses --      3.8565                 1.8977                 1.8436
 Frc consts  --      0.3252                 0.3334                 0.3335
 IR Inten    --      1.6591                 0.7785                 0.0535

                     10                     11                     12
                      A                      A                      A
 Frequencies --    572.8134               608.0889               719.5776
 Red. masses --      4.0355                 2.6812                 4.7630
 Frc consts  --      0.7801                 0.5841                 1.4531
 IR Inten    --      5.1741                 5.0217                 6.6774

                     13                     14                     15
                      A                      A                      A
 Frequencies --    783.6612               796.4303               894.5784
 Red. masses --      3.0338                 2.9962                 3.2627
 Frc consts  --      1.0977                 1.1197                 1.5384
 IR Inten    --      0.8857                 1.1701                 6.5319

                     16                     17                     18
                      A                      A                      A
 Frequencies --    913.8250               953.8287               959.5494
 Red. masses --      4.7355                 1.4765                 2.5901
 Frc consts  --      2.3299                 0.7914                 1.4051
 IR Inten    --      1.9993                 3.2900                 8.7330

                     19                     20                     21
                      A                      A                      A
 Frequencies --    965.5991               970.2096               987.2342
 Red. masses --      1.2479                 1.7210                 1.0096
 Frc consts  --      0.6855                 0.9545                 0.5798
 IR Inten    --      0.0052                16.7282                 0.0268

                     22                     23                     24
                      A                      A                      A
 Frequencies --   1027.0164              1063.7713              1101.6112
 Red. masses --      1.7836                 1.8199                 1.6602
 Frc consts  --      1.1084                 1.2134                 1.1870
 IR Inten    --     59.0266                 6.2715                 0.3769

                     25                     26                     27
                      A                      A                      A
 Frequencies --   1105.9009              1131.2257              1137.2949
 Red. masses --      1.6422                 1.3173                 1.3582
 Frc consts  --      1.1834                 0.9932                 1.0351
 IR Inten    --      1.2359                 0.7716                 0.2623

                     28                     29                     30
                      A                      A                      A
 Frequencies --   1176.6654              1179.6848              1218.6319
 Red. masses --      1.5602                 1.6587                 2.6920
 Frc consts  --      1.2728                 1.3600                 2.3554
 IR Inten    --      0.1992                12.5185               149.0487

                     31                     32                     33
                      A                      A                      A
 Frequencies --   1231.6142              1238.4524              1251.1783
 Red. masses --      1.9695                 2.2124                 2.8323
 Frc consts  --      1.7602                 1.9993                 2.6123
 IR Inten    --      0.0295                 0.8035               540.0054

                     34                     35                     36
                      A                      A                      A
 Frequencies --   1285.4770              1394.3367              1469.0315
 Red. masses --      3.2336                 1.3611                 1.0498
 Frc consts  --      3.1482                 1.5591                 1.3348
 IR Inten    --     15.6820                44.5570                12.0085

                     37                     38                     39
                      A                      A                      A
 Frequencies --   1475.8590              1498.5908              1499.5878
 Red. masses --      1.0466                 1.1018                 1.1047
 Frc consts  --      1.3432                 1.4579                 1.4637
 IR Inten    --      6.3802                 0.5942                 0.7340

                     40                     41                     42
                      A                      A                      A
 Frequencies --   1558.1213              1827.6046              3055.4986
 Red. masses --      1.1901                11.4987                 1.0544
 Frc consts  --      1.7024                22.6290                 5.8000
 IR Inten    --      9.2794               183.1369                39.4400

                     43                     44                     45
                      A                      A                      A
 Frequencies --   3057.0800              3063.3235              3069.1341
 Red. masses --      1.0363                 1.0568                 1.0577
 Frc consts  --      5.7065                 5.8429                 5.8702
 IR Inten    --      2.8450                64.7236                 0.8292

                     46                     47                     48
                      A                      A                      A
 Frequencies --   3121.9125              3124.2423              3146.0775
 Red. masses --      1.0993                 1.1115                 1.1096
 Frc consts  --      6.3124                 6.3924                 6.4709
 IR Inten    --      4.1038                32.4076                 8.7951

                     49                     50                     51
                      A                      A                      A
 Frequencies --   3149.0067              3153.6484              3169.4349
 Red. masses --      1.1055                 1.0960                 1.1029
 Frc consts  --      6.4591                 6.4221                 6.5274
 IR Inten    --     38.2107                33.2294                 7.4785

 - Thermochemistry -
 -------------------
 Temperature   298.150 Kelvin.  Pressure   1.00000 Atm.
 Atom     1 has atomic number  6 and mass  12.00000

 Molecular mass:   126.06808 amu.
 Principal axes and moments of inertia in atomic units:
                           1         2         3
     Eigenvalues --   453.701351611.672331760.86733
           X            0.99988   0.01538   0.00000
           Y           -0.01538   0.99988  -0.00001
           Z            0.00000   0.00001   1.00000
 This molecule is an asymmetric top.
 Rotational symmetry number  1.
 Warning -- assumption of classical behavior for rotation
           may cause significant error
 Rotational temperatures (Kelvin)      0.19090     0.05374     0.04919
 Rotational constants (GHZ):           3.97782     1.11979     1.02492
 Zero-point vibrational energy     416664.6 (Joules/Mol)
                                   99.58524 (Kcal/Mol)
 Warning -- explicit consideration of  11 degrees of freedom as
           vibrations may cause significant error
 Vibrational temperatures:     89.66   114.01   143.46   218.04   488.89
          (Kelvin)            494.06   544.31   785.66   797.22   824.15
                              874.90  1035.31  1127.51  1145.88  1287.10
                             1314.79  1372.35  1380.58  1389.28  1395.91
                             1420.41  1477.65  1530.53  1584.97  1591.14
                             1627.58  1636.31  1692.96  1697.30  1753.34
                             1772.02  1781.85  1800.16  1849.51  2006.14
                             2113.61  2123.43  2156.14  2157.57  2241.79
                             2629.51  4396.18  4398.45  4407.43  4415.79
                             4491.73  4495.08  4526.50  4530.71  4537.39
                             4560.10

 Zero-point correction=                           0.158699 (Hartree/Particle)
 Thermal correction to Energy=                    0.167153
 Thermal correction to Enthalpy=                  0.168097
 Thermal correction to Gibbs Free Energy=         0.124769
 Sum of electronic and zero-point Energies=           -423.019486
 Sum of electronic and thermal Energies=              -423.011033
 Sum of electronic and thermal Enthalpies=            -423.010088
 Sum of electronic and thermal Free Energies=         -423.053416

                     E (Thermal)             CV                S
                      KCal/Mol        Cal/Mol-Kelvin    Cal/Mol-Kelvin
 Total                  104.890             31.575             91.191
 Electronic               0.000              0.000              0.000
 Translational            0.889              2.981             40.409
 Rotational               0.889              2.981             28.645
 Vibrational            103.113             25.614             22.138
 Vibration     1          0.597              1.972              4.382
 Vibration     2          0.600              1.963              3.910
 Vibration     3          0.604              1.949              3.460
 Vibration     4          0.619              1.901              2.653
 Vibration     5          0.720              1.596              1.213
 Vibration     6          0.722              1.589              1.196
 Vibration     7          0.749              1.516              1.046
 Vibration     8          0.901              1.148              0.552
 Vibration     9          0.910              1.131              0.536
 Vibration    10          0.929              1.090              0.499
 Vibration    11          0.967              1.015              0.436

 Optimization completed.
    -- Stationary point found.
 Normal termination of Gaussian 09 at Mon Jan 27 14:57:37 2020.
