 Gaussian 09, Revision D.01,
 Gaussian 09:  ES64L-G09RevD.01 24-Apr-2013

 -----------------------------
 # b3lyp 6-31G(2df,p) opt Freq
 -----------------------------

 -----
 titel
 -----
 Symbolic Z-matrix:
 Charge =  0 Multiplicity = 1

 SCF Done:  E(RB3LYP) =  -423.128328687     A.U. after   12 cycles
 Optimization completed.
    -- Stationary point found.
 Normal termination of Gaussian 09 at Mon Jan 27 22:04:40 2020.

 ----------------------------------------------------------------------
 #N Geom=AllCheck Guess=TCheck SCRF=Check GenChk RB3LYP/6-31G(2df,p) Fr
 eq
 ----------------------------------------------------------------------

 Structure from the checkpoint file:  "/scratch/puck/g09_c537a66e-8304-4b36-bdef-3b4f66cec38d/Gau-62988.chk"
 -----
 titel
 -----
 Charge =  0 Multiplicity = 1

                         Standard orientation:
 ---------------------------------------------------------------------
 Center     Atomic      Atomic             Coordinates (Angstroms)
 Number     Number       Type             X           Y           Z
 ---------------------------------------------------------------------
      1          6           0       -1.766238    1.545953    0.003725
      2          6           0       -0.271570    1.309871    0.014599
      3          6           0        0.340940    0.153400    0.801737
      4          6           0        1.868029    0.194336    0.658872
      5          8           0        1.793242    0.289382   -0.793703
      6          6           0        0.364542    0.168027   -0.715274
      7          6           0       -0.382747   -1.056245   -1.179898
      8          8           0       -1.139067   -1.483056   -0.035792
      9          6           0       -0.485355   -1.050748    1.177202
     10          1           0       -2.048555    2.145419   -0.867788
     11          1           0       -2.327283    0.610207   -0.029467
     12          1           0       -2.071761    2.096984    0.899425
     13          1           0        0.326508    2.218840    0.013608
     14          1           0        2.393905    1.050657    1.096300
     15          1           0        2.358230   -0.737277    0.966067
     16          1           0       -1.104339   -0.898979   -1.987240
     17          1           0        0.349908   -1.812289   -1.498354
     18          1           0       -1.284169   -0.869811    1.903122
     19          1           0        0.168549   -1.841930    1.574506
 ---------------------------------------------------------------------

 SCF Done:  E(RB3LYP) =  -423.128328687     A.U. after    1 cycles

 The electronic state is 1-A.
 Alpha  occ. eigenvalues --  -19.14293 -19.14141 -10.24328 -10.23900 -10.23678
 Alpha  occ. eigenvalues --  -10.23546 -10.20829 -10.19508 -10.18234  -1.06060
 Alpha  occ. eigenvalues --   -1.02540  -0.85027  -0.75000  -0.72408  -0.68132
 Alpha  occ. eigenvalues --   -0.65705  -0.56273  -0.52415  -0.51653  -0.48981
 Alpha  occ. eigenvalues --   -0.45856  -0.45282  -0.44569  -0.42684  -0.40770
 Alpha  occ. eigenvalues --   -0.39872  -0.39001  -0.37323  -0.35500  -0.32170
 Alpha  occ. eigenvalues --   -0.31249  -0.26547  -0.25637  -0.23225
 Alpha virt. eigenvalues --    0.05146   0.08151   0.10077   0.11492   0.13146
 Alpha virt. eigenvalues --    0.13276   0.13917   0.14400   0.16263   0.16682
 Alpha virt. eigenvalues --    0.17495   0.17935   0.19289   0.19698   0.20424

 Mulliken charges:
               1
     1  C   -0.437731
     2  C   -0.099191
     3  C    0.093031
     4  C   -0.138409
     5  O   -0.319265
     6  C    0.331285
     7  C   -0.161853
     8  O   -0.263857
     9  C   -0.153090
    10  H    0.123970
    11  H    0.149337
    12  H    0.122174
    13  H    0.098160
    14  H    0.109346
    15  H    0.108842
    16  H    0.114248
    17  H    0.110088
    18  H    0.113653
    19  H    0.099261
 Sum of Mulliken charges =   0.00000

 Dipole moment (field-independent basis, Debye):
    X=             -0.1049    Y=              0.5620    Z=              1.1517  Tot=              1.2858
 Quadrupole moment (field-independent basis, Debye-Ang):
   XX=            -55.8764   YY=            -53.3291   ZZ=            -51.8121
   XY=             -3.2887   XZ=              3.5316   YZ=              0.3602

  Exact polarizability:  77.950  -3.808  73.202   3.530  -0.002  70.583
 Approx polarizability: 109.787  -2.364 104.231   2.213  -0.509 114.165

                      1                      2                      3
                      A                      A                      A
 Frequencies --    191.5649               203.6141               220.9215
 Red. masses --      1.8683                 3.3428                 1.3471
 Frc consts  --      0.0404                 0.0817                 0.0387
 IR Inten    --      0.5082                10.8268                 0.0967

                      4                      5                      6
                      A                      A                      A
 Frequencies --    229.7313               266.2386               341.7076
 Red. masses --      2.1113                 2.4405                 2.6473
 Frc consts  --      0.0657                 0.1019                 0.1821
 IR Inten    --      0.6864                 3.8003                 1.5048

                      7                      8                      9
                      A                      A                      A
 Frequencies --    382.3897               493.1277               550.4770
 Red. masses --      3.1064                 3.2013                 4.1804
 Frc consts  --      0.2676                 0.4587                 0.7464
 IR Inten    --      4.2432                 1.7023                12.0374

                     10                     11                     12
                      A                      A                      A
 Frequencies --    628.4831               681.0332               734.1208
 Red. masses --      6.0765                 4.4016                 3.7646
 Frc consts  --      1.4141                 1.2028                 1.1954
 IR Inten    --      0.7238                 1.3828                 1.2418

                     13                     14                     15
                      A                      A                      A
 Frequencies --    813.2146               859.5296               893.3952
 Red. masses --      2.8094                 3.7477                 5.1082
 Frc consts  --      1.0946                 1.6313                 2.4022
 IR Inten    --     25.3548                24.1812                15.1438

                     16                     17                     18
                      A                      A                      A
 Frequencies --    946.4725               969.6239               972.2631
 Red. masses --      3.1209                 2.0234                 1.9275
 Frc consts  --      1.6472                 1.1208                 1.0735
 IR Inten    --     16.4097                13.1936                 3.5172

                     19                     20                     21
                      A                      A                      A
 Frequencies --    991.8363              1024.3620              1040.8351
 Red. masses --      1.6240                 3.4521                 2.2630
 Frc consts  --      0.9413                 2.1342                 1.4444
 IR Inten    --     18.8322                25.4284                36.5158

                     22                     23                     24
                      A                      A                      A
 Frequencies --   1045.4400              1107.6778              1119.6339
 Red. masses --      2.4752                 2.4655                 1.8584
 Frc consts  --      1.5939                 1.7823                 1.3726
 IR Inten    --     42.8800                 5.4550                 3.6327

                     25                     26                     27
                      A                      A                      A
 Frequencies --   1155.4273              1167.0301              1202.9589
 Red. masses --      1.2704                 1.6573                 1.6405
 Frc consts  --      0.9992                 1.3299                 1.3987
 IR Inten    --      2.8592                10.2676                 1.6387

                     28                     29                     30
                      A                      A                      A
 Frequencies --   1226.2915              1249.6960              1266.4296
 Red. masses --      1.2607                 1.6780                 1.6859
 Frc consts  --      1.1170                 1.5440                 1.5931
 IR Inten    --     22.0155                 8.9881                 5.1505

                     31                     32                     33
                      A                      A                      A
 Frequencies --   1321.2721              1346.5938              1358.7723
 Red. masses --      1.3977                 1.4333                 1.7228
 Frc consts  --      1.4377                 1.5313                 1.8740
 IR Inten    --      1.3780                 2.2022                 4.2664

                     34                     35                     36
                      A                      A                      A
 Frequencies --   1378.8788              1418.3074              1432.5960
 Red. masses --      2.0644                 1.2526                 2.4862
 Frc consts  --      2.3126                 1.4846                 3.0063
 IR Inten    --      8.9072                 1.7467                 2.0479

                     37                     38                     39
                      A                      A                      A
 Frequencies --   1500.7127              1502.3554              1510.6745
 Red. masses --      1.0898                 1.0726                 1.0954
 Frc consts  --      1.4461                 1.4264                 1.4729
 IR Inten    --      3.2189                 0.7449                 0.1533

                     40                     41                     42
                      A                      A                      A
 Frequencies --   1515.3544              1521.0225              2989.8502
 Red. masses --      1.0682                 1.0980                 1.0689
 Frc consts  --      1.4452                 1.4967                 5.6296
 IR Inten    --      1.1318                 1.2890                57.8484

                     43                     44                     45
                      A                      A                      A
 Frequencies --   3002.7296              3019.3107              3039.5649
 Red. masses --      1.0669                 1.0550                 1.0379
 Frc consts  --      5.6679                 5.6666                 5.6495
 IR Inten    --     54.5132                88.5992                27.6998

                     46                     47                     48
                      A                      A                      A
 Frequencies --   3069.8496              3072.8948              3079.4435
 Red. masses --      1.1068                 1.0985                 1.0973
 Frc consts  --      6.1455                 6.1117                 6.1307
 IR Inten    --     36.8547                33.5407                27.5162

                     49                     50                     51
                      A                      A                      A
 Frequencies --   3096.7589              3122.8732              3141.3447
 Red. masses --      1.1011                 1.0904                 1.0963
 Frc consts  --      6.2215                 6.2652                 6.3739
 IR Inten    --     20.3066                 3.3403                14.6590

 - Thermochemistry -
 -------------------
 Temperature   298.150 Kelvin.  Pressure   1.00000 Atm.
 Atom     1 has atomic number  6 and mass  12.00000

 Molecular mass:   126.06808 amu.
 Principal axes and moments of inertia in atomic units:
                           1         2         3
     Eigenvalues --   768.41457 957.341531165.70798
           X            0.98897  -0.14294   0.03877
           Y            0.14294   0.98973   0.00269
           Z           -0.03876   0.00288   0.99924
 This molecule is an asymmetric top.
 Rotational symmetry number  1.
 Warning -- assumption of classical behavior for rotation
           may cause significant error
 Rotational temperatures (Kelvin)      0.11272     0.09047     0.07430
 Rotational constants (GHZ):           2.34866     1.88516     1.54819
 Zero-point vibrational energy     421185.3 (Joules/Mol)
                                  100.66571 (Kcal/Mol)
 Warning -- explicit consideration of   9 degrees of freedom as
           vibrations may cause significant error
 Vibrational temperatures:    275.62   292.95   317.86   330.53   383.06
          (Kelvin)            491.64   550.17   709.50   792.01   904.25
                              979.85  1056.23  1170.03  1236.67  1285.39
                             1361.76  1395.07  1398.87  1427.03  1473.83
                             1497.53  1504.15  1593.70  1610.90  1662.40
                             1679.09  1730.79  1764.36  1798.03  1822.11
                             1901.01  1937.45  1954.97  1983.90  2040.63
                             2061.18  2159.19  2161.55  2173.52  2180.25
                             2188.41  4301.72  4320.25  4344.11  4373.25
                             4416.82  4421.20  4430.63  4455.54  4493.11
                             4519.69

 Zero-point correction=                           0.160421 (Hartree/Particle)
 Thermal correction to Energy=                    0.168045
 Thermal correction to Enthalpy=                  0.168989
 Thermal correction to Gibbs Free Energy=         0.128806
 Sum of electronic and zero-point Energies=           -422.967908
 Sum of electronic and thermal Energies=              -422.960284
 Sum of electronic and thermal Enthalpies=            -422.959340
 Sum of electronic and thermal Free Energies=         -422.999523

                     E (Thermal)             CV                S
                      KCal/Mol        Cal/Mol-Kelvin    Cal/Mol-Kelvin
 Total                  105.450             30.242             84.573
 Electronic               0.000              0.000              0.000
 Translational            0.889              2.981             40.409
 Rotational               0.889              2.981             28.241
 Vibrational            103.672             24.280             15.924
 Vibration     1          0.634              1.852              2.213
 Vibration     2          0.639              1.835              2.100
 Vibration     3          0.648              1.809              1.952
 Vibration     4          0.652              1.796              1.881
 Vibration     5          0.672              1.735              1.621
 Vibration     6          0.721              1.592              1.204
 Vibration     7          0.752              1.508              1.030
 Vibration     8          0.849              1.265              0.676
 Vibration     9          0.906              1.139              0.543

 Normal termination of Gaussian 09 at Mon Jan 27 22:53:00 2020.
