 Gaussian 09, Revision D.01,
 Gaussian 09:  ES64L-G09RevD.01 24-Apr-2013

 -----------------------------
 # b3lyp 6-31G(2df,p) opt Freq
 -----------------------------

 -----
 titel
 -----
 Symbolic Z-matrix:
 Charge =  0 Multiplicity = 1

 SCF Done:  E(RB3LYP) =  -423.203096985     A.U. after   14 cycles
 Optimization completed.
    -- Stationary point found.
 Normal termination of Gaussian 09 at Tue Jan 28 11:58:52 2020.

 ----------------------------------------------------------------------
 #N Geom=AllCheck Guess=TCheck SCRF=Check GenChk RB3LYP/6-31G(2df,p) Fr
 eq
 ----------------------------------------------------------------------

 Structure from the checkpoint file:  "/scratch/puck/g09_e8f896df-2db3-409f-8770-075fc4dab4f8/Gau-102601.chk"
 -----
 titel
 -----
 Charge =  0 Multiplicity = 1

                         Standard orientation:
 ---------------------------------------------------------------------
 Center     Atomic      Atomic             Coordinates (Angstroms)
 Number     Number       Type             X           Y           Z
 ---------------------------------------------------------------------
      1          6           0       -2.900651   -1.027629    0.080224
      2          6           0       -1.407441   -1.045885    0.415595
      3          6           0       -0.593234   -0.088614   -0.464120
      4          8           0       -1.058795    1.258695   -0.293619
      5          6           0       -0.003342    2.107798    0.142095
      6          6           0        1.199784    1.226563    0.237406
      7          6           0        0.879222   -0.020865   -0.118543
      8          6           0        1.818068   -1.154672   -0.185095
      9          8           0        2.987573   -1.092196    0.121866
     10          1           0       -3.305227   -0.018857    0.194793
     11          1           0       -3.077112   -1.345350   -0.953525
     12          1           0       -3.459504   -1.700447    0.737090
     13          1           0       -1.248416   -0.769004    1.464713
     14          1           0       -1.006021   -2.060260    0.289989
     15          1           0       -0.741152   -0.372400   -1.520185
     16          1           0        0.145532    2.928579   -0.578155
     17          1           0       -0.257807    2.574004    1.107380
     18          1           0        2.184044    1.560309    0.540258
     19          1           0        1.380999   -2.108747   -0.553707
 ---------------------------------------------------------------------

 SCF Done:  E(RB3LYP) =  -423.203096985     A.U. after    1 cycles

 The electronic state is 1-A.
 Alpha  occ. eigenvalues --  -19.14521 -19.13924 -10.27506 -10.24553 -10.24491
 Alpha  occ. eigenvalues --  -10.21307 -10.20145 -10.18863 -10.17558  -1.04640
 Alpha  occ. eigenvalues --   -1.04239  -0.81612  -0.79226  -0.72788  -0.65184
 Alpha  occ. eigenvalues --   -0.63695  -0.58330  -0.54982  -0.51627  -0.48851
 Alpha  occ. eigenvalues --   -0.46081  -0.44723  -0.42930  -0.41923  -0.41572
 Alpha  occ. eigenvalues --   -0.40562  -0.39229  -0.36227  -0.35415  -0.34282
 Alpha  occ. eigenvalues --   -0.33007  -0.28835  -0.25748  -0.24647
 Alpha virt. eigenvalues --   -0.06745   0.06169   0.09208   0.09585   0.11330
 Alpha virt. eigenvalues --    0.13222   0.13740   0.14722   0.16143   0.16617
 Alpha virt. eigenvalues --    0.16897   0.17127   0.18570   0.20561   0.21546

 Mulliken charges:
               1
     1  C   -0.382855
     2  C   -0.181162
     3  C    0.024165
     4  O   -0.281868
     5  C   -0.118041
     6  C   -0.173121
     7  C    0.206138
     8  C    0.071522
     9  O   -0.260910
    10  H    0.137535
    11  H    0.113773
    12  H    0.112690
    13  H    0.101186
    14  H    0.096391
    15  H    0.085061
    16  H    0.118667
    17  H    0.118286
    18  H    0.139589
    19  H    0.072956
 Sum of Mulliken charges =   0.00000

 Dipole moment (field-independent basis, Debye):
    X=             -1.4039    Y=              0.6708    Z=             -0.0275  Tot=              1.5561
 Quadrupole moment (field-independent basis, Debye-Ang):
   XX=            -64.5864   YY=            -49.6541   ZZ=            -52.4487
   XY=              6.4688   XZ=             -1.3334   YZ=              2.0786

  Exact polarizability:  87.980   0.668  95.143   2.635   6.033  57.719
 Approx polarizability: 121.014  -3.679 145.907   6.446  12.496  90.147

                      1                      2                      3
                      A                      A                      A
 Frequencies --     73.7943                91.8209               100.6288
 Red. masses --      3.5031                 2.2776                 3.6618
 Frc consts  --      0.0112                 0.0113                 0.0218
 IR Inten    --      4.5573                 2.8006                 3.3306

                      4                      5                      6
                      A                      A                      A
 Frequencies --    174.0777               205.0739               226.2838
 Red. masses --      2.4991                 3.2841                 1.6754
 Frc consts  --      0.0446                 0.0814                 0.0505
 IR Inten    --      5.3644                 6.2099                 1.1656

                      7                      8                      9
                      A                      A                      A
 Frequencies --    233.6226               332.0745               385.7627
 Red. masses --      1.5469                 3.1074                 3.6221
 Frc consts  --      0.0497                 0.2019                 0.3176
 IR Inten    --      0.8010                 1.9190                 1.4591

                     10                     11                     12
                      A                      A                      A
 Frequencies --    503.4257               532.0867               726.9483
 Red. masses --      3.6475                 3.9373                 2.4290
 Frc consts  --      0.5447                 0.6568                 0.7563
 IR Inten    --      1.8198                 4.7448                20.3893

                     13                     14                     15
                      A                      A                      A
 Frequencies --    769.0624               786.0341               834.5186
 Red. masses --      3.5208                 2.5955                 1.2871
 Frc consts  --      1.2269                 0.9448                 0.5281
 IR Inten    --     17.9286                16.1514                 5.9327

                     16                     17                     18
                      A                      A                      A
 Frequencies --    877.6732               920.7035               939.2032
 Red. masses --      1.6527                 2.4331                 2.2526
 Frc consts  --      0.7501                 1.2152                 1.1707
 IR Inten    --     16.6184                11.6914                 0.8721

                     19                     20                     21
                      A                      A                      A
 Frequencies --    983.0464              1037.4485              1044.8287
 Red. masses --      2.4058                 1.7718                 1.7307
 Frc consts  --      1.3698                 1.1236                 1.1132
 IR Inten    --      4.5896                 1.6227                 5.8535

                     22                     23                     24
                      A                      A                      A
 Frequencies --   1057.2736              1088.5339              1113.7031
 Red. masses --      2.6182                 2.2558                 3.2864
 Frc consts  --      1.7244                 1.5748                 2.4016
 IR Inten    --     14.3343                35.8009                29.8375

                     25                     26                     27
                      A                      A                      A
 Frequencies --   1136.7013              1191.3932              1201.3657
 Red. masses --      2.0194                 1.7853                 1.5177
 Frc consts  --      1.5373                 1.4930                 1.2906
 IR Inten    --      5.0374                48.2873                33.1620

                     28                     29                     30
                      A                      A                      A
 Frequencies --   1267.1399              1287.7684              1320.4619
 Red. masses --      1.4985                 1.2056                 1.6029
 Frc consts  --      1.4176                 1.1780                 1.6467
 IR Inten    --      9.6403                 0.2188                 7.8101

                     31                     32                     33
                      A                      A                      A
 Frequencies --   1350.7139              1382.8035              1391.8951
 Red. masses --      1.4206                 1.3742                 1.5292
 Frc consts  --      1.5270                 1.5482                 1.7456
 IR Inten    --      1.0369                 4.8051                 4.2415

                     34                     35                     36
                      A                      A                      A
 Frequencies --   1406.3692              1447.8754              1474.8397
 Red. masses --      1.2371                 1.3099                 1.0823
 Frc consts  --      1.4416                 1.6180                 1.3870
 IR Inten    --      1.1499                 7.6482                 0.8531

                     37                     38                     39
                      A                      A                      A
 Frequencies --   1496.0763              1508.4718              1510.1809
 Red. masses --      1.0433                 1.0558                 1.0851
 Frc consts  --      1.3759                 1.4155                 1.4580
 IR Inten    --      5.1895                 4.2432                 3.3634

                     40                     41                     42
                      A                      A                      A
 Frequencies --   1677.7519              1790.6276              2886.1331
 Red. masses --      8.1496                 9.5964                 1.0815
 Frc consts  --     13.5158                18.1289                 5.3079
 IR Inten    --    109.4847               143.8043               110.6516

                     43                     44                     45
                      A                      A                      A
 Frequencies --   2953.9557              2973.3038              2988.0476
 Red. masses --      1.0817                 1.0569                 1.1041
 Frc consts  --      5.5610                 5.5051                 5.8083
 IR Inten    --     55.3634                59.3735                34.5518

                     46                     47                     48
                      A                      A                      A
 Frequencies --   3020.9857              3037.7192              3063.0911
 Red. masses --      1.0605                 1.0379                 1.0996
 Frc consts  --      5.7021                 5.6429                 6.0785
 IR Inten    --     25.0062                25.2657                20.6812

                     49                     50                     51
                      A                      A                      A
 Frequencies --   3104.2545              3125.5161              3228.6750
 Red. masses --      1.1003                 1.1015                 1.0951
 Frc consts  --      6.2469                 6.3397                 6.7259
 IR Inten    --     35.8706                19.3590                 0.3186

 - Thermochemistry -
 -------------------
 Temperature   298.150 Kelvin.  Pressure   1.00000 Atm.
 Atom     1 has atomic number  6 and mass  12.00000

 Molecular mass:   126.06808 amu.
 Principal axes and moments of inertia in atomic units:
                           1         2         3
     Eigenvalues --   731.668681481.009362097.88183
           X            0.99787   0.06510  -0.00286
           Y           -0.06506   0.99782   0.01135
           Z            0.00360  -0.01114   0.99993
 This molecule is an asymmetric top.
 Rotational symmetry number  1.
 Warning -- assumption of classical behavior for rotation
           may cause significant error
 Rotational temperatures (Kelvin)      0.11838     0.05848     0.04129
 Rotational constants (GHZ):           2.46661     1.21859     0.86027
 Zero-point vibrational energy     414277.2 (Joules/Mol)
                                   99.01464 (Kcal/Mol)
 Warning -- explicit consideration of  11 degrees of freedom as
           vibrations may cause significant error
 Vibrational temperatures:    106.17   132.11   144.78   250.46   295.06
          (Kelvin)            325.57   336.13   477.78   555.03   724.32
                              765.55  1045.92  1106.51  1130.93  1200.68
                             1262.77  1324.69  1351.30  1414.38  1492.66
                             1503.27  1521.18  1566.16  1602.37  1635.46
                             1714.15  1728.50  1823.13  1852.81  1899.85
                             1943.37  1989.54  2002.62  2023.45  2083.17
                             2121.96  2152.52  2170.35  2172.81  2413.91
                             2576.31  4152.50  4250.08  4277.92  4299.13
                             4346.52  4370.59  4407.10  4466.32  4496.91
                             4645.34

 Zero-point correction=                           0.157790 (Hartree/Particle)
 Thermal correction to Energy=                    0.167037
 Thermal correction to Enthalpy=                  0.167981
 Thermal correction to Gibbs Free Energy=         0.123031
 Sum of electronic and zero-point Energies=           -423.045307
 Sum of electronic and thermal Energies=              -423.036060
 Sum of electronic and thermal Enthalpies=            -423.035116
 Sum of electronic and thermal Free Energies=         -423.080066

                     E (Thermal)             CV                S
                      KCal/Mol        Cal/Mol-Kelvin    Cal/Mol-Kelvin
 Total                  104.817             32.840             94.606
 Electronic               0.000              0.000              0.000
 Translational            0.889              2.981             40.409
 Rotational               0.889              2.981             29.210
 Vibrational            103.040             26.878             24.987
 Vibration     1          0.599              1.966              4.050
 Vibration     2          0.602              1.955              3.621
 Vibration     3          0.604              1.949              3.442
 Vibration     4          0.627              1.874              2.391
 Vibration     5          0.640              1.833              2.087
 Vibration     6          0.650              1.801              1.908
 Vibration     7          0.654              1.789              1.851
 Vibration     8          0.714              1.611              1.250
 Vibration     9          0.754              1.501              1.016
 Vibration    10          0.859              1.242              0.650
 Vibration    11          0.887              1.179              0.583

 Normal termination of Gaussian 09 at Tue Jan 28 12:37:08 2020.
