 Gaussian 09, Revision D.01,
 Gaussian 09:  ES64L-G09RevD.01 24-Apr-2013

 -----------------------------
 # b3lyp 6-31G(2df,p) opt Freq
 -----------------------------

 -----
 titel
 -----
 Symbolic Z-matrix:
 Charge =  0 Multiplicity = 1

 SCF Done:  E(RB3LYP) =  -423.171487698     A.U. after   14 cycles
 Optimization completed.
    -- Stationary point found.
 Normal termination of Gaussian 09 at Tue Jan 28 09:18:35 2020.

 ----------------------------------------------------------------------
 #N Geom=AllCheck Guess=TCheck SCRF=Check GenChk RB3LYP/6-31G(2df,p) Fr
 eq
 ----------------------------------------------------------------------

 Structure from the checkpoint file:  "/scratch/puck/g09_c733c89f-75b2-479b-b110-60a88651e674/Gau-28616.chk"
 -----
 titel
 -----
 Charge =  0 Multiplicity = 1

                         Standard orientation:
 ---------------------------------------------------------------------
 Center     Atomic      Atomic             Coordinates (Angstroms)
 Number     Number       Type             X           Y           Z
 ---------------------------------------------------------------------
      1          8           0        2.403279   -1.104361   -0.165494
      2          6           0        1.388945   -0.791082    0.777976
      3          6           0        0.116117   -0.323062    0.108126
      4          6           0       -0.834917   -1.288340   -0.518733
      5          6           0       -2.105258   -0.899294   -0.387420
      6          6           0       -2.234601    0.391184    0.399288
      7          6           0       -0.782245    0.794641    0.651031
      8          6           0        0.103096    1.041197   -0.544547
      9          8           0        1.272960    1.795030   -0.372946
     10          1           0        2.616814   -0.276361   -0.610971
     11          1           0        1.201609   -1.712399    1.339576
     12          1           0        1.732168   -0.029583    1.490744
     13          1           0       -0.491122   -2.178606   -1.032602
     14          1           0       -2.965894   -1.420584   -0.791176
     15          1           0       -2.789474    1.158955   -0.156465
     16          1           0       -2.782646    0.236805    1.338774
     17          1           0       -0.509860    1.304462    1.568905
     18          1           0       -0.358349    1.125550   -1.529119
     19          1           0        1.030013    2.714944   -0.224471
 ---------------------------------------------------------------------

 SCF Done:  E(RB3LYP) =  -423.171487698     A.U. after    1 cycles

 The electronic state is 1-A.
 Alpha  occ. eigenvalues --  -19.15377 -19.12051 -10.23653 -10.21932 -10.19128
 Alpha  occ. eigenvalues --  -10.19105 -10.19064 -10.18015 -10.17875  -1.03727
 Alpha  occ. eigenvalues --   -1.00174  -0.88337  -0.76328  -0.71618  -0.67184
 Alpha  occ. eigenvalues --   -0.60158  -0.56311  -0.53856  -0.52938  -0.48582
 Alpha  occ. eigenvalues --   -0.47347  -0.45293  -0.42234  -0.41669  -0.40690
 Alpha  occ. eigenvalues --   -0.37460  -0.37102  -0.34749  -0.33723  -0.31670
 Alpha  occ. eigenvalues --   -0.30089  -0.26325  -0.25155  -0.22981
 Alpha virt. eigenvalues --    0.01907   0.06862   0.10339   0.10737   0.12462
 Alpha virt. eigenvalues --    0.13955   0.14697   0.14739   0.16399   0.17300
 Alpha virt. eigenvalues --    0.18088   0.18833   0.19544   0.22561   0.22934

 Mulliken charges:
               1
     1  O   -0.428116
     2  C   -0.161213
     3  C    0.286268
     4  C   -0.146092
     5  C   -0.082196
     6  C   -0.285995
     7  C   -0.173826
     8  C    0.055382
     9  O   -0.437505
    10  H    0.292803
    11  H    0.105452
    12  H    0.092582
    13  H    0.105819
    14  H    0.095006
    15  H    0.107155
    16  H    0.109005
    17  H    0.087357
    18  H    0.087651
    19  H    0.290463
 Sum of Mulliken charges =   0.00000

 Dipole moment (field-independent basis, Debye):
    X=             -1.8991    Y=              2.2923    Z=              0.3240  Tot=              2.9943
 Quadrupole moment (field-independent basis, Debye-Ang):
   XX=            -56.1778   YY=            -49.2530   ZZ=            -52.2008
   XY=              3.5062   XZ=              0.3978   YZ=              0.2116

  Exact polarizability:  91.112  -0.086  76.221  -1.143   3.357  62.069
 Approx polarizability: 133.248  -4.935 112.873  -5.887   5.170  95.487

                      1                      2                      3
                      A                      A                      A
 Frequencies --     48.6871               150.2568               227.0483
 Red. masses --      3.9987                 3.9437                 3.7196
 Frc consts  --      0.0056                 0.0525                 0.1130
 IR Inten    --      1.6246                 0.9773                 0.3511

                      4                      5                      6
                      A                      A                      A
 Frequencies --    234.4256               265.0929               298.0744
 Red. masses --      1.6222                 1.6870                 2.4285
 Frc consts  --      0.0525                 0.0699                 0.1271
 IR Inten    --     58.1937                15.6684                34.1226

                      7                      8                      9
                      A                      A                      A
 Frequencies --    321.1868               393.9108               452.1619
 Red. masses --      2.5454                 2.3570                 1.3211
 Frc consts  --      0.1547                 0.2155                 0.1591
 IR Inten    --      2.8845                36.2842                73.7135

                     10                     11                     12
                      A                      A                      A
 Frequencies --    477.0568               499.6943               718.0099
 Red. masses --      2.2800                 5.1750                 4.3221
 Frc consts  --      0.3057                 0.7613                 1.3128
 IR Inten    --      1.1474                 7.4782                 3.6077

                     13                     14                     15
                      A                      A                      A
 Frequencies --    747.4143               749.1205               787.8114
 Red. masses --      1.3859                 3.7528                 3.8956
 Frc consts  --      0.4561                 1.2408                 1.4245
 IR Inten    --     33.4205                19.9250                 1.6280

                     16                     17                     18
                      A                      A                      A
 Frequencies --    889.4898               905.9017               923.5616
 Red. masses --      3.2094                 2.0195                 2.4638
 Frc consts  --      1.4961                 0.9765                 1.2382
 IR Inten    --      3.3957                 9.3344                 3.7555

                     19                     20                     21
                      A                      A                      A
 Frequencies --    935.5039               969.4430               993.9469
 Red. masses --      1.7558                 1.2913                 1.6292
 Frc consts  --      0.9053                 0.7150                 0.9483
 IR Inten    --      8.9667                 1.9193                 5.9387

                     22                     23                     24
                      A                      A                      A
 Frequencies --   1021.9537              1038.8286              1067.0991
 Red. masses --      1.9118                 2.8568                 1.8700
 Frc consts  --      1.1764                 1.8164                 1.2546
 IR Inten    --      7.0818                52.9470                24.6734

                     25                     26                     27
                      A                      A                      A
 Frequencies --   1082.7462              1124.9997              1135.1918
 Red. masses --      1.9031                 1.1633                 3.4635
 Frc consts  --      1.3145                 0.8675                 2.6297
 IR Inten    --     41.2545                 3.9985                46.2334

                     28                     29                     30
                      A                      A                      A
 Frequencies --   1180.6502              1195.8358              1238.6458
 Red. masses --      1.2690                 1.3199                 1.8176
 Frc consts  --      1.0422                 1.1121                 1.6430
 IR Inten    --     31.2175                19.0760                 5.4198

                     31                     32                     33
                      A                      A                      A
 Frequencies --   1271.6679              1281.0491              1312.3854
 Red. masses --      1.4639                 1.4171                 1.6438
 Frc consts  --      1.3948                 1.3702                 1.6681
 IR Inten    --     18.2746                35.8624                 6.8426

                     34                     35                     36
                      A                      A                      A
 Frequencies --   1327.5819              1382.8993              1391.8154
 Red. masses --      1.5246                 1.9061                 1.3312
 Frc consts  --      1.5832                 2.1477                 1.5193
 IR Inten    --      6.1000                 5.5847                 2.3663

                     37                     38                     39
                      A                      A                      A
 Frequencies --   1426.0256              1441.2034              1479.6301
 Red. masses --      1.2347                 2.4685                 1.0979
 Frc consts  --      1.4793                 3.0209                 1.4162
 IR Inten    --     77.8380                 8.7448                 1.4007

                     40                     41                     42
                      A                      A                      A
 Frequencies --   1494.8137              1668.4256              3010.2170
 Red. masses --      1.0821                 6.3931                 1.0597
 Frc consts  --      1.4246                10.4851                 5.6577
 IR Inten    --      2.0519                 1.0473                47.1456

                     43                     44                     45
                      A                      A                      A
 Frequencies --   3012.5471              3035.3240              3073.9297
 Red. masses --      1.0643                 1.1016                 1.0992
 Frc consts  --      5.6907                 5.9798                 6.1192
 IR Inten    --     45.4169                22.4969                31.0700

                     46                     47                     48
                      A                      A                      A
 Frequencies --   3092.9879              3170.0995              3188.7493
 Red. masses --      1.0881                 1.0900                 1.0848
 Frc consts  --      6.1332                 6.4541                 6.4988
 IR Inten    --     25.9321                12.0136                 4.4974

                     49                     50                     51
                      A                      A                      A
 Frequencies --   3213.4679              3800.3671              3802.4981
 Red. masses --      1.1037                 1.0658                 1.0664
 Frc consts  --      6.7148                 9.0697                 9.0846
 IR Inten    --     17.6465                27.9478                21.2601

 - Thermochemistry -
 -------------------
 Temperature   298.150 Kelvin.  Pressure   1.00000 Atm.
 Atom     1 has atomic number  8 and mass  15.99491

 Molecular mass:   126.06808 amu.
 Principal axes and moments of inertia in atomic units:
                           1         2         3
     Eigenvalues --   685.661191237.530021648.44657
           X            0.99998   0.00158   0.00602
           Y           -0.00164   0.99996   0.00919
           Z           -0.00601  -0.00920   0.99994
 This molecule is an asymmetric top.
 Rotational symmetry number  1.
 Warning -- assumption of classical behavior for rotation
           may cause significant error
 Rotational temperatures (Kelvin)      0.12632     0.06999     0.05254
 Rotational constants (GHZ):           2.63212     1.45834     1.09481
 Zero-point vibrational energy     418402.5 (Joules/Mol)
                                  100.00060 (Kcal/Mol)
 Warning -- explicit consideration of  11 degrees of freedom as
           vibrations may cause significant error
 Vibrational temperatures:     70.05   216.19   326.67   337.29   381.41
          (Kelvin)            428.86   462.12   566.75   650.56   686.38
                              718.95  1033.05  1075.36  1077.82  1133.48
                             1279.78  1303.39  1328.80  1345.98  1394.81
                             1430.07  1470.36  1494.64  1535.32  1557.83
                             1618.62  1633.29  1698.69  1720.54  1782.13
                             1829.64  1843.14  1888.23  1910.09  1989.68
                             2002.51  2051.73  2073.57  2128.86  2150.70
                             2400.49  4331.03  4334.38  4367.15  4422.69
                             4450.11  4561.06  4587.89  4623.46  5467.87
                             5470.94

 Zero-point correction=                           0.159361 (Hartree/Particle)
 Thermal correction to Energy=                    0.167991
 Thermal correction to Enthalpy=                  0.168935
 Thermal correction to Gibbs Free Energy=         0.125973
 Sum of electronic and zero-point Energies=           -423.012127
 Sum of electronic and thermal Energies=              -423.003497
 Sum of electronic and thermal Enthalpies=            -423.002552
 Sum of electronic and thermal Free Energies=         -423.045515

                     E (Thermal)             CV                S
                      KCal/Mol        Cal/Mol-Kelvin    Cal/Mol-Kelvin
 Total                  105.416             33.156             90.422
 Electronic               0.000              0.000              0.000
 Translational            0.889              2.981             40.409
 Rotational               0.889              2.981             28.727
 Vibrational            103.639             27.194             21.286
 Vibration     1          0.595              1.978              4.870
 Vibration     2          0.618              1.902              2.669
 Vibration     3          0.651              1.800              1.902
 Vibration     4          0.654              1.788              1.845
 Vibration     5          0.671              1.737              1.628
 Vibration     6          0.691              1.677              1.428
 Vibration     7          0.707              1.633              1.304
 Vibration     8          0.761              1.483              0.985
 Vibration     9          0.811              1.356              0.789
 Vibration    10          0.834              1.301              0.718
 Vibration    11          0.855              1.251              0.659

 Optimization completed.
    -- Stationary point found.
 Normal termination of Gaussian 09 at Tue Jan 28 10:05:14 2020.
