 Gaussian 09, Revision D.01,
 Gaussian 09:  ES64L-G09RevD.01 24-Apr-2013

 -----------------------------
 # b3lyp 6-31G(2df,p) opt Freq
 -----------------------------

 -----
 titel
 -----
 Symbolic Z-matrix:
 Charge =  0 Multiplicity = 1

 SCF Done:  E(RB3LYP) =  -423.175010911     A.U. after   13 cycles
 Optimization completed.
    -- Stationary point found.
 Normal termination of Gaussian 09 at Mon Jan 27 19:02:53 2020.

 ----------------------------------------------------------------------
 #N Geom=AllCheck Guess=TCheck SCRF=Check GenChk RB3LYP/6-31G(2df,p) Fr
 eq
 ----------------------------------------------------------------------

 Structure from the checkpoint file:  "/scratch/puck/g09_8f5439bb-d885-4df8-a4c3-ed1466258e15/Gau-183472.chk"
 -----
 titel
 -----
 Charge =  0 Multiplicity = 1

                         Standard orientation:
 ---------------------------------------------------------------------
 Center     Atomic      Atomic             Coordinates (Angstroms)
 Number     Number       Type             X           Y           Z
 ---------------------------------------------------------------------
      1          8           0        1.970854   -0.963167    0.141546
      2          6           0        0.649885   -0.506404    0.112535
      3          6           0       -0.441421   -1.561472    0.325908
      4          8           0       -1.598715   -0.998818   -0.294775
      5          6           0       -1.284152    0.384343   -0.522663
      6          6           0       -1.024033    1.068592    0.851903
      7          6           0        0.501240    0.854003    0.885232
      8          6           0        0.917210    1.550942   -0.441640
      9          6           0        0.154675    0.373992   -1.090937
     10          1           0        2.070849   -1.645912   -0.531386
     11          1           0       -0.184599   -2.507173   -0.171798
     12          1           0       -0.623352   -1.777687    1.387895
     13          1           0       -2.078803    0.805899   -1.136755
     14          1           0       -1.279300    2.132192    0.866794
     15          1           0       -1.585998    0.565315    1.642347
     16          1           0        1.034698    1.018939    1.820918
     17          1           0        0.560531    2.569963   -0.616059
     18          1           0        1.989418    1.482972   -0.628186
     19          1           0        0.279022    0.067394   -2.129957
 ---------------------------------------------------------------------

 SCF Done:  E(RB3LYP) =  -423.175010911     A.U. after    1 cycles

 The electronic state is 1-A.
 Alpha  occ. eigenvalues --  -19.14992 -19.13204 -10.23968 -10.22967 -10.22213
 Alpha  occ. eigenvalues --  -10.19119 -10.18471 -10.18161 -10.17896  -1.04380
 Alpha  occ. eigenvalues --   -1.02438  -0.87404  -0.73472  -0.70265  -0.67798
 Alpha  occ. eigenvalues --   -0.62316  -0.56179  -0.54140  -0.51749  -0.49414
 Alpha  occ. eigenvalues --   -0.47399  -0.45773  -0.42340  -0.40456  -0.38947
 Alpha  occ. eigenvalues --   -0.38129  -0.35903  -0.34761  -0.33871  -0.32660
 Alpha  occ. eigenvalues --   -0.31351  -0.29108  -0.26045  -0.23816
 Alpha virt. eigenvalues --    0.06507   0.10329   0.11527   0.11757   0.13249
 Alpha virt. eigenvalues --    0.14058   0.15162   0.16121   0.16880   0.17504
 Alpha virt. eigenvalues --    0.17949   0.18698   0.19601   0.21348   0.22392

 Mulliken charges:
               1
     1  O   -0.500213
     2  C    0.423895
     3  C   -0.165225
     4  O   -0.271416
     5  C    0.103521
     6  C   -0.240807
     7  C   -0.067049
     8  C   -0.248795
     9  C   -0.116823
    10  H    0.281298
    11  H    0.087962
    12  H    0.100800
    13  H    0.077603
    14  H    0.097622
    15  H    0.105925
    16  H    0.069219
    17  H    0.087461
    18  H    0.113230
    19  H    0.061792
 Sum of Mulliken charges =   0.00000

 Dipole moment (field-independent basis, Debye):
    X=              0.6004    Y=              0.1921    Z=             -0.5758  Tot=              0.8538
 Quadrupole moment (field-independent basis, Debye-Ang):
   XX=            -57.7178   YY=            -50.2414   ZZ=            -51.6920
   XY=             -4.1082   XZ=             -2.8788   YZ=              1.0230

  Exact polarizability:  72.529  -1.783  79.016  -1.642  -0.126  68.127
 Approx polarizability: 107.172  -2.497 112.548   0.470  -0.198 104.855

                      1                      2                      3
                      A                      A                      A
 Frequencies --    244.0041               270.5883               323.8222
 Red. masses --      2.5160                 2.1708                 1.4055
 Frc consts  --      0.0883                 0.0936                 0.0868
 IR Inten    --      4.6434                12.6581                47.5073

                      4                      5                      6
                      A                      A                      A
 Frequencies --    356.8301               406.5576               437.0599
 Red. masses --      3.2208                 2.9781                 2.7472
 Frc consts  --      0.2416                 0.2900                 0.3092
 IR Inten    --     34.1217                 6.6747                 6.6295

                      7                      8                      9
                      A                      A                      A
 Frequencies --    482.6354               572.8414               611.3079
 Red. masses --      1.9612                 5.0703                 5.1392
 Frc consts  --      0.2692                 0.9803                 1.1315
 IR Inten    --      0.7659                 3.6181                 0.5161

                     10                     11                     12
                      A                      A                      A
 Frequencies --    687.2076               729.0511               828.9454
 Red. masses --      3.9153                 3.5190                 3.0391
 Frc consts  --      1.0894                 1.1020                 1.2304
 IR Inten    --      0.7771                 1.1901                 9.3762

                     13                     14                     15
                      A                      A                      A
 Frequencies --    845.3160               873.6212               887.7128
 Red. masses --      2.4677                 2.5582                 2.2384
 Frc consts  --      1.0389                 1.1503                 1.0393
 IR Inten    --      5.3551                 6.7886                 9.6271

                     16                     17                     18
                      A                      A                      A
 Frequencies --    939.2267               946.7862               960.8317
 Red. masses --      2.5476                 1.6895                 1.9130
 Frc consts  --      1.3241                 0.8923                 1.0405
 IR Inten    --     17.4179                 6.0854                 3.9711

                     19                     20                     21
                      A                      A                      A
 Frequencies --    986.9153              1007.6483              1045.3174
 Red. masses --      2.6991                 1.4494                 4.5745
 Frc consts  --      1.5489                 0.8670                 2.9450
 IR Inten    --      4.1654                 3.9440                63.4955

                     22                     23                     24
                      A                      A                      A
 Frequencies --   1047.6455              1063.4485              1102.5747
 Red. masses --      1.4791                 1.6594                 1.3031
 Frc consts  --      0.9565                 1.1057                 0.9334
 IR Inten    --      3.9532                 3.3583                 7.5667

                     25                     26                     27
                      A                      A                      A
 Frequencies --   1127.4307              1139.1277              1152.9824
 Red. masses --      1.7439                 2.4871                 2.1177
 Frc consts  --      1.3060                 1.9015                 1.6586
 IR Inten    --     47.6462                22.7610                 1.5817

                     28                     29                     30
                      A                      A                      A
 Frequencies --   1194.1031              1202.8339              1229.1955
 Red. masses --      1.3563                 1.4357                 1.7620
 Frc consts  --      1.1395                 1.2238                 1.5685
 IR Inten    --      1.8005                13.5498                13.1149

                     31                     32                     33
                      A                      A                      A
 Frequencies --   1250.3183              1254.5773              1271.7191
 Red. masses --      1.4034                 2.5802                 1.5208
 Frc consts  --      1.2926                 2.3928                 1.4491
 IR Inten    --      7.6399                43.6115                34.5216

                     34                     35                     36
                      A                      A                      A
 Frequencies --   1300.0033              1309.1982              1337.5696
 Red. masses --      1.5264                 1.6289                 1.5197
 Frc consts  --      1.5199                 1.6449                 1.6019
 IR Inten    --      0.5847                 2.1821                24.6012

                     37                     38                     39
                      A                      A                      A
 Frequencies --   1369.8349              1388.5272              1487.5668
 Red. masses --      1.6672                 1.5973                 1.0962
 Frc consts  --      1.8432                 1.8144                 1.4293
 IR Inten    --     14.5657                 4.9719                 1.4035

                     40                     41                     42
                      A                      A                      A
 Frequencies --   1507.5908              1522.6808              2995.6310
 Red. masses --      1.1130                 1.0911                 1.0560
 Frc consts  --      1.4905                 1.4906                 5.5832
 IR Inten    --      2.4606                 1.4058                74.0988

                     43                     44                     45
                      A                      A                      A
 Frequencies --   3027.5563              3056.0356              3062.1960
 Red. masses --      1.1086                 1.0610                 1.0606
 Frc consts  --      5.9868                 5.8384                 5.8597
 IR Inten    --     38.9840                24.3343                48.3363

                     46                     47                     48
                      A                      A                      A
 Frequencies --   3107.0711              3110.9749              3121.8250
 Red. masses --      1.1040                 1.0897                 1.0907
 Frc consts  --      6.2796                 6.2139                 6.2630
 IR Inten    --     22.5207                31.0380                37.9665

                     49                     50                     51
                      A                      A                      A
 Frequencies --   3128.9591              3136.3144              3793.7938
 Red. masses --      1.0919                 1.1030                 1.0658
 Frc consts  --      6.2982                 6.3924                 9.0381
 IR Inten    --     38.8944                17.3909                17.3537

 - Thermochemistry -
 -------------------
 Temperature   298.150 Kelvin.  Pressure   1.00000 Atm.
 Atom     1 has atomic number  8 and mass  15.99491

 Molecular mass:   126.06808 amu.
 Principal axes and moments of inertia in atomic units:
                           1         2         3
     Eigenvalues --   722.25643 828.146371144.95558
           X            0.99797  -0.05605  -0.03008
           Y            0.05606   0.99843  -0.00048
           Z            0.03006  -0.00121   0.99955
 This molecule is an asymmetric top.
 Rotational symmetry number  1.
 Warning -- assumption of classical behavior for rotation
           may cause significant error
 Rotational temperatures (Kelvin)      0.11992     0.10459     0.07565
 Rotational constants (GHZ):           2.49875     2.17925     1.57625
 Zero-point vibrational energy     426130.8 (Joules/Mol)
                                  101.84771 (Kcal/Mol)
 Warning -- explicit consideration of   9 degrees of freedom as
           vibrations may cause significant error
 Vibrational temperatures:    351.07   389.32   465.91   513.40   584.95
          (Kelvin)            628.83   694.40   824.19   879.53   988.74
                             1048.94  1192.67  1216.22  1256.94  1277.22
                             1351.34  1362.21  1382.42  1419.95  1449.78
                             1503.98  1507.33  1530.06  1586.36  1622.12
                             1638.95  1658.88  1718.05  1730.61  1768.54
                             1798.93  1805.05  1829.72  1870.41  1883.64
                             1924.46  1970.88  1997.78  2140.27  2169.08
                             2190.80  4310.04  4355.97  4396.95  4405.81
                             4470.38  4475.99  4491.60  4501.87  4512.45
                             5458.42

 Zero-point correction=                           0.162305 (Hartree/Particle)
 Thermal correction to Energy=                    0.168991
 Thermal correction to Enthalpy=                  0.169935
 Thermal correction to Gibbs Free Energy=         0.131815
 Sum of electronic and zero-point Energies=           -423.012706
 Sum of electronic and thermal Energies=              -423.006020
 Sum of electronic and thermal Enthalpies=            -423.005076
 Sum of electronic and thermal Free Energies=         -423.043196

                     E (Thermal)             CV                S
                      KCal/Mol        Cal/Mol-Kelvin    Cal/Mol-Kelvin
 Total                  106.043             28.789             80.231
 Electronic               0.000              0.000              0.000
 Translational            0.889              2.981             40.409
 Rotational               0.889              2.981             28.017
 Vibrational            104.266             22.827             11.805
 Vibration     1          0.659              1.773              1.773
 Vibration     2          0.674              1.727              1.592
 Vibration     3          0.708              1.628              1.291
 Vibration     4          0.732              1.561              1.136
 Vibration     5          0.771              1.456              0.939
 Vibration     6          0.797              1.389              0.836
 Vibration     7          0.839              1.289              0.703
 Vibration     8          0.929              1.090              0.499
 Vibration     9          0.970              1.008              0.431

 Optimization completed.
    -- Stationary point found.
 Normal termination of Gaussian 09 at Mon Jan 27 19:47:19 2020.
