 Gaussian 09, Revision D.01,
 Gaussian 09:  ES64L-G09RevD.01 24-Apr-2013

 -----------------------------
 # b3lyp 6-31G(2df,p) opt Freq
 -----------------------------

 -----
 titel
 -----
 Symbolic Z-matrix:
 Charge =  0 Multiplicity = 1

 SCF Done:  E(RB3LYP) =  -423.162017087     A.U. after   14 cycles
 Optimization completed.
    -- Stationary point found.
 Normal termination of Gaussian 09 at Mon Jan 27 22:13:01 2020.

 ----------------------------------------------------------------------
 #N Geom=AllCheck Guess=TCheck SCRF=Check GenChk RB3LYP/6-31G(2df,p) Fr
 eq
 ----------------------------------------------------------------------

 Structure from the checkpoint file:  "/scratch/puck/g09_a0fd23c6-88e5-48c7-aee9-187516f7afb6/Gau-28665.chk"
 -----
 titel
 -----
 Charge =  0 Multiplicity = 1

                         Standard orientation:
 ---------------------------------------------------------------------
 Center     Atomic      Atomic             Coordinates (Angstroms)
 Number     Number       Type             X           Y           Z
 ---------------------------------------------------------------------
      1          6           0       -2.376199    1.371259   -0.135337
      2          6           0       -1.146348    0.743120    0.509158
      3          6           0        0.119252    0.766190   -0.369326
      4          6           0        1.234027    0.006419    0.327700
      5          6           0        2.560710    0.052102   -0.327591
      6          8           0        3.617269    0.035614    0.253116
      7          6           0        0.149049   -0.744029   -0.431827
      8          6           0       -1.102161   -0.838099    0.459822
      9          8           0       -2.211323   -1.488699   -0.105597
     10          1           0       -2.508846    1.049207   -1.174904
     11          1           0       -3.284479    1.112142    0.415472
     12          1           0       -2.282318    2.461671   -0.149715
     13          1           0       -1.003092    1.164345    1.510573
     14          1           0        0.340887    1.494738   -1.141976
     15          1           0        1.266860   -0.038051    1.413756
     16          1           0        2.514867    0.106434   -1.442242
     17          1           0        0.392741   -1.414818   -1.248693
     18          1           0       -0.944414   -1.327820    1.425204
     19          1           0       -2.369747   -1.124936   -0.983228
 ---------------------------------------------------------------------

 SCF Done:  E(RB3LYP) =  -423.162017087     A.U. after    1 cycles

 The electronic state is 1-A.
 Alpha  occ. eigenvalues --  -19.15094 -19.13340 -10.27060 -10.24691 -10.21480
 Alpha  occ. eigenvalues --  -10.21191 -10.21008 -10.20393 -10.19093  -1.04173
 Alpha  occ. eigenvalues --   -1.03569  -0.91369  -0.77653  -0.71047  -0.65104
 Alpha  occ. eigenvalues --   -0.62817  -0.58058  -0.56483  -0.51423  -0.50348
 Alpha  occ. eigenvalues --   -0.47033  -0.45172  -0.43098  -0.42259  -0.42030
 Alpha  occ. eigenvalues --   -0.39473  -0.38285  -0.37790  -0.36782  -0.32198
 Alpha  occ. eigenvalues --   -0.30578  -0.29010  -0.26915  -0.24882
 Alpha virt. eigenvalues --   -0.02095   0.05622   0.08879   0.10553   0.11087
 Alpha virt. eigenvalues --    0.12215   0.12956   0.13312   0.15419   0.16020
 Alpha virt. eigenvalues --    0.16671   0.16999   0.18675   0.20232   0.22210

 Mulliken charges:
               1
     1  C   -0.413727
     2  C   -0.046350
     3  C   -0.067423
     4  C   -0.123271
     5  C    0.155976
     6  O   -0.269408
     7  C   -0.121329
     8  C    0.129919
     9  O   -0.425210
    10  H    0.102229
    11  H    0.135063
    12  H    0.123529
    13  H    0.078625
    14  H    0.095286
    15  H    0.102795
    16  H    0.064360
    17  H    0.099877
    18  H    0.096605
    19  H    0.282455
 Sum of Mulliken charges =   0.00000

 Dipole moment (field-independent basis, Debye):
    X=             -2.6736    Y=              1.1412    Z=             -1.5728  Tot=              3.3052
 Quadrupole moment (field-independent basis, Debye-Ang):
   XX=            -68.9691   YY=            -54.6982   ZZ=            -49.6721
   XY=             -3.3460   XZ=             -0.8426   YZ=              0.7877

  Exact polarizability:  99.698  -1.703  67.240   1.900  -0.296  68.061
 Approx polarizability: 135.198   1.598 102.161   9.620  -0.170 107.871

                      1                      2                      3
                      A                      A                      A
 Frequencies --     90.5333               132.4983               135.1325
 Red. masses --      5.2225                 2.9742                 3.8155
 Frc consts  --      0.0252                 0.0308                 0.0411
 IR Inten    --      5.6138                 2.2637                 3.8489

                      4                      5                      6
                      A                      A                      A
 Frequencies --    218.7609               258.6754               274.6894
 Red. masses --      1.3078                 2.2137                 2.2851
 Frc consts  --      0.0369                 0.0873                 0.1016
 IR Inten    --      0.3257                 7.7994                 9.5416

                      7                      8                      9
                      A                      A                      A
 Frequencies --    311.0772               345.2815               373.3447
 Red. masses --      1.1235                 3.2161                 5.0747
 Frc consts  --      0.0641                 0.2259                 0.4168
 IR Inten    --     89.3505                 6.3860                 3.4494

                     10                     11                     12
                      A                      A                      A
 Frequencies --    393.4594               544.1182               548.6158
 Red. masses --      3.4721                 3.5765                 4.1630
 Frc consts  --      0.3167                 0.6239                 0.7382
 IR Inten    --      9.8611                 4.0818                22.4233

                     13                     14                     15
                      A                      A                      A
 Frequencies --    767.6521               799.7264               853.1690
 Red. masses --      2.6056                 2.7105                 1.7409
 Frc consts  --      0.9047                 1.0214                 0.7466
 IR Inten    --      1.9688                 5.5929                31.6452

                     16                     17                     18
                      A                      A                      A
 Frequencies --    863.8624               902.2483               958.0271
 Red. masses --      2.5442                 3.2453                 1.9487
 Frc consts  --      1.1187                 1.5565                 1.0538
 IR Inten    --      1.0623                 1.6771                18.7365

                     19                     20                     21
                      A                      A                      A
 Frequencies --    970.9039              1022.2933              1044.4859
 Red. masses --      2.2267                 1.4776                 1.6959
 Frc consts  --      1.2367                 0.9098                 1.0901
 IR Inten    --      4.5137                12.5744                 6.2629

                     22                     23                     24
                      A                      A                      A
 Frequencies --   1058.6632              1068.5670              1078.7505
 Red. masses --      1.3881                 1.4821                 1.7006
 Frc consts  --      0.9166                 0.9971                 1.1660
 IR Inten    --      5.1944                15.4907                 4.5160

                     25                     26                     27
                      A                      A                      A
 Frequencies --   1099.6096              1132.2090              1155.6995
 Red. masses --      1.6820                 2.0277                 2.5662
 Frc consts  --      1.1983                 1.5315                 2.0195
 IR Inten    --      5.6958                69.7593               125.0372

                     28                     29                     30
                      A                      A                      A
 Frequencies --   1203.2445              1225.3999              1235.8992
 Red. masses --      2.2683                 1.4327                 1.4377
 Frc consts  --      1.9349                 1.2675                 1.2939
 IR Inten    --      9.6407                12.9026                 1.1236

                     31                     32                     33
                      A                      A                      A
 Frequencies --   1252.0078              1285.3322              1295.5404
 Red. masses --      1.5461                 1.6153                 1.4638
 Frc consts  --      1.4279                 1.5723                 1.4476
 IR Inten    --      0.7178                 4.2359                 3.3084

                     34                     35                     36
                      A                      A                      A
 Frequencies --   1356.6990              1369.2536              1410.9333
 Red. masses --      1.6326                 2.1559                 1.2433
 Frc consts  --      1.7706                 2.3814                 1.4582
 IR Inten    --      4.8960                 0.8645                 3.6606

                     37                     38                     39
                      A                      A                      A
 Frequencies --   1434.5503              1444.2306              1490.7138
 Red. masses --      1.2357                 1.3444                 1.0495
 Frc consts  --      1.4983                 1.6522                 1.3742
 IR Inten    --     66.9113                 5.9090                 8.9667

                     40                     41                     42
                      A                      A                      A
 Frequencies --   1504.3306              1823.7876              2839.4021
 Red. masses --      1.0483                10.0558                 1.0809
 Frc consts  --      1.3977                19.7069                 5.1344
 IR Inten    --      4.3061               290.5653                97.0511

                     43                     44                     45
                      A                      A                      A
 Frequencies --   3029.4739              3037.7027              3068.9103
 Red. masses --      1.0410                 1.0821                 1.0868
 Frc consts  --      5.6289                 5.8830                 6.0307
 IR Inten    --     20.2773                21.2120                39.1715

                     46                     47                     48
                      A                      A                      A
 Frequencies --   3092.5763              3117.6849              3141.6434
 Red. masses --      1.0973                 1.1016                 1.0896
 Frc consts  --      6.1831                 6.3086                 6.3359
 IR Inten    --     37.9243                14.5881                 9.5054

                     49                     50                     51
                      A                      A                      A
 Frequencies --   3164.8559              3176.6235              3808.7246
 Red. masses --      1.0877                 1.0971                 1.0655
 Frc consts  --      6.4190                 6.5226                 9.1071
 IR Inten    --     15.5526                 7.9114                13.0895

 - Thermochemistry -
 -------------------
 Temperature   298.150 Kelvin.  Pressure   1.00000 Atm.
 Atom     1 has atomic number  6 and mass  12.00000

 Molecular mass:   126.06808 amu.
 Principal axes and moments of inertia in atomic units:
                           1         2         3
     Eigenvalues --   468.128451958.481292230.85745
           X            0.99976  -0.02183  -0.00240
           Y            0.02182   0.99975  -0.00427
           Z            0.00249   0.00422   0.99999
 This molecule is an asymmetric top.
 Rotational symmetry number  1.
 Warning -- assumption of classical behavior for rotation
           may cause significant error
 Rotational temperatures (Kelvin)      0.18502     0.04422     0.03883
 Rotational constants (GHZ):           3.85523     0.92150     0.80899
 Zero-point vibrational energy     413977.1 (Joules/Mol)
                                   98.94291 (Kcal/Mol)
 Warning -- explicit consideration of  12 degrees of freedom as
           vibrations may cause significant error
 Vibrational temperatures:    130.26   190.64   194.43   314.75   372.18
          (Kelvin)            395.22   447.57   496.78   537.16   566.10
                              782.86   789.33  1104.48  1150.63  1227.52
                             1242.90  1298.13  1378.39  1396.91  1470.85
                             1502.78  1523.18  1537.43  1552.08  1582.09
                             1628.99  1662.79  1731.20  1763.07  1778.18
                             1801.36  1849.30  1863.99  1951.98  1970.05
                             2030.02  2064.00  2077.92  2144.80  2164.39
                             2624.02  4085.26  4358.73  4370.57  4415.47
                             4449.52  4485.65  4520.12  4553.52  4570.45
                             5479.90

 Zero-point correction=                           0.157676 (Hartree/Particle)
 Thermal correction to Energy=                    0.166652
 Thermal correction to Enthalpy=                  0.167596
 Thermal correction to Gibbs Free Energy=         0.123960
 Sum of electronic and zero-point Energies=           -423.004342
 Sum of electronic and thermal Energies=              -422.995365
 Sum of electronic and thermal Enthalpies=            -422.994421
 Sum of electronic and thermal Free Energies=         -423.038057

                     E (Thermal)             CV                S
                      KCal/Mol        Cal/Mol-Kelvin    Cal/Mol-Kelvin
 Total                  104.576             33.522             91.840
 Electronic               0.000              0.000              0.000
 Translational            0.889              2.981             40.409
 Rotational               0.889              2.981             29.105
 Vibrational            102.798             27.561             22.327
 Vibration     1          0.602              1.956              3.649
 Vibration     2          0.613              1.921              2.909
 Vibration     3          0.613              1.918              2.872
 Vibration     4          0.647              1.813              1.969
 Vibration     5          0.667              1.748              1.671
 Vibration     6          0.677              1.720              1.567
 Vibration     7          0.700              1.653              1.357
 Vibration     8          0.724              1.585              1.188
 Vibration     9          0.745              1.527              1.066
 Vibration    10          0.761              1.484              0.987
 Vibration    11          0.899              1.153              0.556
 Vibration    12          0.904              1.143              0.547

 Optimization completed.
    -- Stationary point found.
 Normal termination of Gaussian 09 at Tue Jan 28 00:11:04 2020.
