 Gaussian 09, Revision D.01,
 Gaussian 09:  ES64L-G09RevD.01 24-Apr-2013

 -----------------------------
 # b3lyp 6-31G(2df,p) opt Freq
 -----------------------------

 -----
 titel
 -----
 Symbolic Z-matrix:
 Charge =  0 Multiplicity = 1

 SCF Done:  E(RB3LYP) =  -423.174641624     A.U. after   14 cycles
 Optimization completed.
    -- Stationary point found.
 Normal termination of Gaussian 09 at Mon Jan 27 22:51:42 2020.

 ----------------------------------------------------------------------
 #N Geom=AllCheck Guess=TCheck SCRF=Check GenChk RB3LYP/6-31G(2df,p) Fr
 eq
 ----------------------------------------------------------------------

 Structure from the checkpoint file:  "/scratch/puck/g09_beded134-62c9-4543-83a0-f1cb4472bebd/Gau-101074.chk"
 -----
 titel
 -----
 Charge =  0 Multiplicity = 1

                         Standard orientation:
 ---------------------------------------------------------------------
 Center     Atomic      Atomic             Coordinates (Angstroms)
 Number     Number       Type             X           Y           Z
 ---------------------------------------------------------------------
      1          6           0       -0.913761    1.999234    0.296465
      2          6           0       -0.144303    0.720429    0.068058
      3          6           0        1.341154    0.764001   -0.159907
      4          8           0        1.996100    0.059691   -1.166036
      5          6           0        0.808906    0.112501    1.115897
      6          6           0        0.615698   -1.356003    1.018971
      7          6           0       -0.242383   -1.690964    0.045388
      8          6           0       -0.868977   -0.470875   -0.597768
      9          8           0       -2.284337   -0.445222   -0.449789
     10          1           0       -0.291065    2.739258    0.809087
     11          1           0       -1.241606    2.436345   -0.652814
     12          1           0       -1.807788    1.831931    0.904695
     13          1           0        1.813194    1.734299   -0.032316
     14          1           0        1.765549   -0.874473   -1.073482
     15          1           0        1.018595    0.577857    2.073453
     16          1           0        1.165850   -2.059091    1.635339
     17          1           0       -0.511150   -2.697196   -0.255124
     18          1           0       -0.706761   -0.451194   -1.682522
     19          1           0       -2.476924   -0.623417    0.477667
 ---------------------------------------------------------------------

 SCF Done:  E(RB3LYP) =  -423.174641624     A.U. after    1 cycles

 The electronic state is 1-A.
 Alpha  occ. eigenvalues --  -19.14009 -19.13891 -10.23840 -10.23708 -10.20022
 Alpha  occ. eigenvalues --  -10.19307 -10.19249 -10.18772 -10.17870  -1.02913
 Alpha  occ. eigenvalues --   -1.01959  -0.87922  -0.77591  -0.71919  -0.68008
 Alpha  occ. eigenvalues --   -0.61601  -0.57310  -0.54954  -0.51847  -0.48965
 Alpha  occ. eigenvalues --   -0.46213  -0.44558  -0.42417  -0.42105  -0.40503
 Alpha  occ. eigenvalues --   -0.38147  -0.37838  -0.36021  -0.35247  -0.33113
 Alpha  occ. eigenvalues --   -0.30259  -0.27216  -0.25252  -0.23319
 Alpha virt. eigenvalues --   -0.00510   0.08727   0.09812   0.09923   0.12630
 Alpha virt. eigenvalues --    0.13522   0.14366   0.15766   0.16191   0.16420
 Alpha virt. eigenvalues --    0.17565   0.18856   0.19039   0.22356   0.23237

 Mulliken charges:
               1
     1  C   -0.471329
     2  C    0.203446
     3  C    0.096179
     4  O   -0.427162
     5  C   -0.194058
     6  C   -0.076192
     7  C   -0.187729
     8  C    0.064696
     9  O   -0.430091
    10  H    0.111644
    11  H    0.128616
    12  H    0.112287
    13  H    0.105412
    14  H    0.283785
    15  H    0.085686
    16  H    0.108236
    17  H    0.105027
    18  H    0.104567
    19  H    0.276979
 Sum of Mulliken charges =   0.00000

 Dipole moment (field-independent basis, Debye):
    X=             -0.0203    Y=             -0.7347    Z=              2.0941  Tot=              2.2193
 Quadrupole moment (field-independent basis, Debye-Ang):
   XX=            -58.9861   YY=            -48.9597   ZZ=            -53.3163
   XY=             -0.8799   XZ=             -0.1424   YZ=              0.7072

  Exact polarizability:  77.726   1.033  81.090   5.285   0.472  69.126
 Approx polarizability: 119.888   5.955 113.105  11.911   1.577 115.226

                      1                      2                      3
                      A                      A                      A
 Frequencies --    113.2572               184.2383               209.0217
 Red. masses --      4.5326                 1.2605                 3.1749
 Frc consts  --      0.0343                 0.0252                 0.0817
 IR Inten    --      2.0237                 0.4270                 1.5301

                      4                      5                      6
                      A                      A                      A
 Frequencies --    247.9584               275.0281               301.6644
 Red. masses --      2.9508                 3.1015                 2.9901
 Frc consts  --      0.1069                 0.1382                 0.1603
 IR Inten    --      0.6529                 0.7462                 2.4927

                      7                      8                      9
                      A                      A                      A
 Frequencies --    348.1218               370.4885               412.3558
 Red. masses --      1.2111                 1.0857                 2.8100
 Frc consts  --      0.0865                 0.0878                 0.2815
 IR Inten    --     47.8083                60.6213                29.7536

                     10                     11                     12
                      A                      A                      A
 Frequencies --    503.9742               557.8565               577.3865
 Red. masses --      3.2048                 4.8382                 2.9059
 Frc consts  --      0.4796                 0.8871                 0.5708
 IR Inten    --      5.4864                 1.8232                13.1110

                     13                     14                     15
                      A                      A                      A
 Frequencies --    657.1151               733.8605               768.9681
 Red. masses --      3.7341                 4.2965                 2.5587
 Frc consts  --      0.9500                 1.3633                 0.8914
 IR Inten    --      1.9876                13.5070                 9.5736

                     16                     17                     18
                      A                      A                      A
 Frequencies --    793.2218               844.5645               867.2155
 Red. masses --      2.0710                 2.4947                 2.3336
 Frc consts  --      0.7677                 1.0484                 1.0340
 IR Inten    --     18.6811                 9.7751                16.2851

                     19                     20                     21
                      A                      A                      A
 Frequencies --    917.8176               967.9707               991.5570
 Red. masses --      2.0835                 1.3273                 1.8971
 Frc consts  --      1.0341                 0.7327                 1.0990
 IR Inten    --     18.4949                 1.1137                15.8406

                     22                     23                     24
                      A                      A                      A
 Frequencies --    999.4680              1041.6451              1069.2254
 Red. masses --      1.7901                 1.6970                 1.9272
 Frc consts  --      1.0536                 1.0848                 1.2982
 IR Inten    --     18.7697                19.6890                71.0113

                     25                     26                     27
                      A                      A                      A
 Frequencies --   1082.9462              1115.0950              1131.0732
 Red. masses --      1.8468                 1.7307                 1.6241
 Frc consts  --      1.2761                 1.2680                 1.2242
 IR Inten    --     33.8430                 8.6228                54.8021

                     28                     29                     30
                      A                      A                      A
 Frequencies --   1151.9575              1202.7509              1251.1804
 Red. masses --      2.3216                 1.6862                 1.3269
 Frc consts  --      1.8151                 1.4372                 1.2239
 IR Inten    --     36.3723                28.3121                16.1420

                     31                     32                     33
                      A                      A                      A
 Frequencies --   1260.4540              1292.6586              1313.8727
 Red. masses --      1.4966                 1.9386                 1.6385
 Frc consts  --      1.4010                 1.9086                 1.6665
 IR Inten    --     22.9498                 0.1390                11.0220

                     34                     35                     36
                      A                      A                      A
 Frequencies --   1366.7475              1372.8357              1418.3446
 Red. masses --      1.7880                 1.9921                 1.2449
 Frc consts  --      1.9678                 2.2121                 1.4755
 IR Inten    --     12.7599                 5.8661                10.2176

                     37                     38                     39
                      A                      A                      A
 Frequencies --   1423.7017              1453.9533              1487.9105
 Red. masses --      1.2807                 1.6227                 1.0487
 Frc consts  --      1.5294                 2.0211                 1.3679
 IR Inten    --     59.8373                65.5262                 7.1942

                     40                     41                     42
                      A                      A                      A
 Frequencies --   1497.3703              1644.9324              3033.2054
 Red. masses --      1.0657                 6.1576                 1.0360
 Frc consts  --      1.4078                 9.8165                 5.6156
 IR Inten    --     12.5590                 5.3297                31.5454

                     43                     44                     45
                      A                      A                      A
 Frequencies --   3039.8394              3097.7314              3103.7936
 Red. masses --      1.0826                 1.1008                 1.1012
 Frc consts  --      5.8941                 6.2237                 6.2503
 IR Inten    --     17.9104                19.1736                20.8818

                     46                     47                     48
                      A                      A                      A
 Frequencies --   3149.0472              3162.8399              3184.3626
 Red. masses --      1.0879                 1.0900                 1.0864
 Frc consts  --      6.3565                 6.4245                 6.4909
 IR Inten    --     11.6601                22.0363                 9.9564

                     49                     50                     51
                      A                      A                      A
 Frequencies --   3210.2302              3745.0043              3798.1940
 Red. masses --      1.1027                 1.0646                 1.0661
 Frc consts  --      6.6957                 8.7975                 9.0613
 IR Inten    --     13.7372                30.9082                17.0259

 - Thermochemistry -
 -------------------
 Temperature   298.150 Kelvin.  Pressure   1.00000 Atm.
 Atom     1 has atomic number  6 and mass  12.00000

 Molecular mass:   126.06808 amu.
 Principal axes and moments of inertia in atomic units:
                           1         2         3
     Eigenvalues --   813.815681048.078071352.88101
           X            0.99800  -0.06290   0.00664
           Y            0.06272   0.99772   0.02509
           Z           -0.00820  -0.02463   0.99966
 This molecule is an asymmetric top.
 Rotational symmetry number  1.
 Warning -- assumption of classical behavior for rotation
           may cause significant error
 Rotational temperatures (Kelvin)      0.10643     0.08264     0.06402
 Rotational constants (GHZ):           2.21763     1.72195     1.33400
 Zero-point vibrational energy     417173.8 (Joules/Mol)
                                   99.70693 (Kcal/Mol)
 Warning -- explicit consideration of  12 degrees of freedom as
           vibrations may cause significant error
 Vibrational temperatures:    162.95   265.08   300.74   356.76   395.70
          (Kelvin)            434.03   500.87   533.05   593.29   725.11
                              802.63   830.73   945.44  1055.86  1106.37
                             1141.27  1215.14  1247.73  1320.53  1392.69
                             1426.63  1438.01  1498.69  1538.38  1558.12
                             1604.37  1627.36  1657.41  1730.49  1800.17
                             1813.51  1859.85  1890.37  1966.44  1975.20
                             2040.68  2048.39  2091.91  2140.77  2154.38
                             2366.69  4364.10  4373.65  4456.94  4465.66
                             4530.77  4550.62  4581.58  4618.80  5388.22
                             5464.75

 Zero-point correction=                           0.158893 (Hartree/Particle)
 Thermal correction to Energy=                    0.167467
 Thermal correction to Enthalpy=                  0.168411
 Thermal correction to Gibbs Free Energy=         0.126341
 Sum of electronic and zero-point Energies=           -423.015749
 Sum of electronic and thermal Energies=              -423.007175
 Sum of electronic and thermal Enthalpies=            -423.006231
 Sum of electronic and thermal Free Energies=         -423.048301

                     E (Thermal)             CV                S
                      KCal/Mol        Cal/Mol-Kelvin    Cal/Mol-Kelvin
 Total                  105.087             33.823             88.545
 Electronic               0.000              0.000              0.000
 Translational            0.889              2.981             40.409
 Rotational               0.889              2.981             28.536
 Vibrational            103.310             27.861             19.600
 Vibration     1          0.607              1.938              3.212
 Vibration     2          0.631              1.861              2.285
 Vibration     3          0.642              1.827              2.052
 Vibration     4          0.662              1.766              1.745
 Vibration     5          0.677              1.720              1.564
 Vibration     6          0.694              1.671              1.408
 Vibration     7          0.726              1.579              1.175
 Vibration     8          0.742              1.533              1.078
 Vibration     9          0.776              1.443              0.918
 Vibration    10          0.859              1.241              0.648
 Vibration    11          0.913              1.123              0.528
 Vibration    12          0.934              1.080              0.490

 Optimization completed.
    -- Stationary point found.
 Normal termination of Gaussian 09 at Mon Jan 27 23:37:51 2020.
