 Gaussian 09, Revision D.01,
 Gaussian 09:  ES64L-G09RevD.01 24-Apr-2013

 -----------------------------
 # b3lyp 6-31G(2df,p) opt Freq
 -----------------------------

 -----
 titel
 -----
 Symbolic Z-matrix:
 Charge =  0 Multiplicity = 1

 SCF Done:  E(RB3LYP) =  -423.177049532     A.U. after   14 cycles
 Optimization completed.
    -- Stationary point found.
 Normal termination of Gaussian 09 at Mon Jan 27 17:07:44 2020.

 ----------------------------------------------------------------------
 #N Geom=AllCheck Guess=TCheck SCRF=Check GenChk RB3LYP/6-31G(2df,p) Fr
 eq
 ----------------------------------------------------------------------

 Structure from the checkpoint file:  "/scratch/puck/g09_1341a3e2-62d8-41a7-bc9a-1d2964247af2/Gau-179191.chk"
 -----
 titel
 -----
 Charge =  0 Multiplicity = 1

                         Standard orientation:
 ---------------------------------------------------------------------
 Center     Atomic      Atomic             Coordinates (Angstroms)
 Number     Number       Type             X           Y           Z
 ---------------------------------------------------------------------
      1          6           0        2.611689   -0.919853    0.000039
      2          6           0        1.261888   -0.244770   -0.000003
      3          6           0        0.152218   -0.530641    1.067376
      4          6           0       -0.719809    0.187970    0.000026
      5          6           0        0.152119   -0.530860   -1.067225
      6          8           0       -0.211152    1.528774   -0.000107
      7          6           0        1.215666    1.294526   -0.000160
      8          6           0       -2.217091    0.164680    0.000137
      9          8           0       -2.858899   -0.855784   -0.000151
     10          1           0        2.508001   -2.009192   -0.000220
     11          1           0        3.194540   -0.638613   -0.884580
     12          1           0        3.194268   -0.639008    0.884962
     13          1           0       -0.088260   -1.589743    1.164236
     14          1           0        0.228026   -0.046001    2.043948
     15          1           0       -0.088373   -1.589980   -1.163836
     16          1           0        0.227837   -0.046433   -2.043909
     17          1           0        1.670376    1.740530   -0.892929
     18          1           0        1.670476    1.740730    0.892459
     19          1           0       -2.696555    1.167486    0.000782
 ---------------------------------------------------------------------

 SCF Done:  E(RB3LYP) =  -423.177049532     A.U. after    1 cycles

 The electronic state is 1-A.
 Alpha  occ. eigenvalues --  -19.14424 -19.14236 -10.27150 -10.24885 -10.23298
 Alpha  occ. eigenvalues --  -10.21448 -10.19507 -10.19506 -10.18837  -1.05650
 Alpha  occ. eigenvalues --   -1.04396  -0.85075  -0.76317  -0.70416  -0.67811
 Alpha  occ. eigenvalues --   -0.64002  -0.56639  -0.54256  -0.49515  -0.48645
 Alpha  occ. eigenvalues --   -0.47307  -0.45272  -0.43663  -0.41525  -0.41286
 Alpha  occ. eigenvalues --   -0.40254  -0.38252  -0.36857  -0.35073  -0.35069
 Alpha  occ. eigenvalues --   -0.31817  -0.31025  -0.25323  -0.25073
 Alpha virt. eigenvalues --   -0.03305   0.07452   0.09576   0.11073   0.13022
 Alpha virt. eigenvalues --    0.13673   0.14480   0.14696   0.15446   0.16903
 Alpha virt. eigenvalues --    0.16957   0.17566   0.19569   0.21241   0.21786

 Mulliken charges:
               1
     1  C   -0.501330
     2  C    0.263833
     3  C   -0.297133
     4  C    0.350723
     5  C   -0.297135
     6  O   -0.324643
     7  C   -0.107474
     8  C    0.061848
     9  O   -0.262122
    10  H    0.124008
    11  H    0.122353
    12  H    0.122357
    13  H    0.119846
    14  H    0.103570
    15  H    0.119846
    16  H    0.103568
    17  H    0.102207
    18  H    0.102206
    19  H    0.093472
 Sum of Mulliken charges =   0.00000

 Dipole moment (field-independent basis, Debye):
    X=              2.9607    Y=              0.1398    Z=              0.0007  Tot=              2.9640
 Quadrupole moment (field-independent basis, Debye-Ang):
   XX=            -58.0091   YY=            -55.8790   ZZ=            -51.4417
   XY=             -3.3288   XZ=             -0.0016   YZ=             -0.0002

  Exact polarizability:  89.214   1.780  73.359  -0.001   0.003  65.644
 Approx polarizability: 117.678   7.420 115.251   0.002   0.005 100.075

                      1                      2                      3
                      A                      A                      A
 Frequencies --      8.5067               155.3079               188.1879
 Red. masses --      2.9038                 5.1025                 2.0462
 Frc consts  --      0.0001                 0.0725                 0.0427
 IR Inten    --      9.7391                 4.3341                 1.1097

                      4                      5                      6
                      A                      A                      A
 Frequencies --    216.1972               281.5485               299.4837
 Red. masses --      1.1396                 2.5293                 2.7135
 Frc consts  --      0.0314                 0.1181                 0.1434
 IR Inten    --      0.0605                 2.7669                 4.0120

                      7                      8                      9
                      A                      A                      A
 Frequencies --    397.7856               447.1927               476.9311
 Red. masses --      2.1129                 4.8718                 2.4024
 Frc consts  --      0.1970                 0.5740                 0.3220
 IR Inten    --      1.8437                 0.5534                 1.5788

                     10                     11                     12
                      A                      A                      A
 Frequencies --    538.7151               588.3477               679.4993
 Red. masses --      2.0515                 4.0145                 3.4001
 Frc consts  --      0.3508                 0.8187                 0.9250
 IR Inten    --      0.6879                 0.0771                 2.4556

                     13                     14                     15
                      A                      A                      A
 Frequencies --    716.4812               795.5867               869.3762
 Red. masses --      3.8063                 2.8242                 2.5249
 Frc consts  --      1.1512                 1.0532                 1.1244
 IR Inten    --     38.4709                 0.4958                 0.0328

                     16                     17                     18
                      A                      A                      A
 Frequencies --    873.4383               928.9271               944.0503
 Red. masses --      3.9865                 2.2734                 1.3288
 Frc consts  --      1.7919                 1.1558                 0.6978
 IR Inten    --      6.7478                13.8317                 1.6796

                     19                     20                     21
                      A                      A                      A
 Frequencies --    961.7532               998.9109              1002.3384
 Red. masses --      2.2770                 4.9788                 1.2741
 Frc consts  --      1.2409                 2.9270                 0.7542
 IR Inten    --     20.0881                69.0274                 0.0831

                     22                     23                     24
                      A                      A                      A
 Frequencies --   1041.3452              1043.6734              1109.9245
 Red. masses --      1.7472                 1.3649                 2.0038
 Frc consts  --      1.1163                 0.8759                 1.4544
 IR Inten    --      3.6088                 0.7174                 4.6664

                     25                     26                     27
                      A                      A                      A
 Frequencies --   1141.4821              1158.7011              1166.7816
 Red. masses --      1.8278                 1.5547                 1.8672
 Frc consts  --      1.4032                 1.2298                 1.4977
 IR Inten    --     20.3011                 0.0051                32.2646

                     28                     29                     30
                      A                      A                      A
 Frequencies --   1174.6658              1229.1515              1255.6499
 Red. masses --      1.3279                 1.6180                 2.3498
 Frc consts  --      1.0796                 1.4403                 2.1828
 IR Inten    --      0.1687                 1.0317                 1.7476

                     31                     32                     33
                      A                      A                      A
 Frequencies --   1274.8979              1298.7853              1381.0724
 Red. masses --      2.4294                 2.5905                 1.7713
 Frc consts  --      2.3264                 2.5746                 1.9906
 IR Inten    --      7.6680                 3.0297                 6.3220

                     34                     35                     36
                      A                      A                      A
 Frequencies --   1409.1447              1417.5727              1472.8484
 Red. masses --      1.3185                 1.3972                 1.0974
 Frc consts  --      1.5426                 1.6542                 1.4025
 IR Inten    --     11.1734                 8.7354                 2.4106

                     37                     38                     39
                      A                      A                      A
 Frequencies --   1491.7166              1493.1345              1506.2605
 Red. masses --      1.0561                 1.0471                 1.1294
 Frc consts  --      1.3847                 1.3754                 1.5097
 IR Inten    --      3.1461                 4.7482                 4.0953

                     40                     41                     42
                      A                      A                      A
 Frequencies --   1531.2186              1825.6558              2902.4246
 Red. masses --      1.1258                10.6641                 1.0841
 Frc consts  --      1.5552                20.9417                 5.3805
 IR Inten    --      1.9291               141.6312               103.3489

                     43                     44                     45
                      A                      A                      A
 Frequencies --   3019.2924              3027.2750              3061.1369
 Red. masses --      1.0544                 1.0372                 1.1065
 Frc consts  --      5.6631                 5.6005                 6.1090
 IR Inten    --     50.5872                38.7222                11.2559

                     46                     47                     48
                      A                      A                      A
 Frequencies --   3067.9377              3073.0253              3089.1288
 Red. masses --      1.0605                 1.0598                 1.1005
 Frc consts  --      5.8809                 5.8965                 6.1874
 IR Inten    --     62.0272                 0.7056                22.5854

                     49                     50                     51
                      A                      A                      A
 Frequencies --   3102.8249              3143.6750              3150.3408
 Red. masses --      1.1007                 1.1097                 1.1071
 Frc consts  --      6.2437                 6.4616                 6.4740
 IR Inten    --     17.1140                 9.4144                21.2735

 - Thermochemistry -
 -------------------
 Temperature   298.150 Kelvin.  Pressure   1.00000 Atm.
 Atom     1 has atomic number  6 and mass  12.00000

 Molecular mass:   126.06808 amu.
 Principal axes and moments of inertia in atomic units:
                           1         2         3
     Eigenvalues --   523.335501417.568521643.25480
           X            0.99969  -0.02509  -0.00001
           Y            0.02509   0.99969   0.00001
           Z            0.00001  -0.00001   1.00000
 This molecule is an asymmetric top.
 Rotational symmetry number  1.
 Warning -- assumption of classical behavior for rotation
           may cause significant error
 Rotational temperatures (Kelvin)      0.16550     0.06110     0.05271
 Rotational constants (GHZ):           3.44854     1.27312     1.09827
 Zero-point vibrational energy     415279.5 (Joules/Mol)
                                   99.25418 (Kcal/Mol)
 Warning -- explicit consideration of  11 degrees of freedom as
           vibrations may cause significant error
 Vibrational temperatures:     12.24   223.45   270.76   311.06   405.09
          (Kelvin)            430.89   572.32   643.41   686.20   775.09
                              846.50   977.65  1030.86  1144.67  1250.84
                             1256.68  1336.52  1358.28  1383.75  1437.21
                             1442.14  1498.26  1501.61  1596.93  1642.34
                             1667.11  1678.74  1690.08  1768.47  1806.60
                             1834.29  1868.66  1987.05  2027.44  2039.57
                             2119.10  2146.24  2148.28  2167.17  2203.08
                             2626.71  4175.94  4344.08  4355.57  4404.29
                             4414.07  4421.39  4444.56  4464.27  4523.04
                             4532.63

 Zero-point correction=                           0.158172 (Hartree/Particle)
 Thermal correction to Energy=                    0.166629
 Thermal correction to Enthalpy=                  0.167573
 Thermal correction to Gibbs Free Energy=         0.123393
 Sum of electronic and zero-point Energies=           -423.018878
 Sum of electronic and thermal Energies=              -423.010421
 Sum of electronic and thermal Enthalpies=            -423.009477
 Sum of electronic and thermal Free Energies=         -423.053657

                     E (Thermal)             CV                S
                      KCal/Mol        Cal/Mol-Kelvin    Cal/Mol-Kelvin
 Total                  104.561             31.999             92.985
 Electronic               0.000              0.000              0.000
 Translational            0.889              2.981             40.409
 Rotational               0.889              2.981             28.590
 Vibrational            102.784             26.037             23.986
 Vibration     1          0.593              1.987              8.332
 Vibration     2          0.620              1.897              2.606
 Vibration     3          0.633              1.856              2.246
 Vibration     4          0.645              1.816              1.991
 Vibration     5          0.681              1.708              1.524
 Vibration     6          0.692              1.675              1.420
 Vibration     7          0.764              1.475              0.971
 Vibration     8          0.806              1.367              0.804
 Vibration     9          0.834              1.301              0.718
 Vibration    10          0.894              1.164              0.568
 Vibration    11          0.946              1.057              0.470

 Optimization completed.
    -- Stationary point found.
 Normal termination of Gaussian 09 at Mon Jan 27 17:50:21 2020.
