 Gaussian 09, Revision D.01,
 Gaussian 09:  ES64L-G09RevD.01 24-Apr-2013

 -----------------------------
 # b3lyp 6-31G(2df,p) opt Freq
 -----------------------------

 -----
 titel
 -----
 Symbolic Z-matrix:
 Charge =  0 Multiplicity = 1

 SCF Done:  E(RB3LYP) =  -423.230905324     A.U. after   14 cycles
 Optimization completed.
    -- Stationary point found.
 Normal termination of Gaussian 09 at Mon Jan 27 23:55:24 2020.

 ----------------------------------------------------------------------
 #N Geom=AllCheck Guess=TCheck SCRF=Check GenChk RB3LYP/6-31G(2df,p) Fr
 eq
 ----------------------------------------------------------------------

 Structure from the checkpoint file:  "/scratch/puck/g09_4824ab28-72a1-495a-9f03-882f58feb277/Gau-104349.chk"
 -----
 titel
 -----
 Charge =  0 Multiplicity = 1

                         Standard orientation:
 ---------------------------------------------------------------------
 Center     Atomic      Atomic             Coordinates (Angstroms)
 Number     Number       Type             X           Y           Z
 ---------------------------------------------------------------------
      1          6           0       -1.705201    0.615058    1.369464
      2          6           0       -0.895428    1.132929    0.199221
      3          6           0       -0.726117    0.404949   -1.105796
      4          6           0       -0.993710   -1.089788   -1.099218
      5          8           0       -0.118930   -1.662098   -0.111552
      6          6           0        0.805472   -0.752681    0.323988
      7          8           0        1.727760   -1.068373    1.020136
      8          6           0        0.479308    0.612278   -0.210768
      9          6           0        1.641358    1.541071   -0.458191
     10          1           0       -1.373494    1.081568    2.302523
     11          1           0       -2.765590    0.856114    1.236364
     12          1           0       -1.619953   -0.467120    1.492510
     13          1           0       -0.957937    2.212466    0.077841
     14          1           0       -0.836772    0.938830   -2.042443
     15          1           0       -2.021015   -1.353230   -0.827908
     16          1           0       -0.762396   -1.543540   -2.069043
     17          1           0        2.331894    1.128729   -1.201131
     18          1           0        1.295838    2.514782   -0.816857
     19          1           0        2.204692    1.692276    0.467267
 ---------------------------------------------------------------------

 SCF Done:  E(RB3LYP) =  -423.230905324     A.U. after    1 cycles

 The electronic state is 1-A.
 Alpha  occ. eigenvalues --  -19.17743 -19.11826 -10.29845 -10.25123 -10.21408
 Alpha  occ. eigenvalues --  -10.21238 -10.20986 -10.18777 -10.18694  -1.09538
 Alpha  occ. eigenvalues --   -1.01668  -0.88942  -0.74828  -0.73796  -0.69866
 Alpha  occ. eigenvalues --   -0.63287  -0.59007  -0.52902  -0.51432  -0.48369
 Alpha  occ. eigenvalues --   -0.47149  -0.43864  -0.43241  -0.42149  -0.41135
 Alpha  occ. eigenvalues --   -0.39992  -0.39709  -0.38765  -0.37524  -0.34105
 Alpha  occ. eigenvalues --   -0.30952  -0.28857  -0.28527  -0.25950
 Alpha virt. eigenvalues --    0.01336   0.07688   0.09906   0.10941   0.11977
 Alpha virt. eigenvalues --    0.12710   0.13945   0.15343   0.15873   0.16943
 Alpha virt. eigenvalues --    0.17206   0.17432   0.18595   0.20424   0.21085

 Mulliken charges:
               1
     1  C   -0.432032
     2  C   -0.046385
     3  C   -0.137862
     4  C   -0.106849
     5  O   -0.229665
     6  C    0.407789
     7  O   -0.348415
     8  C    0.150026
     9  C   -0.480200
    10  H    0.130530
    11  H    0.120335
    12  H    0.143806
    13  H    0.094851
    14  H    0.099954
    15  H    0.122641
    16  H    0.122371
    17  H    0.128215
    18  H    0.115338
    19  H    0.145551
 Sum of Mulliken charges =   0.00000

 Dipole moment (field-independent basis, Debye):
    X=             -2.6224    Y=              2.4933    Z=             -2.3071  Tot=              4.2914
 Quadrupole moment (field-independent basis, Debye-Ang):
   XX=            -55.2467   YY=            -55.0667   ZZ=            -51.9281
   XY=              3.5813   XZ=             -2.6460   YZ=              2.8352

  Exact polarizability:  81.630   1.179  72.166   3.205   1.726  71.320
 Approx polarizability: 120.716  -2.080 104.729  12.922   1.065 107.018

                      1                      2                      3
                      A                      A                      A
 Frequencies --    123.5565               165.8784               197.0462
 Red. masses --      4.8902                 1.0669                 1.3415
 Frc consts  --      0.0440                 0.0173                 0.0307
 IR Inten    --      2.1136                 0.2535                 0.6032

                      4                      5                      6
                      A                      A                      A
 Frequencies --    204.8816               222.7809               244.2602
 Red. masses --      3.1148                 1.9615                 2.2941
 Frc consts  --      0.0770                 0.0574                 0.0806
 IR Inten    --      2.1398                 0.7240                 0.9546

                      7                      8                      9
                      A                      A                      A
 Frequencies --    266.9240               398.5296               488.7548
 Red. masses --      2.8018                 3.0285                 4.0300
 Frc consts  --      0.1176                 0.2834                 0.5672
 IR Inten    --      2.4953                 1.1161                 3.5920

                     10                     11                     12
                      A                      A                      A
 Frequencies --    513.9132               585.7754               681.9120
 Red. masses --      2.7819                 6.0598                 5.3748
 Frc consts  --      0.4329                 1.2251                 1.4726
 IR Inten    --      0.3097                 3.4902                 1.1701

                     13                     14                     15
                      A                      A                      A
 Frequencies --    708.3778               793.4758               798.4478
 Red. masses --      5.4361                 3.7181                 4.6051
 Frc consts  --      1.6072                 1.3792                 1.7297
 IR Inten    --      1.9095                 2.5078                12.3692

                     16                     17                     18
                      A                      A                      A
 Frequencies --    843.4830               885.0341               949.7994
 Red. masses --      3.1364                 1.7189                 1.2622
 Frc consts  --      1.3147                 0.7933                 0.6709
 IR Inten    --      1.6809                 0.9224                13.5675

                     19                     20                     21
                      A                      A                      A
 Frequencies --    991.8475              1024.6151              1048.8621
 Red. masses --      1.9200                 1.4576                 2.8124
 Frc consts  --      1.1128                 0.9016                 1.8229
 IR Inten    --     17.9478                17.8547                36.4420

                     22                     23                     24
                      A                      A                      A
 Frequencies --   1062.8069              1089.9368              1115.1285
 Red. masses --      1.9727                 2.2071                 1.8625
 Frc consts  --      1.3129                 1.5448                 1.3646
 IR Inten    --      8.9257                78.5724                24.5500

                     25                     26                     27
                      A                      A                      A
 Frequencies --   1129.7512              1134.4482              1166.2494
 Red. masses --      1.8347                 2.0529                 2.4597
 Frc consts  --      1.3797                 1.5567                 1.9711
 IR Inten    --     20.3944                26.8141                 7.6279

                     28                     29                     30
                      A                      A                      A
 Frequencies --   1234.8725              1265.3556              1318.1377
 Red. masses --      1.1185                 1.7979                 3.2351
 Frc consts  --      1.0049                 1.6961                 3.3117
 IR Inten    --      3.7264                 2.9790                30.5992

                     31                     32                     33
                      A                      A                      A
 Frequencies --   1357.0375              1386.0432              1416.9865
 Red. masses --      1.5172                 1.5373                 1.2607
 Frc consts  --      1.6461                 1.7400                 1.4914
 IR Inten    --      2.4530                25.0668                 2.3076

                     34                     35                     36
                      A                      A                      A
 Frequencies --   1424.9152              1458.0168              1484.2204
 Red. masses --      1.2438                 2.5605                 1.0489
 Frc consts  --      1.4880                 3.2070                 1.3614
 IR Inten    --      2.4173                 2.4670                 4.1373

                     37                     38                     39
                      A                      A                      A
 Frequencies --   1498.6421              1499.6915              1505.2036
 Red. masses --      1.0495                 1.0467                 1.1012
 Frc consts  --      1.3887                 1.3870                 1.4699
 IR Inten    --      7.8670                 3.0710                 1.4274

                     40                     41                     42
                      A                      A                      A
 Frequencies --   1522.6434              1870.9292              3037.6299
 Red. masses --      1.0877                12.7635                 1.0384
 Frc consts  --      1.4857                26.3230                 5.6455
 IR Inten    --      2.2160               354.3517                33.9167

                     43                     44                     45
                      A                      A                      A
 Frequencies --   3038.7111              3041.6812              3082.1142
 Red. masses --      1.0362                 1.0559                 1.1086
 Frc consts  --      5.6373                 5.7557                 6.2047
 IR Inten    --     27.5986                40.6858                22.3451

                     46                     47                     48
                      A                      A                      A
 Frequencies --   3096.9489              3104.5972              3116.7219
 Red. masses --      1.1005                 1.1009                 1.0989
 Frc consts  --      6.2186                 6.2519                 6.2895
 IR Inten    --     16.6349                16.4316                 6.5351

                     49                     50                     51
                      A                      A                      A
 Frequencies --   3118.9408              3135.1892              3179.9182
 Red. masses --      1.0960                 1.0927                 1.0914
 Frc consts  --      6.2816                 6.3281                 6.5024
 IR Inten    --      4.7990                23.8239                10.8414

 - Thermochemistry -
 -------------------
 Temperature   298.150 Kelvin.  Pressure   1.00000 Atm.
 Atom     1 has atomic number  6 and mass  12.00000

 Molecular mass:   126.06808 amu.
 Principal axes and moments of inertia in atomic units:
                           1         2         3
     Eigenvalues --   900.324751000.151281233.38520
           X            0.95818   0.27680  -0.07258
           Y           -0.27514   0.96087   0.03216
           Z            0.07864  -0.01085   0.99684
 This molecule is an asymmetric top.
 Rotational symmetry number  1.
 Warning -- assumption of classical behavior for rotation
           may cause significant error
 Rotational temperatures (Kelvin)      0.09620     0.08660     0.07022
 Rotational constants (GHZ):           2.00454     1.80447     1.46324
 Zero-point vibrational energy     418882.1 (Joules/Mol)
                                  100.11523 (Kcal/Mol)
 Warning -- explicit consideration of  11 degrees of freedom as
           vibrations may cause significant error
 Vibrational temperatures:    177.77   238.66   283.51   294.78   320.53
          (Kelvin)            351.44   384.04   573.39   703.21   739.41
                              842.80   981.12  1019.20  1141.63  1148.79
                             1213.58  1273.37  1366.55  1427.05  1474.19
                             1509.08  1529.14  1568.17  1604.42  1625.46
                             1632.22  1677.97  1776.70  1820.56  1896.50
                             1952.47  1994.20  2038.73  2050.13  2097.76
                             2135.46  2156.21  2157.72  2165.65  2190.74
                             2691.85  4370.47  4372.02  4376.30  4434.47
                             4455.81  4466.82  4484.26  4487.45  4510.83
                             4575.19

 Zero-point correction=                           0.159544 (Hartree/Particle)
 Thermal correction to Energy=                    0.168111
 Thermal correction to Enthalpy=                  0.169055
 Thermal correction to Gibbs Free Energy=         0.126723
 Sum of electronic and zero-point Energies=           -423.071362
 Sum of electronic and thermal Energies=              -423.062795
 Sum of electronic and thermal Enthalpies=            -423.061851
 Sum of electronic and thermal Free Energies=         -423.104182

                     E (Thermal)             CV                S
                      KCal/Mol        Cal/Mol-Kelvin    Cal/Mol-Kelvin
 Total                  105.491             32.392             89.095
 Electronic               0.000              0.000              0.000
 Translational            0.889              2.981             40.409
 Rotational               0.889              2.981             28.498
 Vibrational            103.714             26.430             20.188
 Vibration     1          0.610              1.929              3.044
 Vibration     2          0.624              1.884              2.482
 Vibration     3          0.636              1.844              2.161
 Vibration     4          0.640              1.833              2.089
 Vibration     5          0.648              1.806              1.936
 Vibration     6          0.660              1.772              1.772
 Vibration     7          0.672              1.734              1.616
 Vibration     8          0.765              1.473              0.968
 Vibration     9          0.845              1.275              0.687
 Vibration    10          0.869              1.219              0.624
 Vibration    11          0.943              1.062              0.475

 Optimization completed.
    -- Stationary point found.
 Normal termination of Gaussian 09 at Tue Jan 28 00:40:27 2020.
