 Gaussian 09, Revision D.01,
 Gaussian 09:  ES64L-G09RevD.01 24-Apr-2013

 -----------------------------
 # b3lyp 6-31G(2df,p) opt Freq
 -----------------------------

 -----
 titel
 -----
 Symbolic Z-matrix:
 Charge =  0 Multiplicity = 1

 SCF Done:  E(RB3LYP) =  -423.106959129     A.U. after   13 cycles
 Optimization completed.
    -- Stationary point found.
 Normal termination of Gaussian 09 at Tue Jan 28 09:26:58 2020.

 ----------------------------------------------------------------------
 #N Geom=AllCheck Guess=TCheck SCRF=Check GenChk RB3LYP/6-31G(2df,p) Fr
 eq
 ----------------------------------------------------------------------

 Structure from the checkpoint file:  "/scratch/puck/g09_a7778a36-6b5d-4cb7-a71f-9094f75ea9b8/Gau-82772.chk"
 -----
 titel
 -----
 Charge =  0 Multiplicity = 1

                         Standard orientation:
 ---------------------------------------------------------------------
 Center     Atomic      Atomic             Coordinates (Angstroms)
 Number     Number       Type             X           Y           Z
 ---------------------------------------------------------------------
      1          6           0        2.774457   -0.385617   -0.722615
      2          6           0        1.452954   -0.086455   -0.099414
      3          8           0        1.268314   -0.337652    1.304479
      4          6           0        0.339155   -0.908373    0.367599
      5          6           0       -0.699652    0.174756   -0.074360
      6          6           0       -1.975257   -0.165039   -0.778929
      7          8           0       -2.937042   -0.754973    0.087629
      8          6           0       -0.417269    1.492781    0.607367
      9          6           0        0.461778    1.050045   -0.533258
     10          1           0        3.501521    0.400558   -0.488612
     11          1           0        3.164100   -1.336860   -0.351006
     12          1           0        2.683060   -0.443804   -1.812271
     13          1           0        0.181220   -1.980196    0.401784
     14          1           0       -2.372369    0.736322   -1.273712
     15          1           0       -1.799234   -0.911694   -1.562533
     16          1           0       -3.041272   -0.163451    0.840646
     17          1           0       -1.110484    2.290766    0.356321
     18          1           0       -0.024414    1.516545    1.615735
     19          1           0        0.550704    1.600214   -1.461557
 ---------------------------------------------------------------------

 SCF Done:  E(RB3LYP) =  -423.106959128     A.U. after    1 cycles

 The electronic state is 1-A.
 Alpha  occ. eigenvalues --  -19.14994 -19.13312 -10.24428 -10.23380 -10.23176
 Alpha  occ. eigenvalues --  -10.19985 -10.19632 -10.19171 -10.18931  -1.07659
 Alpha  occ. eigenvalues --   -1.01403  -0.87357  -0.75077  -0.70441  -0.67979
 Alpha  occ. eigenvalues --   -0.61785  -0.55695  -0.54305  -0.52201  -0.48640
 Alpha  occ. eigenvalues --   -0.47132  -0.44661  -0.43632  -0.42543  -0.41131
 Alpha  occ. eigenvalues --   -0.38843  -0.37798  -0.35098  -0.34255  -0.33159
 Alpha  occ. eigenvalues --   -0.29544  -0.27101  -0.26180  -0.22929
 Alpha virt. eigenvalues --    0.06256   0.08271   0.10017   0.10997   0.11860
 Alpha virt. eigenvalues --    0.12519   0.13868   0.14623   0.14969   0.16294
 Alpha virt. eigenvalues --    0.16406   0.18577   0.19662   0.20813   0.21240

 Mulliken charges:
               1
     1  C   -0.503785
     2  C    0.422479
     3  O   -0.283141
     4  C   -0.119435
     5  C    0.295426
     6  C   -0.167841
     7  O   -0.414708
     8  C   -0.344320
     9  C   -0.206389
    10  H    0.132625
    11  H    0.136460
    12  H    0.126862
    13  H    0.107384
    14  H    0.086817
    15  H    0.107586
    16  H    0.282560
    17  H    0.109166
    18  H    0.137806
    19  H    0.094449
 Sum of Mulliken charges =   0.00000

 Dipole moment (field-independent basis, Debye):
    X=              0.5522    Y=              1.0429    Z=             -1.4313  Tot=              1.8550
 Quadrupole moment (field-independent basis, Debye-Ang):
   XX=            -55.3773   YY=            -52.2458   ZZ=            -53.3183
   XY=             -4.7379   XZ=             -4.6484   YZ=              0.5194

  Exact polarizability:  87.540  -0.857  72.059  -3.303  -0.183  66.713
 Approx polarizability: 115.744   5.125 109.290  -3.875  -2.094 106.995

                      1                      2                      3
                      A                      A                      A
 Frequencies --     81.7955               117.1413               199.6622
 Red. masses --      3.7965                 3.7406                 1.0450
 Frc consts  --      0.0150                 0.0302                 0.0245
 IR Inten    --      2.8682                 0.8949                 0.4450

                      4                      5                      6
                      A                      A                      A
 Frequencies --    213.9156               282.4704               292.5877
 Red. masses --      2.7816                 2.7469                 1.6303
 Frc consts  --      0.0750                 0.1291                 0.0822
 IR Inten    --      3.4243                 2.9086                39.2148

                      7                      8                      9
                      A                      A                      A
 Frequencies --    355.7334               391.7964               431.2151
 Red. masses --      1.6296                 3.1018                 2.6928
 Frc consts  --      0.1215                 0.2805                 0.2950
 IR Inten    --     54.2657                22.0411                 7.2977

                     10                     11                     12
                      A                      A                      A
 Frequencies --    471.1241               553.8212               618.0111
 Red. masses --      3.2696                 4.1895                 3.3398
 Frc consts  --      0.4276                 0.7571                 0.7516
 IR Inten    --      2.9698                13.9702                 3.1155

                     13                     14                     15
                      A                      A                      A
 Frequencies --    692.0328               769.2273               815.9956
 Red. masses --      3.2990                 4.0174                 3.6096
 Frc consts  --      0.9309                 1.4006                 1.4161
 IR Inten    --      5.0019                 7.6979                 6.4985

                     16                     17                     18
                      A                      A                      A
 Frequencies --    862.8463               876.5319               906.2285
 Red. masses --      2.4172                 2.7048                 1.7941
 Frc consts  --      1.0603                 1.2244                 0.8681
 IR Inten    --     21.9790                 7.1378                 6.0440

                     19                     20                     21
                      A                      A                      A
 Frequencies --    922.8261               967.6537               986.9641
 Red. masses --      1.7118                 1.5788                 2.0818
 Frc consts  --      0.8589                 0.8710                 1.1948
 IR Inten    --     12.4718                17.6967                 2.0946

                     22                     23                     24
                      A                      A                      A
 Frequencies --   1002.1935              1022.6131              1050.2824
 Red. masses --      1.4832                 1.6141                 4.1438
 Frc consts  --      0.8777                 0.9945                 2.6931
 IR Inten    --      3.4709                 8.7057                78.8867

                     25                     26                     27
                      A                      A                      A
 Frequencies --   1076.2500              1096.6636              1112.2281
 Red. masses --      2.4146                 1.3307                 1.7648
 Frc consts  --      1.6478                 0.9429                 1.2863
 IR Inten    --     33.4817                 3.5515                 6.7534

                     28                     29                     30
                      A                      A                      A
 Frequencies --   1167.9217              1178.0275              1206.8022
 Red. masses --      1.5779                 1.8214                 1.4099
 Frc consts  --      1.2681                 1.4892                 1.2098
 IR Inten    --     18.2212                12.3020                 2.5923

                     31                     32                     33
                      A                      A                      A
 Frequencies --   1254.9014              1296.6762              1356.4846
 Red. masses --      1.6599                 2.3349                 1.4887
 Frc consts  --      1.5401                 2.3130                 1.6140
 IR Inten    --     25.9298                13.7162                 0.1307

                     34                     35                     36
                      A                      A                      A
 Frequencies --   1380.1438              1407.0314              1428.4691
 Red. masses --      1.7018                 1.2567                 1.3284
 Frc consts  --      1.9098                 1.4659                 1.5971
 IR Inten    --      0.7249                 1.7726                80.8653

                     37                     38                     39
                      A                      A                      A
 Frequencies --   1460.8897              1475.0103              1486.1620
 Red. masses --      1.6456                 1.3521                 1.1740
 Frc consts  --      2.0692                 1.7332                 1.5278
 IR Inten    --     15.4658                 4.2430                 8.5566

                     40                     41                     42
                      A                      A                      A
 Frequencies --   1499.6669              1503.6613              2970.9501
 Red. masses --      1.2569                 1.4865                 1.0698
 Frc consts  --      1.6655                 1.9803                 5.5637
 IR Inten    --      1.8245                 2.8243                56.4567

                     43                     44                     45
                      A                      A                      A
 Frequencies --   3032.7055              3052.5819              3094.2759
 Red. masses --      1.0365                 1.0920                 1.0997
 Frc consts  --      5.6165                 5.9952                 6.2035
 IR Inten    --     23.4098                31.1671                15.6160

                     46                     47                     48
                      A                      A                      A
 Frequencies --   3122.7008              3133.0703              3186.2877
 Red. masses --      1.1008                 1.0553                 1.0944
 Frc consts  --      6.3246                 6.1033                 6.5463
 IR Inten    --     11.6503                16.1292                12.3855

                     49                     50                     51
                      A                      A                      A
 Frequencies --   3194.6788              3230.7474              3808.6730
 Red. masses --      1.0932                 1.1132                 1.0660
 Frc consts  --      6.5737                 6.8460                 9.1106
 IR Inten    --      7.9324                 2.2805                15.2886

 - Thermochemistry -
 -------------------
 Temperature   298.150 Kelvin.  Pressure   1.00000 Atm.
 Atom     1 has atomic number  6 and mass  12.00000

 Molecular mass:   126.06808 amu.
 Principal axes and moments of inertia in atomic units:
                           1         2         3
     Eigenvalues --   517.290101619.781701681.83408
           X            0.99969  -0.01644  -0.01861
           Y            0.01808   0.99560   0.09190
           Z            0.01702  -0.09221   0.99559
 This molecule is an asymmetric top.
 Rotational symmetry number  1.
 Warning -- assumption of classical behavior for rotation
           may cause significant error
 Rotational temperatures (Kelvin)      0.16744     0.05347     0.05150
 Rotational constants (GHZ):           3.48884     1.11419     1.07308
 Zero-point vibrational energy     413299.8 (Joules/Mol)
                                   98.78102 (Kcal/Mol)
 Warning -- explicit consideration of  12 degrees of freedom as
           vibrations may cause significant error
 Vibrational temperatures:    117.69   168.54   287.27   307.78   406.41
          (Kelvin)            420.97   511.82   563.71   620.42   677.84
                              796.82   889.18   995.68  1106.75  1174.03
                             1241.44  1261.13  1303.86  1327.74  1392.24
                             1420.02  1441.93  1471.31  1511.12  1548.48
                             1577.85  1600.25  1680.38  1694.92  1736.32
                             1805.52  1865.63  1951.68  1985.72  2024.40
                             2055.25  2101.89  2122.21  2138.25  2157.68
                             2163.43  4274.53  4363.38  4391.98  4451.97
                             4492.86  4507.78  4584.35  4596.42  4648.32
                             5479.82

 Zero-point correction=                           0.157418 (Hartree/Particle)
 Thermal correction to Energy=                    0.166125
 Thermal correction to Enthalpy=                  0.167070
 Thermal correction to Gibbs Free Energy=         0.124191
 Sum of electronic and zero-point Energies=           -422.949542
 Sum of electronic and thermal Energies=              -422.940834
 Sum of electronic and thermal Enthalpies=            -422.939890
 Sum of electronic and thermal Free Energies=         -422.982768

                     E (Thermal)             CV                S
                      KCal/Mol        Cal/Mol-Kelvin    Cal/Mol-Kelvin
 Total                  104.245             33.536             90.245
 Electronic               0.000              0.000              0.000
 Translational            0.889              2.981             40.409
 Rotational               0.889              2.981             28.734
 Vibrational            102.468             27.574             21.102
 Vibration     1          0.600              1.962              3.847
 Vibration     2          0.608              1.935              3.147
 Vibration     3          0.638              1.840              2.136
 Vibration     4          0.644              1.820              2.010
 Vibration     5          0.682              1.706              1.519
 Vibration     6          0.688              1.688              1.459
 Vibration     7          0.731              1.563              1.141
 Vibration     8          0.759              1.488              0.993
 Vibration     9          0.792              1.402              0.855
 Vibration    10          0.828              1.314              0.734
 Vibration    11          0.909              1.131              0.536
 Vibration    12          0.978              0.994              0.420

 Normal termination of Gaussian 09 at Tue Jan 28 10:27:18 2020.
