 Gaussian 09, Revision D.01,
 Gaussian 09:  ES64L-G09RevD.01 24-Apr-2013

 -----------------------------
 # b3lyp 6-31G(2df,p) opt Freq
 -----------------------------

 -----
 titel
 -----
 Symbolic Z-matrix:
 Charge =  0 Multiplicity = 1

 SCF Done:  E(RB3LYP) =  -423.124425111     A.U. after   14 cycles
 Optimization completed.
    -- Stationary point found.
 Normal termination of Gaussian 09 at Tue Jan 28 12:12:36 2020.

 ----------------------------------------------------------------------
 #N Geom=AllCheck Guess=TCheck SCRF=Check GenChk RB3LYP/6-31G(2df,p) Fr
 eq
 ----------------------------------------------------------------------

 Structure from the checkpoint file:  "/scratch/puck/g09_6d7743c1-9720-45c5-8ab3-2b92634ce4ec/Gau-54400.chk"
 -----
 titel
 -----
 Charge =  0 Multiplicity = 1

                         Standard orientation:
 ---------------------------------------------------------------------
 Center     Atomic      Atomic             Coordinates (Angstroms)
 Number     Number       Type             X           Y           Z
 ---------------------------------------------------------------------
      1          6           0       -2.716416    0.227681    0.424368
      2          6           0       -1.694880   -0.349757   -0.562562
      3          6           0       -0.278693    0.033208   -0.236981
      4          8           0       -0.057064    1.425838   -0.259762
      5          6           0        1.339952    1.553586    0.078107
      6          6           0        1.739369    0.100064    0.251208
      7          6           0        0.963340   -0.723659   -0.820403
      8          8           0        0.757961   -1.831995    0.115977
      9          6           0        0.540558   -0.630767    0.926966
     10          1           0       -3.732820   -0.065651    0.146451
     11          1           0       -2.531373   -0.134214    1.441322
     12          1           0       -2.666416    1.319455    0.442086
     13          1           0       -1.738076   -1.443657   -0.571320
     14          1           0       -1.922910   -0.005246   -1.578449
     15          1           0        1.873575    2.060258   -0.734851
     16          1           0        1.448932    2.148125    0.993140
     17          1           0        2.759785   -0.172140    0.512779
     18          1           0        1.233584   -0.961207   -1.849637
     19          1           0        0.309174   -0.758607    1.984544
 ---------------------------------------------------------------------

 SCF Done:  E(RB3LYP) =  -423.124425111     A.U. after    1 cycles

 The electronic state is 1-A.
 Alpha  occ. eigenvalues --  -19.14434 -19.13617 -10.24313 -10.24295 -10.24276
 Alpha  occ. eigenvalues --  -10.23444 -10.20295 -10.18272 -10.17248  -1.07670
 Alpha  occ. eigenvalues --   -1.02896  -0.79001  -0.78412  -0.71137  -0.65800
 Alpha  occ. eigenvalues --   -0.63437  -0.58690  -0.53249  -0.52363  -0.47852
 Alpha  occ. eigenvalues --   -0.47483  -0.45357  -0.42099  -0.41118  -0.39579
 Alpha  occ. eigenvalues --   -0.38291  -0.35578  -0.34908  -0.33901  -0.33513
 Alpha  occ. eigenvalues --   -0.33142  -0.31703  -0.24615  -0.23525
 Alpha virt. eigenvalues --    0.07379   0.09635   0.11505   0.11964   0.12502
 Alpha virt. eigenvalues --    0.13774   0.14662   0.15094   0.15870   0.15994
 Alpha virt. eigenvalues --    0.16753   0.17837   0.18954   0.19075   0.20629

 Mulliken charges:
               1
     1  C   -0.383047
     2  C   -0.288413
     3  C    0.476205
     4  O   -0.322099
     5  C   -0.118199
     6  C   -0.092840
     7  C   -0.021999
     8  O   -0.317439
     9  C   -0.013324
    10  H    0.112487
    11  H    0.114121
    12  H    0.134464
    13  H    0.121563
    14  H    0.105910
    15  H    0.110484
    16  H    0.110104
    17  H    0.089167
    18  H    0.091189
    19  H    0.091666
 Sum of Mulliken charges =   0.00000

 Dipole moment (field-independent basis, Debye):
    X=              0.7505    Y=              0.9624    Z=              0.1326  Tot=              1.2276
 Quadrupole moment (field-independent basis, Debye-Ang):
   XX=            -49.9707   YY=            -59.2798   ZZ=            -50.0547
   XY=              3.7415   XZ=             -0.1680   YZ=              1.1850

  Exact polarizability:  82.761   3.389  71.531  -0.271   1.208  68.966
 Approx polarizability: 108.291   2.253 110.885  -0.219   0.124 108.093

                      1                      2                      3
                      A                      A                      A
 Frequencies --     97.1669               163.3799               197.8661
 Red. masses --      2.4524                 3.0357                 1.2071
 Frc consts  --      0.0136                 0.0477                 0.0278
 IR Inten    --      0.0983                 1.3262                 0.4411

                      4                      5                      6
                      A                      A                      A
 Frequencies --    286.2597               310.4214               350.4647
 Red. masses --      2.1830                 2.3675                 3.0174
 Frc consts  --      0.1054                 0.1344                 0.2184
 IR Inten    --      2.8712                 2.6469                 2.6086

                      7                      8                      9
                      A                      A                      A
 Frequencies --    453.2433               527.6465               651.7275
 Red. masses --      3.5179                 4.0121                 3.7745
 Frc consts  --      0.4258                 0.6581                 0.9446
 IR Inten    --      1.9744                 5.3569                 0.9854

                     10                     11                     12
                      A                      A                      A
 Frequencies --    684.5714               724.8555               768.7947
 Red. masses --      3.7262                 4.5452                 2.6929
 Frc consts  --      1.0288                 1.4070                 0.9377
 IR Inten    --      1.0542                 3.7751                 0.3703

                     13                     14                     15
                      A                      A                      A
 Frequencies --    785.3626               832.1633               892.7526
 Red. masses --      1.7402                 3.4414                 2.5762
 Frc consts  --      0.6324                 1.4041                 1.2097
 IR Inten    --      0.5582                17.1663                 6.3800

                     16                     17                     18
                      A                      A                      A
 Frequencies --    907.0627               923.8359               949.8307
 Red. masses --      2.9691                 2.6997                 1.8140
 Frc consts  --      1.4393                 1.3575                 0.9642
 IR Inten    --      3.1964                 3.2409                10.6713

                     19                     20                     21
                      A                      A                      A
 Frequencies --    972.5806               986.2857              1002.3120
 Red. masses --      1.8065                 1.2902                 2.5715
 Frc consts  --      1.0068                 0.7394                 1.5221
 IR Inten    --     18.1667                 5.7767                12.2431

                     22                     23                     24
                      A                      A                      A
 Frequencies --   1029.3159              1068.8803              1096.4769
 Red. masses --      4.1317                 1.6435                 2.8464
 Frc consts  --      2.5791                 1.1063                 2.0162
 IR Inten    --     73.1730                 3.0842                13.8791

                     25                     26                     27
                      A                      A                      A
 Frequencies --   1121.7774              1153.3845              1163.2066
 Red. masses --      2.1111                 1.3348                 1.4690
 Frc consts  --      1.5652                 1.0462                 1.1711
 IR Inten    --      2.6929                 1.6179                10.9490

                     28                     29                     30
                      A                      A                      A
 Frequencies --   1170.5810              1215.9652              1221.4954
 Red. masses --      1.9007                 2.3988                 1.3178
 Frc consts  --      1.5345                 2.0897                 1.1584
 IR Inten    --     14.3969                33.1203                 3.2485

                     31                     32                     33
                      A                      A                      A
 Frequencies --   1260.9342              1295.2728              1310.1456
 Red. masses --      1.6201                 1.4880                 1.9906
 Frc consts  --      1.5177                 1.4709                 2.0131
 IR Inten    --      5.4469                13.2682                 8.8732

                     34                     35                     36
                      A                      A                      A
 Frequencies --   1326.9898              1374.7141              1404.7158
 Red. masses --      1.5666                 1.5834                 2.1591
 Frc consts  --      1.6254                 1.7631                 2.5102
 IR Inten    --      6.8429                 6.8839                 4.9413

                     37                     38                     39
                      A                      A                      A
 Frequencies --   1409.8948              1476.3294              1497.9239
 Red. masses --      1.3126                 1.0786                 1.0392
 Frc consts  --      1.5372                 1.3851                 1.3739
 IR Inten    --      3.4057                 3.2587                 4.8014

                     40                     41                     42
                      A                      A                      A
 Frequencies --   1508.9351              1520.7152              3024.4989
 Red. masses --      1.0709                 1.1014                 1.0564
 Frc consts  --      1.4366                 1.5006                 5.6936
 IR Inten    --      5.7163                 0.4315                64.8834

                     43                     44                     45
                      A                      A                      A
 Frequencies --   3036.5852              3041.2594              3062.8711
 Red. masses --      1.0608                 1.0380                 1.1096
 Frc consts  --      5.7632                 5.6563                 6.1332
 IR Inten    --     12.4695                27.8107                29.3795

                     46                     47                     48
                      A                      A                      A
 Frequencies --   3084.5543              3107.2858              3114.8687
 Red. masses --      1.0975                 1.1012                 1.0897
 Frc consts  --      6.1525                 6.2646                 6.2291
 IR Inten    --      2.9621                30.4449                74.6990

                     49                     50                     51
                      A                      A                      A
 Frequencies --   3119.8725              3124.6976              3152.3737
 Red. masses --      1.0931                 1.1016                 1.0924
 Frc consts  --      6.2686                 6.3373                 6.3958
 IR Inten    --      4.2277                23.5325                21.6714

 - Thermochemistry -
 -------------------
 Temperature   298.150 Kelvin.  Pressure   1.00000 Atm.
 Atom     1 has atomic number  6 and mass  12.00000

 Molecular mass:   126.06808 amu.
 Principal axes and moments of inertia in atomic units:
                           1         2         3
     Eigenvalues --   657.358101058.996351420.21745
           X            0.99915   0.04068  -0.00687
           Y           -0.04054   0.99899   0.01953
           Z            0.00765  -0.01924   0.99979
 This molecule is an asymmetric top.
 Rotational symmetry number  1.
 Warning -- assumption of classical behavior for rotation
           may cause significant error
 Rotational temperatures (Kelvin)      0.13176     0.08179     0.06099
 Rotational constants (GHZ):           2.74545     1.70420     1.27075
 Zero-point vibrational energy     418484.3 (Joules/Mol)
                                  100.02014 (Kcal/Mol)
 Warning -- explicit consideration of   8 degrees of freedom as
           vibrations may cause significant error
 Vibrational temperatures:    139.80   235.07   284.68   411.86   446.63
          (Kelvin)            504.24   652.12   759.16   937.69   984.94
                             1042.90  1106.12  1129.96  1197.30  1284.47
                             1305.06  1329.19  1366.59  1399.32  1419.04
                             1442.10  1480.95  1537.88  1577.58  1613.99
                             1659.46  1673.59  1684.20  1749.50  1757.46
                             1814.20  1863.61  1885.00  1909.24  1977.90
                             2021.07  2028.52  2124.11  2155.18  2171.02
                             2187.97  4351.57  4368.96  4375.69  4406.78
                             4437.98  4470.69  4481.60  4488.80  4495.74
                             4535.56

 Zero-point correction=                           0.159392 (Hartree/Particle)
 Thermal correction to Energy=                    0.167021
 Thermal correction to Enthalpy=                  0.167965
 Thermal correction to Gibbs Free Energy=         0.127343
 Sum of electronic and zero-point Energies=           -422.965033
 Sum of electronic and thermal Energies=              -422.957404
 Sum of electronic and thermal Enthalpies=            -422.956460
 Sum of electronic and thermal Free Energies=         -422.997082

                     E (Thermal)             CV                S
                      KCal/Mol        Cal/Mol-Kelvin    Cal/Mol-Kelvin
 Total                  104.807             30.233             85.496
 Electronic               0.000              0.000              0.000
 Translational            0.889              2.981             40.409
 Rotational               0.889              2.981             28.382
 Vibrational            103.030             24.271             16.705
 Vibration     1          0.603              1.951              3.510
 Vibration     2          0.623              1.887              2.510
 Vibration     3          0.637              1.843              2.153
 Vibration     4          0.684              1.699              1.496
 Vibration     5          0.699              1.654              1.360
 Vibration     6          0.727              1.574              1.164
 Vibration     7          0.812              1.354              0.786
 Vibration     8          0.883              1.189              0.592

 Optimization completed.
    -- Stationary point found.
 Normal termination of Gaussian 09 at Tue Jan 28 13:00:51 2020.
