 Gaussian 09, Revision D.01,
 Gaussian 09:  ES64L-G09RevD.01 24-Apr-2013

 -----------------------------
 # b3lyp 6-31G(2df,p) opt Freq
 -----------------------------

 -----
 titel
 -----
 Symbolic Z-matrix:
 Charge =  0 Multiplicity = 1

 SCF Done:  E(RB3LYP) =  -423.229928273     A.U. after   14 cycles
 Optimization completed.
    -- Stationary point found.
 Normal termination of Gaussian 09 at Mon Jan 27 16:36:14 2020.

 ----------------------------------------------------------------------
 #N Geom=AllCheck Guess=TCheck SCRF=Check GenChk RB3LYP/6-31G(2df,p) Fr
 eq
 ----------------------------------------------------------------------

 Structure from the checkpoint file:  "/scratch/puck/g09_883e10b0-7c3e-441c-a44e-17ebf037f01b/Gau-177651.chk"
 -----
 titel
 -----
 Charge =  0 Multiplicity = 1

                         Standard orientation:
 ---------------------------------------------------------------------
 Center     Atomic      Atomic             Coordinates (Angstroms)
 Number     Number       Type             X           Y           Z
 ---------------------------------------------------------------------
      1          6           0       -0.228441   -0.833978    1.518368
      2          6           0        0.083510   -0.330059    0.109868
      3          6           0        1.319216   -1.058826   -0.482710
      4          6           0        2.433057   -0.058015   -0.312063
      5          6           0        1.971388    1.150458    0.003852
      6          6           0        0.466801    1.177947    0.100799
      7          8           0       -1.031413   -0.638737   -0.784206
      8          6           0       -2.204428   -0.024618   -0.611351
      9          8           0       -2.478952    0.807303    0.211869
     10          1           0       -1.059068   -0.281511    1.959393
     11          1           0       -0.475680   -1.899785    1.495598
     12          1           0        0.656737   -0.700945    2.148079
     13          1           0        1.509054   -2.013290    0.021402
     14          1           0        1.144422   -1.290598   -1.540864
     15          1           0        3.475075   -0.315546   -0.463463
     16          1           0        2.578005    2.037151    0.150095
     17          1           0        0.088534    1.698869    0.984611
     18          1           0        0.027043    1.685289   -0.766765
     19          1           0       -2.907824   -0.405619   -1.369972
 ---------------------------------------------------------------------

 SCF Done:  E(RB3LYP) =  -423.229928273     A.U. after    1 cycles

 The electronic state is 1-A.
 Alpha  occ. eigenvalues --  -19.18433 -19.13049 -10.30609 -10.25497 -10.18839
 Alpha  occ. eigenvalues --  -10.18609 -10.18484 -10.18388 -10.17749  -1.09991
 Alpha  occ. eigenvalues --   -1.01855  -0.85256  -0.75498  -0.71539  -0.67781
 Alpha  occ. eigenvalues --   -0.63323  -0.54927  -0.54039  -0.50636  -0.48967
 Alpha  occ. eigenvalues --   -0.46869  -0.45140  -0.43466  -0.42084  -0.39683
 Alpha  occ. eigenvalues --   -0.38600  -0.38177  -0.36118  -0.35850  -0.35354
 Alpha  occ. eigenvalues --   -0.32388  -0.29807  -0.27383  -0.24677
 Alpha virt. eigenvalues --    0.00934   0.02068   0.09546   0.10470   0.13152
 Alpha virt. eigenvalues --    0.13835   0.15227   0.15646   0.15847   0.16675
 Alpha virt. eigenvalues --    0.16883   0.17473   0.19718   0.20480   0.20747

 Mulliken charges:
               1
     1  C   -0.442769
     2  C    0.419231
     3  C   -0.307334
     4  C   -0.066942
     5  C   -0.066218
     6  C   -0.294005
     7  O   -0.263376
     8  C    0.176090
     9  O   -0.312425
    10  H    0.149058
    11  H    0.118203
    12  H    0.126498
    13  H    0.104488
    14  H    0.120066
    15  H    0.095604
    16  H    0.096072
    17  H    0.120865
    18  H    0.118175
    19  H    0.108719
 Sum of Mulliken charges =   0.00000

 Dipole moment (field-independent basis, Debye):
    X=              1.5636    Y=             -0.9791    Z=             -0.5105  Tot=              1.9142
 Quadrupole moment (field-independent basis, Debye-Ang):
   XX=            -54.5491   YY=            -52.7674   ZZ=            -52.7694
   XY=              3.2671   XZ=              2.7301   YZ=             -0.7744

  Exact polarizability:  88.368  -3.318  77.067   0.485   5.151  63.054
 Approx polarizability: 116.296 -13.362 126.504  -2.481  15.986  97.773

                      1                      2                      3
                      A                      A                      A
 Frequencies --     89.4780               102.5107               184.2012
 Red. masses --      2.8992                 5.2725                 4.9540
 Frc consts  --      0.0137                 0.0326                 0.0990
 IR Inten    --      0.5137                 1.6378                 4.7274

                      4                      5                      6
                      A                      A                      A
 Frequencies --    254.3835               282.3859               297.3023
 Red. masses --      2.2869                 1.0643                 3.4417
 Frc consts  --      0.0872                 0.0500                 0.1792
 IR Inten    --      7.9796                 0.3866                 4.1022

                      7                      8                      9
                      A                      A                      A
 Frequencies --    364.0969               381.3833               418.4421
 Red. masses --      2.3669                 2.2641                 2.1710
 Frc consts  --      0.1849                 0.1940                 0.2240
 IR Inten    --      3.0889                 1.1234                 1.5304

                     10                     11                     12
                      A                      A                      A
 Frequencies --    468.3713               559.7474               692.0092
 Red. masses --      3.3794                 4.1783                 1.2683
 Frc consts  --      0.4368                 0.7713                 0.3578
 IR Inten    --      7.1609                 1.2457                29.8482

                     13                     14                     15
                      A                      A                      A
 Frequencies --    767.2955               778.5373               819.1854
 Red. masses --      5.3722                 3.1124                 6.5140
 Frc consts  --      1.8635                 1.1115                 2.5755
 IR Inten    --      1.6154                 2.4445                 6.8154

                     16                     17                     18
                      A                      A                      A
 Frequencies --    880.1776               926.6346               939.0930
 Red. masses --      2.6250                 1.7198                 1.6277
 Frc consts  --      1.1982                 0.8700                 0.8457
 IR Inten    --     25.5791                 1.8257                 2.3450

                     19                     20                     21
                      A                      A                      A
 Frequencies --    968.7264               980.8447               988.6441
 Red. masses --      1.5323                 1.4966                 2.7930
 Frc consts  --      0.8472                 0.8483                 1.6085
 IR Inten    --      8.5212                 3.9468                 0.2434

                     22                     23                     24
                      A                      A                      A
 Frequencies --   1000.9709              1046.1323              1094.4936
 Red. masses --      1.7449                 1.6582                 1.6865
 Frc consts  --      1.0301                 1.0692                 1.1903
 IR Inten    --      1.4451                 0.2694                 9.9688

                     25                     26                     27
                      A                      A                      A
 Frequencies --   1130.6292              1154.4031              1167.8165
 Red. masses --      1.1237                 1.2859                 1.9574
 Frc consts  --      0.8463                 1.0097                 1.5728
 IR Inten    --      0.3528                 1.2474                58.0104

                     28                     29                     30
                      A                      A                      A
 Frequencies --   1219.2725              1226.3343              1273.8239
 Red. masses --      7.5506                 2.3266                 1.7045
 Frc consts  --      6.6135                 2.0615                 1.6295
 IR Inten    --    349.4416                 2.9201                 6.9879

                     31                     32                     33
                      A                      A                      A
 Frequencies --   1300.6985              1345.4936              1370.9319
 Red. masses --      1.4424                 1.8777                 1.7315
 Frc consts  --      1.4378                 2.0028                 1.9173
 IR Inten    --      4.8047                 8.8510                 0.7082

                     34                     35                     36
                      A                      A                      A
 Frequencies --   1399.8384              1414.4341              1472.8342
 Red. masses --      1.2583                 1.1411                 1.0815
 Frc consts  --      1.4528                 1.3450                 1.3822
 IR Inten    --     15.7119                 2.8910                 4.8536

                     37                     38                     39
                      A                      A                      A
 Frequencies --   1482.4941              1491.5940              1509.1054
 Red. masses --      1.0687                 1.0786                 1.0574
 Frc consts  --      1.3839                 1.4138                 1.4188
 IR Inten    --      2.9504                 0.8710                 3.2929

                     40                     41                     42
                      A                      A                      A
 Frequencies --   1690.4265              1810.8947              3013.0090
 Red. masses --      6.1085                 9.6546                 1.0889
 Frc consts  --     10.2843                18.6540                 5.8243
 IR Inten    --      3.0035               231.4567                80.1989

                     43                     44                     45
                      A                      A                      A
 Frequencies --   3028.0774              3035.3515              3044.9877
 Red. masses --      1.0603                 1.0672                 1.0373
 Frc consts  --      5.7283                 5.7930                 5.6667
 IR Inten    --     26.6096                19.4940                 9.4048

                     46                     47                     48
                      A                      A                      A
 Frequencies --   3062.5460              3086.8593              3112.7597
 Red. masses --      1.1011                 1.0953                 1.1015
 Frc consts  --      6.0849                 6.1490                 6.2880
 IR Inten    --     21.3543                11.6370                17.7788

                     49                     50                     51
                      A                      A                      A
 Frequencies --   3148.1186              3185.9076              3210.8406
 Red. masses --      1.1003                 1.0845                 1.1042
 Frc consts  --      6.4251                 6.4857                 6.7070
 IR Inten    --      6.9368                 5.3392                23.5469

 - Thermochemistry -
 -------------------
 Temperature   298.150 Kelvin.  Pressure   1.00000 Atm.
 Atom     1 has atomic number  6 and mass  12.00000

 Molecular mass:   126.06808 amu.
 Principal axes and moments of inertia in atomic units:
                           1         2         3
     Eigenvalues --   559.072581470.530041574.90071
           X            0.99998   0.00653  -0.00093
           Y           -0.00657   0.99851  -0.05416
           Z            0.00058   0.05416   0.99853
 This molecule is an asymmetric top.
 Rotational symmetry number  1.
 Warning -- assumption of classical behavior for rotation
           may cause significant error
 Rotational temperatures (Kelvin)      0.15492     0.05890     0.05500
 Rotational constants (GHZ):           3.22810     1.22727     1.14594
 Zero-point vibrational energy     416746.2 (Joules/Mol)
                                   99.60474 (Kcal/Mol)
 Warning -- explicit consideration of  11 degrees of freedom as
           vibrations may cause significant error
 Vibrational temperatures:    128.74   147.49   265.02   366.00   406.29
          (Kelvin)            427.75   523.85   548.72   602.04   673.88
                              805.35   995.65  1103.97  1120.14  1178.62
                             1266.38  1333.22  1351.14  1393.78  1411.22
                             1422.44  1440.17  1505.15  1574.73  1626.72
                             1660.93  1680.23  1754.26  1764.42  1832.75
                             1871.41  1935.86  1972.46  2014.05  2035.05
                             2119.08  2132.98  2146.07  2171.26  2432.14
                             2605.47  4335.04  4356.72  4367.19  4381.05
                             4406.32  4441.30  4478.56  4529.43  4583.80
                             4619.68

 Zero-point correction=                           0.158730 (Hartree/Particle)
 Thermal correction to Energy=                    0.167278
 Thermal correction to Enthalpy=                  0.168222
 Thermal correction to Gibbs Free Energy=         0.125603
 Sum of electronic and zero-point Energies=           -423.071198
 Sum of electronic and thermal Energies=              -423.062650
 Sum of electronic and thermal Enthalpies=            -423.061706
 Sum of electronic and thermal Free Energies=         -423.104326

                     E (Thermal)             CV                S
                      KCal/Mol        Cal/Mol-Kelvin    Cal/Mol-Kelvin
 Total                  104.969             32.516             89.700
 Electronic               0.000              0.000              0.000
 Translational            0.889              2.981             40.409
 Rotational               0.889              2.981             28.650
 Vibrational            103.191             26.554             20.642
 Vibration     1          0.602              1.957              3.671
 Vibration     2          0.605              1.947              3.406
 Vibration     3          0.631              1.861              2.285
 Vibration     4          0.665              1.755              1.700
 Vibration     5          0.681              1.706              1.519
 Vibration     6          0.691              1.679              1.432
 Vibration     7          0.738              1.546              1.105
 Vibration     8          0.751              1.510              1.034
 Vibration     9          0.781              1.430              0.897
 Vibration    10          0.826              1.320              0.742
 Vibration    11          0.915              1.118              0.524

 Optimization completed.
    -- Stationary point found.
 Normal termination of Gaussian 09 at Mon Jan 27 17:17:15 2020.
