 Gaussian 09, Revision D.01,
 Gaussian 09:  ES64L-G09RevD.01 24-Apr-2013

 -----------------------------
 # b3lyp 6-31G(2df,p) opt Freq
 -----------------------------

 -----
 titel
 -----
 Symbolic Z-matrix:
 Charge =  0 Multiplicity = 1

 SCF Done:  E(RB3LYP) =  -423.156664424     A.U. after   14 cycles
 SCF Done:  E(RB3LYP) =  -423.156664436     A.U. after    7 cycles
 Optimization completed.
    -- Stationary point found.
 Normal termination of Gaussian 09 at Mon Jan 27 13:22:18 2020.

 ----------------------------------------------------------------------
 #N Geom=AllCheck Guess=TCheck SCRF=Check GenChk RB3LYP/6-31G(2df,p) Fr
 eq
 ----------------------------------------------------------------------

 Structure from the checkpoint file:  "/scratch/puck/g09_69300e1a-3800-4e3f-94c0-b3bd41885e40/Gau-55332.chk"
 -----
 titel
 -----
 Charge =  0 Multiplicity = 1

                         Standard orientation:
 ---------------------------------------------------------------------
 Center     Atomic      Atomic             Coordinates (Angstroms)
 Number     Number       Type             X           Y           Z
 ---------------------------------------------------------------------
      1          8           0       -3.235558   -1.407310   -0.281656
      2          6           0       -2.636772   -0.522391    0.273789
      3          6           0       -1.577450    0.302798   -0.375000
      4          8           0       -1.383815    1.603948    0.196744
      5          6           0       -0.357404    0.644487    0.395336
      6          6           0        0.968419    0.871586   -0.295988
      7          6           0        1.803962   -0.390495   -0.356963
      8          6           0        3.305531   -0.306633   -0.446321
      9          6           0        2.655256   -0.800698    0.821676
     10          1           0       -2.824449   -0.245438    1.335745
     11          1           0       -1.520433    0.240774   -1.460381
     12          1           0       -0.293447    0.270573    1.419346
     13          1           0        0.780212    1.267380   -1.300792
     14          1           0        1.516144    1.649737    0.251605
     15          1           0        1.341437   -1.204205   -0.909859
     16          1           0        3.823210   -1.023286   -1.073695
     17          1           0        3.758566    0.679277   -0.432611
     18          1           0        2.729559   -1.854732    1.064201
     19          1           0        2.674925   -0.145102    1.686570
 ---------------------------------------------------------------------

 SCF Done:  E(RB3LYP) =  -423.156664436     A.U. after    1 cycles

 The electronic state is 1-A.
 Alpha  occ. eigenvalues --  -19.17261 -19.14630 -10.27718 -10.25852 -10.25121
 Alpha  occ. eigenvalues --  -10.20358 -10.20234 -10.19404 -10.19324  -1.09424
 Alpha  occ. eigenvalues --   -1.05207  -0.86881  -0.76215  -0.71855  -0.63033
 Alpha  occ. eigenvalues --   -0.60713  -0.59599  -0.57892  -0.51369  -0.50389
 Alpha  occ. eigenvalues --   -0.48059  -0.46746  -0.45184  -0.42414  -0.40532
 Alpha  occ. eigenvalues --   -0.40148  -0.39918  -0.37200  -0.36303  -0.31444
 Alpha  occ. eigenvalues --   -0.30822  -0.29610  -0.28562  -0.25749
 Alpha virt. eigenvalues --   -0.03701   0.08448   0.09036   0.09748   0.11025
 Alpha virt. eigenvalues --    0.12008   0.12067   0.13439   0.14423   0.15196
 Alpha virt. eigenvalues --    0.16403   0.16651   0.18596   0.21867   0.23066

 Mulliken charges:
               1
     1  O   -0.248798
     2  C    0.149198
     3  C   -0.049254
     4  O   -0.247221
     5  C    0.079478
     6  C   -0.266183
     7  C    0.030254
     8  C   -0.273505
     9  C   -0.258205
    10  H    0.087694
    11  H    0.115216
    12  H    0.103971
    13  H    0.113400
    14  H    0.109884
    15  H    0.092064
    16  H    0.116978
    17  H    0.114672
    18  H    0.117664
    19  H    0.112693
 Sum of Mulliken charges =   0.00000

 Dipole moment (field-independent basis, Debye):
    X=              2.8807    Y=              0.3470    Z=              0.4738  Tot=              2.9399
 Quadrupole moment (field-independent basis, Debye-Ang):
   XX=            -60.7524   YY=            -58.2498   ZZ=            -51.0796
   XY=             -3.3499   XZ=             -1.8882   YZ=             -0.9717

  Exact polarizability:  94.804   6.576  69.705   1.313   1.270  69.036
 Approx polarizability: 118.810  13.413 111.737   7.181   7.273 106.212

                      1                      2                      3
                      A                      A                      A
 Frequencies --     45.9314                73.3232               106.9917
 Red. masses --      4.6301                 2.9443                 3.5989
 Frc consts  --      0.0058                 0.0093                 0.0243
 IR Inten    --      0.9550                 1.2134                 1.0672

                      4                      5                      6
                      A                      A                      A
 Frequencies --    144.1623               234.9978               264.7827
 Red. masses --      3.3920                 2.8130                 2.5488
 Frc consts  --      0.0415                 0.0915                 0.1053
 IR Inten    --      6.7706                 7.9216                 3.3777

                      7                      8                      9
                      A                      A                      A
 Frequencies --    297.3327               393.4568               453.0396
 Red. masses --      3.5173                 2.3205                 2.7963
 Frc consts  --      0.1832                 0.2117                 0.3381
 IR Inten    --      2.5426                10.5632                 1.8869

                     10                     11                     12
                      A                      A                      A
 Frequencies --    463.9491               517.4582               776.1064
 Red. masses --      4.2661                 5.4550                 1.0992
 Frc consts  --      0.5410                 0.8606                 0.3901
 IR Inten    --     14.1749                 1.5207                 0.3171

                     13                     14                     15
                      A                      A                      A
 Frequencies --    800.7770               820.1602               844.0146
 Red. masses --      2.8002                 1.4136                 2.1302
 Frc consts  --      1.0579                 0.5602                 0.8941
 IR Inten    --      4.3517                 7.2840                13.8752

                     16                     17                     18
                      A                      A                      A
 Frequencies --    879.7146               908.3402               944.4988
 Red. masses --      4.4225                 1.9089                 3.3369
 Frc consts  --      2.0165                 0.9280                 1.7539
 IR Inten    --     16.9622                22.3894                15.2137

                     19                     20                     21
                      A                      A                      A
 Frequencies --    986.3604              1011.8073              1051.5614
 Red. masses --      1.7409                 1.8419                 1.3216
 Frc consts  --      0.9979                 1.1110                 0.8610
 IR Inten    --      1.0095                11.2338                14.5789

                     22                     23                     24
                      A                      A                      A
 Frequencies --   1067.7353              1076.9708              1081.9953
 Red. masses --      1.7411                 1.9084                 1.4928
 Frc consts  --      1.1695                 1.3042                 1.0297
 IR Inten    --      6.8339                 3.8945                 0.7424

                     25                     26                     27
                      A                      A                      A
 Frequencies --   1125.7911              1140.2530              1162.8381
 Red. masses --      2.0624                 1.1389                 1.9499
 Frc consts  --      1.5401                 0.8724                 1.5535
 IR Inten    --      3.7312                 0.3801                26.4055

                     28                     29                     30
                      A                      A                      A
 Frequencies --   1178.4112              1199.2445              1228.4794
 Red. masses --      1.6238                 1.3960                 1.7166
 Frc consts  --      1.3285                 1.1829                 1.5263
 IR Inten    --      1.2934                 0.4077                 2.6070

                     31                     32                     33
                      A                      A                      A
 Frequencies --   1242.7092              1267.6589              1307.4833
 Red. masses --      1.5534                 1.3538                 1.3003
 Frc consts  --      1.4135                 1.2818                 1.3097
 IR Inten    --      6.2539                 0.8286                18.0146

                     34                     35                     36
                      A                      A                      A
 Frequencies --   1320.2988              1406.1337              1416.0480
 Red. masses --      1.3822                 1.2267                 1.6123
 Frc consts  --      1.4196                 1.4290                 1.9048
 IR Inten    --      8.9598                 0.6423                 1.1093

                     37                     38                     39
                      A                      A                      A
 Frequencies --   1467.7586              1469.7604              1483.3864
 Red. masses --      2.4751                 1.0865                 1.1183
 Frc consts  --      3.1417                 1.3829                 1.4499
 IR Inten    --     27.5937                 2.2968                 2.0613

                     40                     41                     42
                      A                      A                      A
 Frequencies --   1508.1038              1828.5656              2886.2692
 Red. masses --      1.3677                10.3285                 1.0839
 Frc consts  --      1.8327                20.3475                 5.3201
 IR Inten    --      1.0284               205.8954                79.3521

                     43                     44                     45
                      A                      A                      A
 Frequencies --   3023.8746              3065.0381              3095.3421
 Red. masses --      1.0605                 1.0990                 1.0888
 Frc consts  --      5.7133                 6.0830                 6.1461
 IR Inten    --     18.1757                 8.7675                24.6344

                     46                     47                     48
                      A                      A                      A
 Frequencies --   3130.5290              3135.2430              3139.1476
 Red. masses --      1.0513                 1.0602                 1.0875
 Frc consts  --      6.0702                 6.1399                 6.3139
 IR Inten    --     18.3125                14.9375                 3.2740

                     49                     50                     51
                      A                      A                      A
 Frequencies --   3140.4066              3209.6690              3224.6241
 Red. masses --      1.0881                 1.1174                 1.1153
 Frc consts  --      6.3228                 6.7824                 6.8325
 IR Inten    --     14.9514                 0.3409                18.4694

 - Thermochemistry -
 -------------------
 Temperature   298.150 Kelvin.  Pressure   1.00000 Atm.
 Atom     1 has atomic number  8 and mass  15.99491

 Molecular mass:   126.06808 amu.
 Principal axes and moments of inertia in atomic units:
                           1         2         3
     Eigenvalues --   522.409302392.835832677.32618
           X            0.99995  -0.00901  -0.00324
           Y            0.00893   0.99970  -0.02278
           Z            0.00345   0.02275   0.99974
 This molecule is an asymmetric top.
 Rotational symmetry number  1.
 Warning -- assumption of classical behavior for rotation
           may cause significant error
 Rotational temperatures (Kelvin)      0.16580     0.03620     0.03235
 Rotational constants (GHZ):           3.45465     0.75423     0.67408
 Zero-point vibrational energy     413002.0 (Joules/Mol)
                                   98.70984 (Kcal/Mol)
 Warning -- explicit consideration of  11 degrees of freedom as
           vibrations may cause significant error
 Vibrational temperatures:     66.09   105.50   153.94   207.42   338.11
          (Kelvin)            380.96   427.79   566.10   651.82   667.52
                              744.51  1116.64  1152.14  1180.03  1214.35
                             1265.71  1306.90  1358.92  1419.15  1455.76
                             1512.96  1536.23  1549.52  1556.75  1619.76
                             1640.57  1673.06  1695.47  1725.44  1767.51
                             1787.98  1823.88  1881.17  1899.61  2023.11
                             2037.37  2111.77  2114.65  2134.26  2169.82
                             2630.89  4152.69  4350.68  4409.90  4453.50
                             4504.13  4510.91  4516.53  4518.34  4617.99
                             4639.51

 Zero-point correction=                           0.157304 (Hartree/Particle)
 Thermal correction to Energy=                    0.166424
 Thermal correction to Enthalpy=                  0.167368
 Thermal correction to Gibbs Free Energy=         0.122075
 Sum of electronic and zero-point Energies=           -422.999360
 Sum of electronic and thermal Energies=              -422.990240
 Sum of electronic and thermal Enthalpies=            -422.989296
 Sum of electronic and thermal Free Energies=         -423.034589

                     E (Thermal)             CV                S
                      KCal/Mol        Cal/Mol-Kelvin    Cal/Mol-Kelvin
 Total                  104.433             32.849             95.327
 Electronic               0.000              0.000              0.000
 Translational            0.889              2.981             40.409
 Rotational               0.889              2.981             29.594
 Vibrational            102.655             26.887             25.325
 Vibration     1          0.595              1.979              4.985
 Vibration     2          0.599              1.967              4.062
 Vibration     3          0.606              1.944              3.323
 Vibration     4          0.616              1.909              2.748
 Vibration     5          0.655              1.787              1.840
 Vibration     6          0.671              1.738              1.630
 Vibration     7          0.691              1.679              1.432
 Vibration     8          0.761              1.484              0.987
 Vibration     9          0.812              1.354              0.787
 Vibration    10          0.821              1.330              0.755
 Vibration    11          0.872              1.211              0.616

 Normal termination of Gaussian 09 at Mon Jan 27 14:00:19 2020.
