 Gaussian 09, Revision D.01,
 Gaussian 09:  ES64L-G09RevD.01 24-Apr-2013

 -----------------------------
 # b3lyp 6-31G(2df,p) opt Freq
 -----------------------------

 -----
 titel
 -----
 Symbolic Z-matrix:
 Charge =  0 Multiplicity = 1

 SCF Done:  E(RB3LYP) =  -423.150537000     A.U. after   13 cycles
 Optimization completed.
    -- Stationary point found.
 Normal termination of Gaussian 09 at Mon Jan 27 12:04:07 2020.

 ----------------------------------------------------------------------
 #N Geom=AllCheck Guess=TCheck SCRF=Check GenChk RB3LYP/6-31G(2df,p) Fr
 eq
 ----------------------------------------------------------------------

 Structure from the checkpoint file:  "/scratch/puck/g09_95442edb-dbd4-491e-b7f6-7301131e2c8a/Gau-21605.chk"
 -----
 titel
 -----
 Charge =  0 Multiplicity = 1

                         Standard orientation:
 ---------------------------------------------------------------------
 Center     Atomic      Atomic             Coordinates (Angstroms)
 Number     Number       Type             X           Y           Z
 ---------------------------------------------------------------------
      1          6           0        2.460064   -0.227920   -0.032735
      2          8           0        1.579096   -0.209632    1.092422
      3          6           0        1.017192   -0.051986   -0.220929
      4          6           0        0.427170    1.313441   -0.495752
      5          8           0       -0.817235    1.471830    0.166454
      6          6           0       -1.769072    0.477382   -0.099784
      7          6           0       -1.885293   -0.651155    0.890123
      8          6           0       -1.330766   -0.913414   -0.494160
      9          6           0        0.147202   -1.188360   -0.725835
     10          1           0        3.129544    0.627942   -0.116875
     11          1           0        2.915110   -1.192069   -0.259125
     12          1           0        1.077231    2.099312   -0.103662
     13          1           0        0.318161    1.454593   -1.584146
     14          1           0       -2.674722    0.883208   -0.544736
     15          1           0       -1.178774   -0.623909    1.712736
     16          1           0       -2.867008   -1.040664    1.136196
     17          1           0       -1.994059   -1.437253   -1.176022
     18          1           0        0.461818   -2.125945   -0.255428
     19          1           0        0.318838   -1.290731   -1.805518
 ---------------------------------------------------------------------

 SCF Done:  E(RB3LYP) =  -423.150537000     A.U. after    1 cycles

 The electronic state is 1-A.
 Alpha  occ. eigenvalues --  -19.14941 -19.14091 -10.24185 -10.23523 -10.23247
 Alpha  occ. eigenvalues --  -10.23191 -10.19502 -10.19383 -10.17835  -1.07198
 Alpha  occ. eigenvalues --   -1.03531  -0.85183  -0.77327  -0.69433  -0.66510
 Alpha  occ. eigenvalues --   -0.61001  -0.59236  -0.53438  -0.51608  -0.50541
 Alpha  occ. eigenvalues --   -0.47314  -0.46326  -0.44263  -0.42564  -0.40593
 Alpha  occ. eigenvalues --   -0.39154  -0.38153  -0.36088  -0.34028  -0.32708
 Alpha  occ. eigenvalues --   -0.29405  -0.27280  -0.26060  -0.24192
 Alpha virt. eigenvalues --    0.07811   0.09962   0.10500   0.11901   0.11960
 Alpha virt. eigenvalues --    0.12646   0.13858   0.14325   0.15627   0.16006
 Alpha virt. eigenvalues --    0.17360   0.17998   0.19803   0.21230   0.22389

 Mulliken charges:
               1
     1  C   -0.242567
     2  O   -0.270332
     3  C    0.392300
     4  C   -0.129903
     5  O   -0.252993
     6  C    0.101936
     7  C   -0.308696
     8  C   -0.058810
     9  C   -0.299319
    10  H    0.111698
    11  H    0.111161
    12  H    0.112793
    13  H    0.087228
    14  H    0.090001
    15  H    0.139963
    16  H    0.108266
    17  H    0.087739
    18  H    0.113480
    19  H    0.106055
 Sum of Mulliken charges =   0.00000

 Dipole moment (field-independent basis, Debye):
    X=              0.3808    Y=             -0.9926    Z=             -2.4013  Tot=              2.6261
 Quadrupole moment (field-independent basis, Debye-Ang):
   XX=            -48.2917   YY=            -53.9179   ZZ=            -54.8674
   XY=              2.2711   XZ=             -1.8078   YZ=             -0.4562

  Exact polarizability:  89.120   1.821  70.241  -1.778  -0.665  64.409
 Approx polarizability: 115.359   0.324 102.633  -2.029   0.070 104.714

                      1                      2                      3
                      A                      A                      A
 Frequencies --     78.4522               162.1363               277.3001
 Red. masses --      3.6584                 4.3135                 2.9017
 Frc consts  --      0.0133                 0.0668                 0.1315
 IR Inten    --      2.2319                 0.8918                 2.3442

                      4                      5                      6
                      A                      A                      A
 Frequencies --    302.3299               358.7310               387.4442
 Red. masses --      2.5217                 2.2293                 2.5674
 Frc consts  --      0.1358                 0.1690                 0.2271
 IR Inten    --      0.2694                 1.1432                 2.0910

                      7                      8                      9
                      A                      A                      A
 Frequencies --    419.5907               485.4427               536.0545
 Red. masses --      2.9947                 2.9309                 4.7301
 Frc consts  --      0.3106                 0.4069                 0.8008
 IR Inten    --      2.9385                 2.8021                12.1440

                     10                     11                     12
                      A                      A                      A
 Frequencies --    645.7249               756.9361               768.4516
 Red. masses --      3.6909                 2.4678                 3.9071
 Frc consts  --      0.9067                 0.8331                 1.3594
 IR Inten    --      0.9667                 9.9203                18.1490

                     13                     14                     15
                      A                      A                      A
 Frequencies --    809.9480               853.2445               877.4774
 Red. masses --      2.0802                 1.6504                 1.7347
 Frc consts  --      0.8040                 0.7079                 0.7870
 IR Inten    --      9.9103                 5.3521                 3.2909

                     16                     17                     18
                      A                      A                      A
 Frequencies --    890.4656               917.0727               978.8423
 Red. masses --      3.3193                 1.5838                 4.1434
 Frc consts  --      1.5507                 0.7848                 2.3390
 IR Inten    --      5.0734                 5.7434                25.0674

                     19                     20                     21
                      A                      A                      A
 Frequencies --   1002.8193              1028.6365              1051.2020
 Red. masses --      2.1358                 2.6578                 1.5390
 Frc consts  --      1.2655                 1.6569                 1.0020
 IR Inten    --     23.2901                 5.7451                15.5559

                     22                     23                     24
                      A                      A                      A
 Frequencies --   1053.5395              1081.2474              1117.6461
 Red. masses --      1.8071                 2.2115                 1.5759
 Frc consts  --      1.1818                 1.5233                 1.1598
 IR Inten    --      2.3138                16.5560                14.6790

                     25                     26                     27
                      A                      A                      A
 Frequencies --   1128.0229              1129.6944              1169.1329
 Red. masses --      1.2814                 1.2679                 1.3836
 Frc consts  --      0.9607                 0.9533                 1.1142
 IR Inten    --      1.4099                 8.8859                 2.3676

                     28                     29                     30
                      A                      A                      A
 Frequencies --   1190.3759              1232.0734              1243.8977
 Red. masses --      2.0195                 1.6624                 1.6132
 Frc consts  --      1.6860                 1.4868                 1.4706
 IR Inten    --     54.7897                10.9669                23.6657

                     31                     32                     33
                      A                      A                      A
 Frequencies --   1270.9699              1306.2915              1325.8545
 Red. masses --      1.4079                 1.6341                 1.8795
 Frc consts  --      1.3400                 1.6429                 1.9467
 IR Inten    --      0.3654                17.2237                 5.9091

                     34                     35                     36
                      A                      A                      A
 Frequencies --   1360.4888              1383.3692              1414.2681
 Red. masses --      1.3459                 1.5528                 1.5603
 Frc consts  --      1.4677                 1.7508                 1.8387
 IR Inten    --     16.0952                 4.5082                 4.0343

                     37                     38                     39
                      A                      A                      A
 Frequencies --   1447.2511              1470.0974              1484.5193
 Red. masses --      1.9181                 1.1429                 1.1991
 Frc consts  --      2.3671                 1.4552                 1.5569
 IR Inten    --      6.3167                 4.1996                 3.0647

                     40                     41                     42
                      A                      A                      A
 Frequencies --   1487.6104              1532.9718              2967.5691
 Red. masses --      1.2098                 1.4277                 1.0701
 Frc consts  --      1.5774                 1.9768                 5.5524
 IR Inten    --     11.6109                 2.7045                56.3048

                     43                     44                     45
                      A                      A                      A
 Frequencies --   3020.2688              3071.9463              3075.1244
 Red. masses --      1.0633                 1.0986                 1.0509
 Frc consts  --      5.7146                 6.1085                 5.8550
 IR Inten    --     29.8200                17.4788                30.5780

                     46                     47                     48
                      A                      A                      A
 Frequencies --   3101.6702              3124.5099              3134.2780
 Red. masses --      1.0926                 1.0866                 1.0560
 Frc consts  --      6.1932                 6.2503                 6.1121
 IR Inten    --     22.9906                28.4589                10.6382

                     49                     50                     51
                      A                      A                      A
 Frequencies --   3147.9234              3158.9732              3226.7723
 Red. masses --      1.0897                 1.1190                 1.1171
 Frc consts  --      6.3624                 6.5792                 6.8531
 IR Inten    --     26.2707                23.7183                 8.7008

 - Thermochemistry -
 -------------------
 Temperature   298.150 Kelvin.  Pressure   1.00000 Atm.
 Atom     1 has atomic number  6 and mass  12.00000

 Molecular mass:   126.06808 amu.
 Principal axes and moments of inertia in atomic units:
                           1         2         3
     Eigenvalues --   585.932501193.952031396.04751
           X            0.99958   0.02340  -0.01714
           Y           -0.02354   0.99969  -0.00809
           Z            0.01695   0.00849   0.99982
 This molecule is an asymmetric top.
 Rotational symmetry number  1.
 Warning -- assumption of classical behavior for rotation
           may cause significant error
 Rotational temperatures (Kelvin)      0.14782     0.07254     0.06204
 Rotational constants (GHZ):           3.08012     1.51157     1.29275
 Zero-point vibrational energy     421364.6 (Joules/Mol)
                                  100.70856 (Kcal/Mol)
 Warning -- explicit consideration of   9 degrees of freedom as
           vibrations may cause significant error
 Vibrational temperatures:    112.88   233.28   398.97   434.98   516.13
          (Kelvin)            557.45   603.70   698.44   771.26   929.05
                             1089.06  1105.63  1165.33  1227.63  1262.49
                             1281.18  1319.46  1408.33  1442.83  1479.98
                             1512.44  1515.81  1555.67  1608.04  1622.97
                             1625.38  1682.12  1712.68  1772.68  1789.69
                             1828.64  1879.46  1907.61  1957.44  1990.36
                             2034.81  2082.27  2115.14  2135.89  2140.34
                             2205.60  4269.66  4345.49  4419.84  4424.41
                             4462.61  4495.47  4509.52  4529.15  4545.05
                             4642.60

 Zero-point correction=                           0.160489 (Hartree/Particle)
 Thermal correction to Energy=                    0.168020
 Thermal correction to Enthalpy=                  0.168965
 Thermal correction to Gibbs Free Energy=         0.128498
 Sum of electronic and zero-point Energies=           -422.990048
 Sum of electronic and thermal Energies=              -422.982517
 Sum of electronic and thermal Enthalpies=            -422.981572
 Sum of electronic and thermal Free Energies=         -423.022039

                     E (Thermal)             CV                S
                      KCal/Mol        Cal/Mol-Kelvin    Cal/Mol-Kelvin
 Total                  105.434             30.040             85.169
 Electronic               0.000              0.000              0.000
 Translational            0.889              2.981             40.409
 Rotational               0.889              2.981             28.370
 Vibrational            103.657             24.079             16.390
 Vibration     1          0.600              1.964              3.929
 Vibration     2          0.622              1.889              2.525
 Vibration     3          0.678              1.715              1.550
 Vibration     4          0.694              1.669              1.404
 Vibration     5          0.734              1.557              1.128
 Vibration     6          0.756              1.497              1.010
 Vibration     7          0.782              1.428              0.893
 Vibration     8          0.842              1.282              0.696
 Vibration     9          0.891              1.170              0.574

 Optimization completed.
    -- Stationary point found.
 Normal termination of Gaussian 09 at Mon Jan 27 12:46:53 2020.
