 Gaussian 09, Revision D.01,
 Gaussian 09:  ES64L-G09RevD.01 24-Apr-2013

 -----------------------------
 # b3lyp 6-31G(2df,p) opt Freq
 -----------------------------

 -----
 titel
 -----
 Symbolic Z-matrix:
 Charge =  0 Multiplicity = 1

 SCF Done:  E(RB3LYP) =  -423.164217972     A.U. after   13 cycles
 Optimization completed.
    -- Stationary point found.
 Normal termination of Gaussian 09 at Tue Jan 28 00:06:11 2020.

 ----------------------------------------------------------------------
 #N Geom=AllCheck Guess=TCheck SCRF=Check GenChk RB3LYP/6-31G(2df,p) Fr
 eq
 ----------------------------------------------------------------------

 Structure from the checkpoint file:  "/scratch/puck/g09_f6212a9f-7bd6-4f48-b2ee-cbd4afca6a08/Gau-2902.chk"
 -----
 titel
 -----
 Charge =  0 Multiplicity = 1

                         Standard orientation:
 ---------------------------------------------------------------------
 Center     Atomic      Atomic             Coordinates (Angstroms)
 Number     Number       Type             X           Y           Z
 ---------------------------------------------------------------------
      1          6           0        2.515735   -0.108860   -0.279872
      2          6           0        1.040651   -0.118656   -0.000388
      3          6           0        0.131965   -1.243590   -0.461754
      4          6           0       -1.279879   -0.932670   -0.925863
      5          8           0       -1.857931   -0.130940    0.121075
      6          6           0       -0.819169    0.170784    1.060402
      7          6           0        0.229233   -0.951680    1.007142
      8          6           0        0.208342    1.119570    0.376422
      9          8           0       -0.285381    1.983380   -0.612655
     10          1           0        2.726718    0.357006   -1.249053
     11          1           0        3.057547    0.457964    0.485851
     12          1           0        2.928540   -1.123106   -0.301550
     13          1           0        0.627575   -2.122625   -0.858826
     14          1           0       -1.306950   -0.380070   -1.873154
     15          1           0       -1.876273   -1.846360   -1.039516
     16          1           0       -1.280902    0.473000    1.998692
     17          1           0        0.534630   -1.636864    1.785796
     18          1           0        0.761793    1.709738    1.117423
     19          1           0       -1.187461    1.682403   -0.789558
 ---------------------------------------------------------------------

 SCF Done:  E(RB3LYP) =  -423.164217972     A.U. after    1 cycles

 The electronic state is 1-A.
 Alpha  occ. eigenvalues --  -19.14687 -19.12572 -10.23489 -10.23223 -10.22696
 Alpha  occ. eigenvalues --  -10.20096 -10.19985 -10.19447 -10.18193  -1.04947
 Alpha  occ. eigenvalues --   -1.00483  -0.89205  -0.75432  -0.72716  -0.66591
 Alpha  occ. eigenvalues --   -0.61125  -0.58322  -0.55270  -0.51476  -0.47698
 Alpha  occ. eigenvalues --   -0.46338  -0.45264  -0.42569  -0.42071  -0.40709
 Alpha  occ. eigenvalues --   -0.39707  -0.39058  -0.36526  -0.33135  -0.32472
 Alpha  occ. eigenvalues --   -0.29934  -0.26838  -0.25125  -0.24824
 Alpha virt. eigenvalues --    0.08740   0.09576   0.10436   0.11856   0.13051
 Alpha virt. eigenvalues --    0.13333   0.14303   0.14961   0.16106   0.16784
 Alpha virt. eigenvalues --    0.17743   0.17989   0.19386   0.20525   0.21202

 Mulliken charges:
               1
     1  C   -0.514167
     2  C    0.298545
     3  C   -0.123790
     4  C   -0.119738
     5  O   -0.283805
     6  C    0.022733
     7  C   -0.137114
     8  C    0.094764
     9  O   -0.454627
    10  H    0.132762
    11  H    0.120099
    12  H    0.116267
    13  H    0.091903
    14  H    0.105626
    15  H    0.108179
    16  H    0.083888
    17  H    0.091922
    18  H    0.076233
    19  H    0.290320
 Sum of Mulliken charges =   0.00000

 Dipole moment (field-independent basis, Debye):
    X=              0.8981    Y=             -1.9493    Z=              0.4532  Tot=              2.1936
 Quadrupole moment (field-independent basis, Debye-Ang):
   XX=            -54.1181   YY=            -55.3282   ZZ=            -50.6292
   XY=             -1.0797   XZ=              1.5377   YZ=              2.5290

  Exact polarizability:  78.695   1.824  72.588   1.648   2.276  70.331
 Approx polarizability: 109.536   2.918 107.902   1.799   0.801 109.593

                      1                      2                      3
                      A                      A                      A
 Frequencies --    162.5451               192.1812               219.5681
 Red. masses --      3.8657                 1.1738                 2.4893
 Frc consts  --      0.0602                 0.0255                 0.0707
 IR Inten    --      3.9817                 0.2069                 2.7881

                      4                      5                      6
                      A                      A                      A
 Frequencies --    252.5367               279.1954               332.6098
 Red. masses --      2.8148                 3.9591                 2.6011
 Frc consts  --      0.1058                 0.1818                 0.1695
 IR Inten    --      1.3099                10.0563                 0.1879

                      7                      8                      9
                      A                      A                      A
 Frequencies --    466.3182               497.0468               587.7826
 Red. masses --      1.0732                 3.5740                 3.8987
 Frc consts  --      0.1375                 0.5202                 0.7936
 IR Inten    --     59.2511                 1.4515                 0.8993

                     10                     11                     12
                      A                      A                      A
 Frequencies --    630.4511               690.2056               740.6479
 Red. masses --      4.0782                 4.3096                 3.1845
 Frc consts  --      0.9550                 1.2096                 1.0292
 IR Inten    --      1.9828                 5.4661                 3.4171

                     13                     14                     15
                      A                      A                      A
 Frequencies --    799.7749               823.0118               844.6231
 Red. masses --      3.8938                 3.7208                 2.7954
 Frc consts  --      1.4674                 1.4849                 1.1750
 IR Inten    --      1.6020                24.6848                15.8345

                     16                     17                     18
                      A                      A                      A
 Frequencies --    885.0906               912.0740               933.2723
 Red. masses --      1.6717                 1.5616                 2.6474
 Frc consts  --      0.7716                 0.7654                 1.3586
 IR Inten    --      7.6686                 4.4096                 6.4991

                     19                     20                     21
                      A                      A                      A
 Frequencies --    965.5599               993.9310              1021.8504
 Red. masses --      1.9250                 1.7873                 1.8431
 Frc consts  --      1.0574                 1.0403                 1.1339
 IR Inten    --      6.8554                 5.5403                18.3477

                     22                     23                     24
                      A                      A                      A
 Frequencies --   1036.3571              1055.9069              1099.7827
 Red. masses --      1.8214                 3.2920                 1.9314
 Frc consts  --      1.1526                 2.1625                 1.3764
 IR Inten    --     15.1127                54.6515                57.9522

                     25                     26                     27
                      A                      A                      A
 Frequencies --   1110.1972              1134.2009              1184.1234
 Red. masses --      1.8628                 3.0671                 2.1463
 Frc consts  --      1.3528                 2.3247                 1.7731
 IR Inten    --     28.3432                72.2121                 2.2558

                     28                     29                     30
                      A                      A                      A
 Frequencies --   1204.0639              1226.9383              1244.1547
 Red. masses --      1.5859                 1.1134                 1.9556
 Frc consts  --      1.3547                 0.9876                 1.7835
 IR Inten    --      1.2814                 1.8741                 4.2362

                     31                     32                     33
                      A                      A                      A
 Frequencies --   1273.2612              1282.4444              1319.6690
 Red. masses --      1.6349                 1.6748                 1.4029
 Frc consts  --      1.5616                 1.6229                 1.4395
 IR Inten    --      8.7955                16.2350                 5.1413

                     34                     35                     36
                      A                      A                      A
 Frequencies --   1333.6781              1377.8564              1414.1264
 Red. masses --      1.9698                 1.4871                 1.2495
 Frc consts  --      2.0643                 1.6634                 1.4722
 IR Inten    --      5.5138                13.5052                 1.7212

                     37                     38                     39
                      A                      A                      A
 Frequencies --   1421.5366              1451.6688              1485.9529
 Red. masses --      1.2234                 2.9438                 1.0449
 Frc consts  --      1.4566                 3.6551                 1.3594
 IR Inten    --     76.9437                 2.1370                 4.6005

                     40                     41                     42
                      A                      A                      A
 Frequencies --   1498.1746              1523.9606              3016.6172
 Red. masses --      1.0673                 1.0877                 1.0557
 Frc consts  --      1.4114                 1.4884                 5.6604
 IR Inten    --      6.0702                 0.3341                71.1627

                     43                     44                     45
                      A                      A                      A
 Frequencies --   3023.9489              3033.3767              3052.4215
 Red. masses --      1.0362                 1.0847                 1.1094
 Frc consts  --      5.5826                 5.8805                 6.0900
 IR Inten    --     26.9651                48.3602                32.4605

                     46                     47                     48
                      A                      A                      A
 Frequencies --   3087.3577              3094.1461              3135.5765
 Red. masses --      1.1008                 1.1008                 1.0908
 Frc consts  --      6.1819                 6.2095                 6.3187
 IR Inten    --     20.4684                20.2685                31.0669

                     49                     50                     51
                      A                      A                      A
 Frequencies --   3178.9597              3210.8873              3743.5859
 Red. masses --      1.0896                 1.0958                 1.0649
 Frc consts  --      6.4877                 6.6563                 8.7932
 IR Inten    --      9.2789                 9.8524                40.1251

 - Thermochemistry -
 -------------------
 Temperature   298.150 Kelvin.  Pressure   1.00000 Atm.
 Atom     1 has atomic number  6 and mass  12.00000

 Molecular mass:   126.06808 amu.
 Principal axes and moments of inertia in atomic units:
                           1         2         3
     Eigenvalues --   717.57645 975.468091238.53989
           X            0.99993  -0.00839   0.00807
           Y            0.00803   0.99905   0.04282
           Z           -0.00842  -0.04275   0.99905
 This molecule is an asymmetric top.
 Rotational symmetry number  1.
 Warning -- assumption of classical behavior for rotation
           may cause significant error
 Rotational temperatures (Kelvin)      0.12070     0.08879     0.06993
 Rotational constants (GHZ):           2.51505     1.85013     1.45715
 Zero-point vibrational energy     421595.2 (Joules/Mol)
                                  100.76366 (Kcal/Mol)
 Warning -- explicit consideration of   9 degrees of freedom as
           vibrations may cause significant error
 Vibrational temperatures:    233.87   276.51   315.91   363.34   401.70
          (Kelvin)            478.55   670.93   715.14   845.69   907.08
                              993.05  1065.63  1150.70  1184.13  1215.22
                             1273.45  1312.27  1342.77  1389.22  1430.04
                             1470.21  1491.08  1519.21  1582.34  1597.32
                             1631.86  1703.69  1732.38  1765.29  1790.06
                             1831.94  1845.15  1898.71  1918.86  1982.43
                             2034.61  2045.27  2088.63  2137.95  2155.54
                             2192.64  4340.23  4350.78  4364.35  4391.75
                             4442.01  4451.78  4511.39  4573.81  4619.74
                             5386.18

 Zero-point correction=                           0.160577 (Hartree/Particle)
 Thermal correction to Energy=                    0.168217
 Thermal correction to Enthalpy=                  0.169161
 Thermal correction to Gibbs Free Energy=         0.128929
 Sum of electronic and zero-point Energies=           -423.003641
 Sum of electronic and thermal Energies=              -422.996001
 Sum of electronic and thermal Enthalpies=            -422.995057
 Sum of electronic and thermal Free Energies=         -423.035289

                     E (Thermal)             CV                S
                      KCal/Mol        Cal/Mol-Kelvin    Cal/Mol-Kelvin
 Total                  105.558             30.723             84.675
 Electronic               0.000              0.000              0.000
 Translational            0.889              2.981             40.409
 Rotational               0.889              2.981             28.252
 Vibrational            103.780             24.761             16.015
 Vibration     1          0.623              1.888              2.520
 Vibration     2          0.634              1.851              2.207
 Vibration     3          0.647              1.811              1.963
 Vibration     4          0.664              1.759              1.713
 Vibration     5          0.680              1.712              1.539
 Vibration     6          0.715              1.610              1.247
 Vibration     7          0.824              1.325              0.748
 Vibration     8          0.853              1.257              0.666
 Vibration     9          0.945              1.058              0.471

 Normal termination of Gaussian 09 at Tue Jan 28 00:56:03 2020.
