 Gaussian 09, Revision D.01,
 Gaussian 09:  ES64L-G09RevD.01 24-Apr-2013

 -----------------------------
 # b3lyp 6-31G(2df,p) opt Freq
 -----------------------------

 -----
 titel
 -----
 Symbolic Z-matrix:
 Charge =  0 Multiplicity = 1

 SCF Done:  E(RB3LYP) =  -423.139994465     A.U. after   12 cycles
 Optimization completed.
    -- Stationary point found.
 Normal termination of Gaussian 09 at Mon Jan 27 23:47:10 2020.

 ----------------------------------------------------------------------
 #N Geom=AllCheck Guess=TCheck SCRF=Check GenChk RB3LYP/6-31G(2df,p) Fr
 eq
 ----------------------------------------------------------------------

 Structure from the checkpoint file:  "/scratch/puck/g09_83bfc016-f009-4d29-aaea-00cb24e92b30/Gau-104154.chk"
 -----
 titel
 -----
 Charge =  0 Multiplicity = 1

                         Standard orientation:
 ---------------------------------------------------------------------
 Center     Atomic      Atomic             Coordinates (Angstroms)
 Number     Number       Type             X           Y           Z
 ---------------------------------------------------------------------
      1          6           0       -3.125647    0.000001    0.204716
      2          6           0       -1.635396   -0.000003    0.457005
      3          6           0       -0.700376    0.752927   -0.456566
      4          8           0        0.436226    1.334535    0.127858
      5          6           0        1.627777    0.751806   -0.330511
      6          6           0        2.448296   -0.000001    0.684609
      7          6           0        1.627777   -0.751805   -0.330513
      8          8           0        0.436226   -1.334534    0.127859
      9          6           0       -0.700375   -0.752928   -0.456570
     10          1           0       -3.348398   -0.000013   -0.867672
     11          1           0       -3.599581   -0.886371    0.639511
     12          1           0       -3.599572    0.886391    0.639486
     13          1           0       -1.320230   -0.000008    1.496469
     14          1           0       -1.106056    1.301119   -1.305736
     15          1           0        2.123976    1.301126   -1.127992
     16          1           0        3.527672    0.000000    0.579794
     17          1           0        2.072314   -0.000002    1.701117
     18          1           0        2.123973   -1.301124   -1.127995
     19          1           0       -1.106049   -1.301120   -1.305743
 ---------------------------------------------------------------------

 SCF Done:  E(RB3LYP) =  -423.139994465     A.U. after    1 cycles

 The electronic state is 1-A.
 Alpha  occ. eigenvalues --  -19.15139 -19.15139 -10.23543 -10.23517 -10.23232
 Alpha  occ. eigenvalues --  -10.23206 -10.19047 -10.18547 -10.18241  -1.06984
 Alpha  occ. eigenvalues --   -1.02352  -0.87074  -0.81832  -0.70958  -0.65078
 Alpha  occ. eigenvalues --   -0.60473  -0.58192  -0.53631  -0.53110  -0.52517
 Alpha  occ. eigenvalues --   -0.47586  -0.45218  -0.43005  -0.41755  -0.40188
 Alpha  occ. eigenvalues --   -0.39336  -0.38714  -0.36423  -0.35761  -0.29488
 Alpha  occ. eigenvalues --   -0.29065  -0.28732  -0.25271  -0.23499
 Alpha virt. eigenvalues --    0.07933   0.10448   0.10588   0.12135   0.12319
 Alpha virt. eigenvalues --    0.14001   0.15583   0.15607   0.16187   0.16690
 Alpha virt. eigenvalues --    0.16749   0.18210   0.19917   0.22064   0.22362

 Mulliken charges:
               1
     1  C   -0.418368
     2  C   -0.063731
     3  C    0.051451
     4  O   -0.256504
     5  C    0.073050
     6  C   -0.325773
     7  C    0.073049
     8  O   -0.256504
     9  C    0.051449
    10  H    0.115055
    11  H    0.124590
    12  H    0.124590
    13  H    0.104086
    14  H    0.087589
    15  H    0.091229
    16  H    0.113939
    17  H    0.131985
    18  H    0.091229
    19  H    0.087589
 Sum of Mulliken charges =   0.00000

 Dipole moment (field-independent basis, Debye):
    X=             -0.1121    Y=              0.0000    Z=             -1.2957  Tot=              1.3006
 Quadrupole moment (field-independent basis, Debye-Ang):
   XX=            -47.1629   YY=            -57.7172   ZZ=            -50.9451
   XY=              0.0000   XZ=             -0.8124   YZ=              0.0000

  Exact polarizability:  96.946   0.000  64.233   0.234   0.000  65.575
 Approx polarizability: 117.311   0.000 102.637   0.274   0.000 100.425

                      1                      2                      3
                      A                      A                      A
 Frequencies --    119.7950               184.1775               221.8103
 Red. masses --      3.4060                 1.0800                 2.7410
 Frc consts  --      0.0288                 0.0216                 0.0795
 IR Inten    --      1.2399                 0.2004                 1.8619

                      4                      5                      6
                      A                      A                      A
 Frequencies --    280.9826               297.9880               325.2102
 Red. masses --      3.1637                 2.5128                 3.2759
 Frc consts  --      0.1472                 0.1315                 0.2041
 IR Inten    --      1.9015                 0.0051                 7.0076

                      7                      8                      9
                      A                      A                      A
 Frequencies --    443.8154               459.6021               507.6789
 Red. masses --      4.5251                 4.1124                 2.9331
 Frc consts  --      0.5251                 0.5118                 0.4454
 IR Inten    --      1.1841                 1.3487                 0.9815

                     10                     11                     12
                      A                      A                      A
 Frequencies --    577.4014               763.6658               806.5609
 Red. masses --      4.6920                 2.0632                 1.7162
 Frc consts  --      0.9216                 0.7089                 0.6578
 IR Inten    --      0.4999                 5.2129                17.4569

                     13                     14                     15
                      A                      A                      A
 Frequencies --    824.4137               830.3167               856.1749
 Red. masses --      2.0321                 2.4152                 5.1834
 Frc consts  --      0.8138                 0.9811                 2.2387
 IR Inten    --      2.7768                 0.7234                23.4556

                     16                     17                     18
                      A                      A                      A
 Frequencies --    874.4056               915.2048              1001.1151
 Red. masses --      2.1818                 1.8975                 1.6917
 Frc consts  --      0.9829                 0.9364                 0.9989
 IR Inten    --     25.0905                26.2312                 1.6159

                     19                     20                     21
                      A                      A                      A
 Frequencies --   1003.3711              1036.2681              1064.6109
 Red. masses --      1.9752                 1.3936                 2.7388
 Frc consts  --      1.1716                 0.8817                 1.8289
 IR Inten    --     12.9989                 0.5302                25.9307

                     22                     23                     24
                      A                      A                      A
 Frequencies --   1071.8490              1095.6431              1109.0369
 Red. masses --      1.8219                 1.5418                 1.4708
 Frc consts  --      1.2332                 1.0905                 1.0659
 IR Inten    --     18.3178                 1.4982                 0.0022

                     25                     26                     27
                      A                      A                      A
 Frequencies --   1121.5242              1124.1318              1134.0110
 Red. masses --      3.9502                 1.5267                 1.7357
 Frc consts  --      2.9275                 1.1367                 1.3151
 IR Inten    --     18.8685                 0.7256                 0.0000

                     28                     29                     30
                      A                      A                      A
 Frequencies --   1152.6526              1170.7094              1187.2664
 Red. masses --      1.8596                 2.1313                 4.6194
 Frc consts  --      1.4557                 1.7210                 3.8365
 IR Inten    --     26.1045                34.6234                 0.2604

                     31                     32                     33
                      A                      A                      A
 Frequencies --   1207.1327              1234.7112              1308.0083
 Red. masses --      1.6157                 2.0674                 1.1548
 Frc consts  --      1.3871                 1.8569                 1.1641
 IR Inten    --      1.5133               113.0559                 0.0178

                     34                     35                     36
                      A                      A                      A
 Frequencies --   1312.2328              1382.7159              1382.7249
 Red. masses --      1.2267                 1.5882                 1.3925
 Frc consts  --      1.2446                 1.7890                 1.5686
 IR Inten    --      5.1109                42.8252                 5.1473

                     37                     38                     39
                      A                      A                      A
 Frequencies --   1416.1075              1445.1118              1467.9422
 Red. masses --      1.2453                 1.8617                 1.6564
 Frc consts  --      1.4713                 2.2907                 2.1030
 IR Inten    --      1.6761                27.1729                 4.0039

                     40                     41                     42
                      A                      A                      A
 Frequencies --   1494.0382              1501.6443              3030.1629
 Red. masses --      1.0445                 1.0882                 1.0350
 Frc consts  --      1.3736                 1.4458                 5.5993
 IR Inten    --      2.7489                 6.7072                32.1917

                     43                     44                     45
                      A                      A                      A
 Frequencies --   3095.2953              3097.2034              3103.1625
 Red. masses --      1.1001                 1.1017                 1.0860
 Frc consts  --      6.2102                 6.2265                 6.1614
 IR Inten    --     20.1806                22.9311                 8.7413

                     46                     47                     48
                      A                      A                      A
 Frequencies --   3113.9327              3114.7773              3124.9767
 Red. masses --      1.0910                 1.0872                 1.0875
 Frc consts  --      6.2332                 6.2149                 6.2571
 IR Inten    --     49.6266                25.7911                55.4889

                     49                     50                     51
                      A                      A                      A
 Frequencies --   3140.8639              3161.4534              3235.9737
 Red. masses --      1.0589                 1.0875                 1.1170
 Frc consts  --      6.1544                 6.4039                 6.8918
 IR Inten    --     13.2728                 8.7201                 5.9719

 - Thermochemistry -
 -------------------
 Temperature   298.150 Kelvin.  Pressure   1.00000 Atm.
 Atom     1 has atomic number  6 and mass  12.00000

 Molecular mass:   126.06808 amu.
 Principal axes and moments of inertia in atomic units:
                           1         2         3
     Eigenvalues --   437.191941428.597571652.42615
           X            1.00000   0.00000   0.00005
           Y            0.00000   1.00000   0.00000
           Z           -0.00005   0.00000   1.00000
 This molecule is an asymmetric top.
 Rotational symmetry number  1.
 Warning -- assumption of classical behavior for rotation
           may cause significant error
 Rotational temperatures (Kelvin)      0.19811     0.06063     0.05242
 Rotational constants (GHZ):           4.12803     1.26330     1.09218
 Zero-point vibrational energy     418283.6 (Joules/Mol)
                                   99.97219 (Kcal/Mol)
 Warning -- explicit consideration of  10 degrees of freedom as
           vibrations may cause significant error
 Vibrational temperatures:    172.36   264.99   319.14   404.27   428.74
          (Kelvin)            467.90   638.55   661.26   730.44   830.75
                             1098.74  1160.46  1186.15  1194.64  1231.84
                             1258.07  1316.77  1440.38  1443.63  1490.96
                             1531.74  1542.15  1576.38  1595.65  1613.62
                             1617.37  1631.59  1658.41  1684.39  1708.21
                             1736.79  1776.47  1881.93  1888.01  1989.42
                             1989.43  2037.46  2079.19  2112.04  2149.59
                             2160.53  4359.72  4453.43  4456.18  4464.75
                             4480.25  4481.46  4496.14  4519.00  4548.62
                             4655.84

 Zero-point correction=                           0.159316 (Hartree/Particle)
 Thermal correction to Energy=                    0.167046
 Thermal correction to Enthalpy=                  0.167990
 Thermal correction to Gibbs Free Energy=         0.127386
 Sum of electronic and zero-point Energies=           -422.980679
 Sum of electronic and thermal Energies=              -422.972948
 Sum of electronic and thermal Enthalpies=            -422.972004
 Sum of electronic and thermal Free Energies=         -423.012609

                     E (Thermal)             CV                S
                      KCal/Mol        Cal/Mol-Kelvin    Cal/Mol-Kelvin
 Total                  104.823             30.779             85.460
 Electronic               0.000              0.000              0.000
 Translational            0.889              2.981             40.409
 Rotational               0.889              2.981             28.425
 Vibrational            103.046             24.817             16.626
 Vibration     1          0.609              1.933              3.104
 Vibration     2          0.631              1.861              2.286
 Vibration     3          0.648              1.808              1.944
 Vibration     4          0.681              1.709              1.528
 Vibration     5          0.691              1.677              1.428
 Vibration     6          0.709              1.625              1.284
 Vibration     7          0.803              1.375              0.815
 Vibration     8          0.818              1.340              0.767
 Vibration     9          0.863              1.233              0.639
 Vibration    10          0.934              1.080              0.490

 Optimization completed.
    -- Stationary point found.
 Normal termination of Gaussian 09 at Tue Jan 28 00:30:21 2020.
