 Gaussian 09, Revision D.01,
 Gaussian 09:  ES64L-G09RevD.01 24-Apr-2013

 -----------------------------
 # b3lyp 6-31G(2df,p) opt Freq
 -----------------------------

 -----
 titel
 -----
 Symbolic Z-matrix:
 Charge =  0 Multiplicity = 1

 SCF Done:  E(RB3LYP) =  -423.165222476     A.U. after   14 cycles
 Optimization completed.
    -- Stationary point found.
 Normal termination of Gaussian 09 at Tue Jan 28 02:44:31 2020.

 ----------------------------------------------------------------------
 #N Geom=AllCheck Guess=TCheck SCRF=Check GenChk RB3LYP/6-31G(2df,p) Fr
 eq
 ----------------------------------------------------------------------

 Structure from the checkpoint file:  "/scratch/puck/g09_ec00995b-a394-4b6c-ad6b-0126734f3f4b/Gau-172470.chk"
 -----
 titel
 -----
 Charge =  0 Multiplicity = 1

                         Standard orientation:
 ---------------------------------------------------------------------
 Center     Atomic      Atomic             Coordinates (Angstroms)
 Number     Number       Type             X           Y           Z
 ---------------------------------------------------------------------
      1          6           0       -2.754537   -0.283736    0.103682
      2          6           0       -1.380635   -0.183564   -0.523690
      3          8           0       -0.556686   -1.373704   -0.317472
      4          6           0        0.528753   -0.572322    0.137225
      5          6           0        0.160973    0.174464    1.392862
      6          6           0       -0.298409    0.729551    0.076992
      7          6           0        0.092797    2.081975   -0.437989
      8          6           0        1.892115   -0.799138   -0.352072
      9          8           0        2.845157   -0.130744   -0.016108
     10          1           0       -3.327963    0.626749   -0.100321
     11          1           0       -3.300549   -1.131590   -0.321403
     12          1           0       -2.693893   -0.423660    1.185915
     13          1           0       -1.464644   -0.001650   -1.603579
     14          1           0       -0.522951   -0.314239    2.080021
     15          1           0        0.984567    0.715143    1.847324
     16          1           0        1.135449    2.299231   -0.187193
     17          1           0       -0.010423    2.138973   -1.526738
     18          1           0       -0.530356    2.868895    0.002904
     19          1           0        1.976649   -1.625635   -1.090355
 ---------------------------------------------------------------------

 SCF Done:  E(RB3LYP) =  -423.165222476     A.U. after    1 cycles

 The electronic state is 1-A.
 Alpha  occ. eigenvalues --  -19.14940 -19.13412 -10.26939 -10.25116 -10.24918
 Alpha  occ. eigenvalues --  -10.22144 -10.20272 -10.19275 -10.18774  -1.06575
 Alpha  occ. eigenvalues --   -1.03855  -0.85384  -0.77245  -0.72697  -0.68095
 Alpha  occ. eigenvalues --   -0.64092  -0.57396  -0.52824  -0.50493  -0.48813
 Alpha  occ. eigenvalues --   -0.46161  -0.44756  -0.43389  -0.41794  -0.41381
 Alpha  occ. eigenvalues --   -0.40605  -0.39347  -0.38540  -0.37572  -0.34499
 Alpha  occ. eigenvalues --   -0.32486  -0.28844  -0.25008  -0.24232
 Alpha virt. eigenvalues --   -0.03235   0.07778   0.09219   0.11137   0.12018
 Alpha virt. eigenvalues --    0.12540   0.13439   0.14220   0.15213   0.16109
 Alpha virt. eigenvalues --    0.17150   0.17848   0.18924   0.20691   0.21768

 Mulliken charges:
               1
     1  C   -0.412700
     2  C    0.098549
     3  O   -0.342249
     4  C    0.320373
     5  C   -0.381906
     6  C    0.202138
     7  C   -0.497167
     8  C    0.064902
     9  O   -0.280294
    10  H    0.123215
    11  H    0.134489
    12  H    0.125409
    13  H    0.086941
    14  H    0.122978
    15  H    0.144731
    16  H    0.151007
    17  H    0.123538
    18  H    0.128243
    19  H    0.087804
 Sum of Mulliken charges =   0.00000

 Dipole moment (field-independent basis, Debye):
    X=             -2.7560    Y=              1.1936    Z=             -0.1598  Tot=              3.0077
 Quadrupole moment (field-independent basis, Debye-Ang):
   XX=            -59.6389   YY=            -53.7376   ZZ=            -50.9596
   XY=             -2.0428   XZ=             -0.1802   YZ=             -0.2856

  Exact polarizability:  92.780  -2.474  72.990   0.012   2.780  68.259
 Approx polarizability: 132.110  -3.110 110.947   2.496   6.186 104.004

                      1                      2                      3
                      A                      A                      A
 Frequencies --    101.8455               136.2644               179.9099
 Red. masses --      5.1222                 3.9641                 1.1545
 Frc consts  --      0.0313                 0.0434                 0.0220
 IR Inten    --      3.6333                 1.7287                 1.5393

                      4                      5                      6
                      A                      A                      A
 Frequencies --    190.6383               202.2075               218.5682
 Red. masses --      1.8581                 2.1031                 1.1898
 Frc consts  --      0.0398                 0.0507                 0.0335
 IR Inten    --      7.3942                 1.2644                 0.9069

                      7                      8                      9
                      A                      A                      A
 Frequencies --    287.4982               318.9379               363.9923
 Red. masses --      2.7884                 2.7148                 3.7979
 Frc consts  --      0.1358                 0.1627                 0.2965
 IR Inten    --      6.0955                 2.7255                 0.7399

                     10                     11                     12
                      A                      A                      A
 Frequencies --    467.7238               525.5144               554.9415
 Red. masses --      2.6842                 3.5769                 3.1247
 Frc consts  --      0.3460                 0.5820                 0.5670
 IR Inten    --      5.8716                 4.0221                 2.3848

                     13                     14                     15
                      A                      A                      A
 Frequencies --    650.2062               716.6043               735.5265
 Red. masses --      3.6063                 3.8134                 4.2943
 Frc consts  --      0.8983                 1.1538                 1.3688
 IR Inten    --      1.6479                 1.9846                 9.1085

                     16                     17                     18
                      A                      A                      A
 Frequencies --    800.5840               871.7896               910.6412
 Red. masses --      3.4683                 2.7048                 1.8907
 Frc consts  --      1.3097                 1.2112                 0.9238
 IR Inten    --     21.0579                36.2421                10.8555

                     19                     20                     21
                      A                      A                      A
 Frequencies --    964.1573               976.9442              1043.1913
 Red. masses --      1.6458                 1.3109                 1.7758
 Frc consts  --      0.9014                 0.7372                 1.1386
 IR Inten    --     38.7127                 6.2003                 2.7775

                     22                     23                     24
                      A                      A                      A
 Frequencies --   1057.3677              1064.6915              1089.2076
 Red. masses --      1.4223                 1.4749                 2.3194
 Frc consts  --      0.9369                 0.9851                 1.6212
 IR Inten    --      7.7815                11.4940                49.7988

                     25                     26                     27
                      A                      A                      A
 Frequencies --   1099.3114              1136.6436              1156.4098
 Red. masses --      1.6964                 2.5342                 3.2849
 Frc consts  --      1.2079                 1.9290                 2.5882
 IR Inten    --      0.9638                38.1949                78.6305

                     28                     29                     30
                      A                      A                      A
 Frequencies --   1230.9304              1264.3907              1324.9087
 Red. masses --      2.3490                 2.0033                 2.1892
 Frc consts  --      2.0970                 1.8870                 2.2642
 IR Inten    --     14.8762                13.5572                 5.8882

                     31                     32                     33
                      A                      A                      A
 Frequencies --   1368.1395              1395.4418              1411.0185
 Red. masses --      1.6038                 1.3030                 1.3006
 Frc consts  --      1.7687                 1.4949                 1.5257
 IR Inten    --      3.6791                 7.1284                21.1336

                     34                     35                     36
                      A                      A                      A
 Frequencies --   1414.7605              1428.9939              1479.7697
 Red. masses --      1.3925                 1.5156                 1.5440
 Frc consts  --      1.6422                 1.8234                 1.9920
 IR Inten    --      9.9963                20.9889                29.6872

                     37                     38                     39
                      A                      A                      A
 Frequencies --   1484.6468              1490.1535              1494.4513
 Red. masses --      1.1033                 1.0624                 1.0627
 Frc consts  --      1.4328                 1.3900                 1.3984
 IR Inten    --      9.3900                 7.7611                 3.0456

                     40                     41                     42
                      A                      A                      A
 Frequencies --   1495.7928              1787.5068              2903.3843
 Red. masses --      1.0974                 9.8828                 1.0834
 Frc consts  --      1.4466                18.6048                 5.3808
 IR Inten    --      7.9471               168.0919               106.6323

                     43                     44                     45
                      A                      A                      A
 Frequencies --   3014.8142              3027.3950              3041.5567
 Red. masses --      1.0841                 1.0371                 1.0359
 Frc consts  --      5.8058                 5.6004                 5.6463
 IR Inten    --     33.1504                29.9724                13.7486

                     46                     47                     48
                      A                      A                      A
 Frequencies --   3088.8185              3109.8291              3110.3402
 Red. masses --      1.1002                 1.1003                 1.1006
 Frc consts  --      6.1846                 6.2694                 6.2730
 IR Inten    --     17.1343                 8.7047                14.3249

                     49                     50                     51
                      A                      A                      A
 Frequencies --   3123.9470              3127.2760              3224.1131
 Red. masses --      1.0797                 1.0748                 1.1161
 Frc consts  --      6.2083                 6.1929                 6.8354
 IR Inten    --      5.5858                24.1603                 2.6589

 - Thermochemistry -
 -------------------
 Temperature   298.150 Kelvin.  Pressure   1.00000 Atm.
 Atom     1 has atomic number  6 and mass  12.00000

 Molecular mass:   126.06808 amu.
 Principal axes and moments of inertia in atomic units:
                           1         2         3
     Eigenvalues --   618.720591364.031771640.80002
           X            0.99998   0.00562  -0.00386
           Y           -0.00569   0.99981  -0.01840
           Z            0.00375   0.01843   0.99982
 This molecule is an asymmetric top.
 Rotational symmetry number  1.
 Warning -- assumption of classical behavior for rotation
           may cause significant error
 Rotational temperatures (Kelvin)      0.13999     0.06350     0.05279
 Rotational constants (GHZ):           2.91689     1.32309     1.09992
 Zero-point vibrational energy     410700.1 (Joules/Mol)
                                   98.15968 (Kcal/Mol)
 Warning -- explicit consideration of  12 degrees of freedom as
           vibrations may cause significant error
 Vibrational temperatures:    146.53   196.05   258.85   274.29   290.93
          (Kelvin)            314.47   413.65   458.88   523.70   672.95
                              756.10   798.44   935.50  1031.03  1058.26
                             1151.86  1254.31  1310.21  1387.21  1405.60
                             1500.92  1521.31  1531.85  1567.12  1581.66
                             1635.37  1663.81  1771.03  1819.17  1906.25
                             1968.45  2007.73  2030.14  2035.52  2056.00
                             2129.06  2136.07  2144.00  2150.18  2152.11
                             2571.82  4177.32  4337.64  4355.74  4376.12
                             4444.12  4474.34  4475.08  4494.66  4499.45
                             4638.77

 Zero-point correction=                           0.156427 (Hartree/Particle)
 Thermal correction to Energy=                    0.165633
 Thermal correction to Enthalpy=                  0.166577
 Thermal correction to Gibbs Free Energy=         0.122792
 Sum of electronic and zero-point Energies=           -423.008795
 Sum of electronic and thermal Energies=              -422.999589
 Sum of electronic and thermal Enthalpies=            -422.998645
 Sum of electronic and thermal Free Energies=         -423.042430

                     E (Thermal)             CV                S
                      KCal/Mol        Cal/Mol-Kelvin    Cal/Mol-Kelvin
 Total                  103.936             34.152             92.154
 Electronic               0.000              0.000              0.000
 Translational            0.889              2.981             40.409
 Rotational               0.889              2.981             28.717
 Vibrational            102.159             28.190             23.028
 Vibration     1          0.604              1.948              3.419
 Vibration     2          0.614              1.917              2.856
 Vibration     3          0.629              1.867              2.329
 Vibration     4          0.634              1.853              2.222
 Vibration     5          0.639              1.837              2.113
 Vibration     6          0.646              1.813              1.971
 Vibration     7          0.685              1.697              1.489
 Vibration     8          0.705              1.637              1.316
 Vibration     9          0.738              1.546              1.105
 Vibration    10          0.825              1.322              0.744
 Vibration    11          0.880              1.194              0.597
 Vibration    12          0.910              1.129              0.534

 Optimization completed.
    -- Stationary point found.
 Normal termination of Gaussian 09 at Tue Jan 28 03:18:59 2020.
