 Gaussian 09, Revision D.01,
 Gaussian 09:  ES64L-G09RevD.01 24-Apr-2013

 -----------------------------
 # b3lyp 6-31G(2df,p) opt Freq
 -----------------------------

 -----
 titel
 -----
 Symbolic Z-matrix:
 Charge =  0 Multiplicity = 1

 SCF Done:  E(RB3LYP) =  -423.171105449     A.U. after   14 cycles
 Optimization completed.
    -- Stationary point found.
 Normal termination of Gaussian 09 at Tue Jan 28 03:57:50 2020.

 ----------------------------------------------------------------------
 #N Geom=AllCheck Guess=TCheck SCRF=Check GenChk RB3LYP/6-31G(2df,p) Fr
 eq
 ----------------------------------------------------------------------

 Structure from the checkpoint file:  "/scratch/puck/g09_4188510b-abab-4219-9e63-812dbb693487/Gau-80833.chk"
 -----
 titel
 -----
 Charge =  0 Multiplicity = 1

                         Standard orientation:
 ---------------------------------------------------------------------
 Center     Atomic      Atomic             Coordinates (Angstroms)
 Number     Number       Type             X           Y           Z
 ---------------------------------------------------------------------
      1          8           0        3.027118   -0.728670    0.401653
      2          6           0        1.986389   -0.152849   -0.379097
      3          6           0        1.523070    1.243432    0.110101
      4          6           0       -0.011188    1.256507   -0.082231
      5          6           0       -0.359221   -0.219455   -0.108360
      6          6           0        0.731260   -0.975747   -0.256617
      7          6           0       -1.741340   -0.720880   -0.003830
      8          6           0       -2.906105    0.029534   -0.512580
      9          8           0       -2.627660   -0.009634    0.881298
     10          1           0        3.840675   -0.253583    0.205898
     11          1           0        2.305141   -0.112432   -1.435935
     12          1           0        1.766137    1.299507    1.175851
     13          1           0        2.027681    2.070146   -0.397688
     14          1           0       -0.547169    1.792553    0.706508
     15          1           0       -0.288336    1.734793   -1.031931
     16          1           0        0.750349   -2.058021   -0.319838
     17          1           0       -1.838311   -1.804877    0.057424
     18          1           0       -2.758570    0.994879   -0.994099
     19          1           0       -3.790457   -0.519778   -0.834108
 ---------------------------------------------------------------------

 SCF Done:  E(RB3LYP) =  -423.171105449     A.U. after    1 cycles

 The electronic state is 1-A.
 Alpha  occ. eigenvalues --  -19.15247 -19.13215 -10.24154 -10.23595 -10.23275
 Alpha  occ. eigenvalues --  -10.19072 -10.18609 -10.17966 -10.17774  -1.07094
 Alpha  occ. eigenvalues --   -1.01430  -0.84256  -0.73138  -0.70367  -0.66412
 Alpha  occ. eigenvalues --   -0.62937  -0.57869  -0.53526  -0.51531  -0.50229
 Alpha  occ. eigenvalues --   -0.48921  -0.44049  -0.42987  -0.40361  -0.39622
 Alpha  occ. eigenvalues --   -0.38426  -0.36153  -0.35731  -0.34232  -0.32338
 Alpha  occ. eigenvalues --   -0.32055  -0.27165  -0.26748  -0.23694
 Alpha virt. eigenvalues --    0.00528   0.08340   0.09548   0.11124   0.11743
 Alpha virt. eigenvalues --    0.11945   0.12936   0.14941   0.16046   0.16577
 Alpha virt. eigenvalues --    0.17400   0.19090   0.20052   0.21532   0.22720

 Mulliken charges:
               1
     1  O   -0.436984
     2  C    0.101407
     3  C   -0.254517
     4  C   -0.322680
     5  C    0.362185
     6  C   -0.204886
     7  C   -0.032329
     8  C   -0.186506
     9  O   -0.232846
    10  H    0.281535
    11  H    0.068679
    12  H    0.117449
    13  H    0.089276
    14  H    0.124617
    15  H    0.104284
    16  H    0.096731
    17  H    0.092744
    18  H    0.114655
    19  H    0.117185
 Sum of Mulliken charges =   0.00000

 Dipole moment (field-independent basis, Debye):
    X=              0.6787    Y=              0.8335    Z=             -2.3931  Tot=              2.6234
 Quadrupole moment (field-independent basis, Debye-Ang):
   XX=            -49.1446   YY=            -51.8529   ZZ=            -55.4140
   XY=              4.5967   XZ=              2.3076   YZ=              0.4226

  Exact polarizability: 107.478  -4.594  74.700   1.377  -0.702  56.920
 Approx polarizability: 143.396 -16.662 112.437  -1.938  -0.677  93.180

                      1                      2                      3
                      A                      A                      A
 Frequencies --     64.3192               124.2061               140.7862
 Red. masses --      4.3108                 2.5268                 2.9157
 Frc consts  --      0.0105                 0.0230                 0.0340
 IR Inten    --      1.2417                 0.6348                 3.9102

                      4                      5                      6
                      A                      A                      A
 Frequencies --    174.8468               262.0081               287.0391
 Red. masses --      3.8333                 1.1377                 2.8331
 Frc consts  --      0.0690                 0.0460                 0.1375
 IR Inten    --      3.4759                89.1631                14.1463

                      7                      8                      9
                      A                      A                      A
 Frequencies --    349.5862               421.8020               528.7869
 Red. masses --      4.9110                 3.5054                 3.8240
 Frc consts  --      0.3536                 0.3675                 0.6300
 IR Inten    --      3.1820                 3.1986                 1.9855

                     10                     11                     12
                      A                      A                      A
 Frequencies --    552.3042               598.9532               634.9130
 Red. masses --      2.1326                 2.8436                 2.9173
 Frc consts  --      0.3833                 0.6010                 0.6929
 IR Inten    --     15.1424                 0.6268                 3.7985

                     13                     14                     15
                      A                      A                      A
 Frequencies --    820.9155               836.9088               865.9554
 Red. masses --      4.9658                 2.8117                 1.7229
 Frc consts  --      1.9717                 1.1603                 0.7612
 IR Inten    --     23.2373                 8.9323                 5.0219

                     16                     17                     18
                      A                      A                      A
 Frequencies --    882.1591               890.5930               926.9366
 Red. masses --      2.7913                 1.6407                 2.6889
 Frc consts  --      1.2798                 0.7667                 1.3612
 IR Inten    --      9.0684                 6.1102                14.9266

                     19                     20                     21
                      A                      A                      A
 Frequencies --    968.4069               990.6375              1015.0266
 Red. masses --      2.1580                 1.8990                 1.7769
 Frc consts  --      1.1924                 1.0980                 1.0786
 IR Inten    --      7.6113                 8.4842                18.6887

                     22                     23                     24
                      A                      A                      A
 Frequencies --   1064.6235              1089.0956              1098.5932
 Red. masses --      2.4531                 2.4216                 1.2321
 Frc consts  --      1.6382                 1.6923                 0.8761
 IR Inten    --      6.2322                62.9004                 1.6286

                     25                     26                     27
                      A                      A                      A
 Frequencies --   1151.5736              1167.3278              1175.7442
 Red. masses --      1.4459                 1.3772                 1.4374
 Frc consts  --      1.1297                 1.1057                 1.1708
 IR Inten    --      3.1797                13.3142                17.0562

                     28                     29                     30
                      A                      A                      A
 Frequencies --   1185.5030              1228.9015              1242.0293
 Red. masses --      1.4621                 1.1041                 1.4215
 Frc consts  --      1.2107                 0.9824                 1.2920
 IR Inten    --     23.8165                70.9503                 2.3691

                     31                     32                     33
                      A                      A                      A
 Frequencies --   1267.7734              1290.5310              1295.5234
 Red. masses --      1.7273                 1.4209                 1.3507
 Frc consts  --      1.6357                 1.3942                 1.3357
 IR Inten    --      2.6018                 4.2788                 2.5908

                     34                     35                     36
                      A                      A                      A
 Frequencies --   1344.7934              1362.2154              1412.8958
 Red. masses --      1.4044                 2.4408                 1.7973
 Frc consts  --      1.4965                 2.6686                 2.1139
 IR Inten    --     17.9889                 0.7540                 9.9385

                     37                     38                     39
                      A                      A                      A
 Frequencies --   1432.2657              1485.7400              1501.3672
 Red. masses --      1.6051                 1.0820                 1.1013
 Frc consts  --      1.9400                 1.4072                 1.4627
 IR Inten    --     28.0303                 1.0097                 2.5833

                     40                     41                     42
                      A                      A                      A
 Frequencies --   1522.0581              1714.5343              2933.8745
 Red. masses --      1.2506                 7.6567                 1.0815
 Frc consts  --      1.7069                13.2612                 5.4849
 IR Inten    --      1.7380                 3.8602                66.2028

                     43                     44                     45
                      A                      A                      A
 Frequencies --   3011.5326              3053.1969              3080.2232
 Red. masses --      1.0701                 1.0600                 1.0812
 Frc consts  --      5.7179                 5.8221                 6.0442
 IR Inten    --     27.6039                27.8555                17.6311

                     46                     47                     48
                      A                      A                      A
 Frequencies --   3082.0372              3104.1602              3111.6682
 Red. masses --      1.0585                 1.1057                 1.0886
 Frc consts  --      5.9239                 6.2774                 6.2102
 IR Inten    --     26.9479                32.2448                19.1903

                     49                     50                     51
                      A                      A                      A
 Frequencies --   3169.4497              3198.3542              3820.1849
 Red. masses --      1.1192                 1.0941                 1.0662
 Frc consts  --      6.6241                 6.5944                 9.1680
 IR Inten    --     28.4955                 8.9416                16.5585

 - Thermochemistry -
 -------------------
 Temperature   298.150 Kelvin.  Pressure   1.00000 Atm.
 Atom     1 has atomic number  8 and mass  15.99491

 Molecular mass:   126.06808 amu.
 Principal axes and moments of inertia in atomic units:
                           1         2         3
     Eigenvalues --   405.604371999.689532205.36449
           X            0.99991   0.01064   0.00828
           Y           -0.01067   0.99993   0.00442
           Z           -0.00823  -0.00451   0.99996
 This molecule is an asymmetric top.
 Rotational symmetry number  1.
 Rotational temperatures (Kelvin)      0.21354     0.04331     0.03927
 Rotational constants (GHZ):           4.44951     0.90251     0.81834
 Zero-point vibrational energy     418303.4 (Joules/Mol)
                                   99.97690 (Kcal/Mol)
 Warning -- explicit consideration of  11 degrees of freedom as
           vibrations may cause significant error
 Vibrational temperatures:     92.54   178.70   202.56   251.57   376.97
          (Kelvin)            412.98   502.98   606.88   760.81   794.64
                              861.76   913.50  1181.11  1204.12  1245.92
                             1269.23  1281.36  1333.65  1393.32  1425.30
                             1460.40  1531.75  1566.96  1580.63  1656.86
                             1679.52  1691.63  1705.67  1768.11  1787.00
                             1824.04  1856.78  1863.97  1934.86  1959.92
                             2032.84  2060.71  2137.65  2160.13  2189.90
                             2466.83  4221.19  4332.92  4392.86  4431.75
                             4434.36  4466.19  4476.99  4560.13  4601.71
                             5496.39

 Zero-point correction=                           0.159323 (Hartree/Particle)
 Thermal correction to Energy=                    0.167910
 Thermal correction to Enthalpy=                  0.168854
 Thermal correction to Gibbs Free Energy=         0.125626
 Sum of electronic and zero-point Energies=           -423.011782
 Sum of electronic and thermal Energies=              -423.003195
 Sum of electronic and thermal Enthalpies=            -423.002251
 Sum of electronic and thermal Free Energies=         -423.045480

                     E (Thermal)             CV                S
                      KCal/Mol        Cal/Mol-Kelvin    Cal/Mol-Kelvin
 Total                  105.365             32.141             90.982
 Electronic               0.000              0.000              0.000
 Translational            0.889              2.981             40.409
 Rotational               0.889              2.981             28.971
 Vibrational            103.588             26.179             21.602
 Vibration     1          0.597              1.971              4.320
 Vibration     2          0.610              1.929              3.034
 Vibration     3          0.615              1.913              2.793
 Vibration     4          0.627              1.873              2.383
 Vibration     5          0.669              1.742              1.648
 Vibration     6          0.684              1.698              1.491
 Vibration     7          0.727              1.576              1.168
 Vibration     8          0.784              1.423              0.886
 Vibration     9          0.884              1.186              0.590
 Vibration    10          0.908              1.135              0.539
 Vibration    11          0.957              1.034              0.451

 Optimization completed.
    -- Stationary point found.
 Normal termination of Gaussian 09 at Tue Jan 28 04:35:04 2020.
