 Gaussian 09, Revision D.01,
 Gaussian 09:  ES64L-G09RevD.01 24-Apr-2013

 -----------------------------
 # b3lyp 6-31G(2df,p) opt Freq
 -----------------------------

 -----
 titel
 -----
 Symbolic Z-matrix:
 Charge =  0 Multiplicity = 1

 SCF Done:  E(RB3LYP) =  -423.223469391     A.U. after   14 cycles
 Optimization completed.
    -- Stationary point found.
 Normal termination of Gaussian 09 at Mon Jan 27 22:08:46 2020.

 ----------------------------------------------------------------------
 #N Geom=AllCheck Guess=TCheck SCRF=Check GenChk RB3LYP/6-31G(2df,p) Fr
 eq
 ----------------------------------------------------------------------

 Structure from the checkpoint file:  "/scratch/puck/g09_46f29c9e-55c8-4353-bf25-3c257bf637aa/Gau-51211.chk"
 -----
 titel
 -----
 Charge =  0 Multiplicity = 1

                         Standard orientation:
 ---------------------------------------------------------------------
 Center     Atomic      Atomic             Coordinates (Angstroms)
 Number     Number       Type             X           Y           Z
 ---------------------------------------------------------------------
      1          6           0       -1.384910   -0.424639    1.393496
      2          6           0       -0.984835    0.103817    0.001204
      3          6           0       -2.172827    0.001347   -0.967216
      4          6           0       -0.479199    1.532305    0.118042
      5          6           0        0.854278    1.655448    0.047999
      6          6           0        1.440063    0.315106   -0.130991
      7          8           0        2.577733   -0.067686    0.038882
      8          6           0        0.289795   -0.619166   -0.523599
      9          8           0        0.491828   -1.924323   -0.056323
     10          1           0       -1.699422   -1.468390    1.320739
     11          1           0       -0.546861   -0.375035    2.093442
     12          1           0       -2.211646    0.163862    1.804648
     13          1           0       -2.483904   -1.041707   -1.081690
     14          1           0       -3.032916    0.569315   -0.595829
     15          1           0       -1.914852    0.389042   -1.958116
     16          1           0       -1.171816    2.354517    0.275981
     17          1           0        1.438039    2.558880    0.168174
     18          1           0        0.247689   -0.606440   -1.628086
     19          1           0        1.445012   -1.993284    0.106653
 ---------------------------------------------------------------------

 SCF Done:  E(RB3LYP) =  -423.223469391     A.U. after    1 cycles

 The electronic state is 1-A.
 Alpha  occ. eigenvalues --  -19.13809 -19.13614 -10.26721 -10.23513 -10.21905
 Alpha  occ. eigenvalues --  -10.21356 -10.20068 -10.18557 -10.18159  -1.05104
 Alpha  occ. eigenvalues --   -1.01675  -0.86598  -0.77192  -0.69981  -0.69434
 Alpha  occ. eigenvalues --   -0.63523  -0.56355  -0.54670  -0.49214  -0.49099
 Alpha  occ. eigenvalues --   -0.46639  -0.44201  -0.43851  -0.41433  -0.40625
 Alpha  occ. eigenvalues --   -0.39637  -0.38072  -0.36767  -0.35317  -0.34485
 Alpha  occ. eigenvalues --   -0.34071  -0.28136  -0.27431  -0.24879
 Alpha virt. eigenvalues --   -0.05427   0.04389   0.09001   0.10268   0.12526
 Alpha virt. eigenvalues --    0.13139   0.13941   0.14811   0.15661   0.16654
 Alpha virt. eigenvalues --    0.18324   0.19321   0.19824   0.20296   0.22178

 Mulliken charges:
               1
     1  C   -0.405257
     2  C    0.187752
     3  C   -0.440553
     4  C   -0.054134
     5  C   -0.204819
     6  C    0.338415
     7  O   -0.352508
     8  C    0.010137
     9  O   -0.436514
    10  H    0.137855
    11  H    0.122587
    12  H    0.108196
    13  H    0.133217
    14  H    0.113816
    15  H    0.118129
    16  H    0.116068
    17  H    0.123027
    18  H    0.091656
    19  H    0.292929
 Sum of Mulliken charges =   0.00000

 Dipole moment (field-independent basis, Debye):
    X=             -2.3804    Y=              1.9398    Z=             -0.2020  Tot=              3.0773
 Quadrupole moment (field-independent basis, Debye-Ang):
   XX=            -58.1644   YY=            -52.3378   ZZ=            -52.7985
   XY=             -1.0869   XZ=             -0.4494   YZ=              0.1182

  Exact polarizability:  95.791  -1.699  77.002   0.002   0.442  60.423
 Approx polarizability: 155.468  -8.811 113.952   0.454  -0.015  89.548

                      1                      2                      3
                      A                      A                      A
 Frequencies --     74.6145               190.6279               211.1722
 Red. masses --      5.4188                 3.3458                 1.0355
 Frc consts  --      0.0178                 0.0716                 0.0272
 IR Inten    --      0.5528                 2.3964                 0.3586

                      4                      5                      6
                      A                      A                      A
 Frequencies --    242.2805               261.5460               272.3670
 Red. masses --      1.2206                 3.5453                 3.5885
 Frc consts  --      0.0422                 0.1429                 0.1568
 IR Inten    --      0.8985                 5.0980                14.7757

                      7                      8                      9
                      A                      A                      A
 Frequencies --    315.9133               331.1716               380.5202
 Red. masses --      2.5542                 2.4800                 2.5139
 Frc consts  --      0.1502                 0.1603                 0.2145
 IR Inten    --      2.2738                 0.4596                 3.4384

                     10                     11                     12
                      A                      A                      A
 Frequencies --    421.8197               526.4092               544.6330
 Red. masses --      1.1809                 3.4491                 3.5708
 Frc consts  --      0.1238                 0.5631                 0.6241
 IR Inten    --     66.2118                 5.6767                 3.3764

                     13                     14                     15
                      A                      A                      A
 Frequencies --    572.3732               688.6285               701.6618
 Red. masses --      3.6895                 4.6814                 5.4903
 Frc consts  --      0.7122                 1.3080                 1.5926
 IR Inten    --      2.9647                 6.0304                 3.0234

                     16                     17                     18
                      A                      A                      A
 Frequencies --    797.7772               828.2342               893.6332
 Red. masses --      2.0369                 1.9303                 3.8333
 Frc consts  --      0.7638                 0.7802                 1.8036
 IR Inten    --     16.5239                20.3571                11.6337

                     19                     20                     21
                      A                      A                      A
 Frequencies --    911.1542               956.2718               984.2138
 Red. masses --      2.1693                 1.4663                 1.9231
 Frc consts  --      1.0611                 0.7900                 1.0976
 IR Inten    --      4.8722                 0.5404                 3.3730

                     22                     23                     24
                      A                      A                      A
 Frequencies --   1000.7721              1029.0959              1084.9548
 Red. masses --      1.3111                 1.3932                 1.4067
 Frc consts  --      0.7737                 0.8693                 0.9756
 IR Inten    --      1.4579                 2.2614                40.4872

                     25                     26                     27
                      A                      A                      A
 Frequencies --   1135.1721              1156.7583              1185.9417
 Red. masses --      2.1119                 2.4439                 2.7249
 Frc consts  --      1.6034                 1.9267                 2.2580
 IR Inten    --     77.0383                27.2094                 4.0376

                     28                     29                     30
                      A                      A                      A
 Frequencies --   1233.0917              1243.3515              1281.9243
 Red. masses --      1.8808                 2.5195                 2.0092
 Frc consts  --      1.6850                 2.2948                 1.9454
 IR Inten    --      0.6012                27.9820                14.0554

                     31                     32                     33
                      A                      A                      A
 Frequencies --   1351.3266              1370.8940              1397.0754
 Red. masses --      1.5803                 1.5398                 1.2216
 Frc consts  --      1.7003                 1.7050                 1.4048
 IR Inten    --      5.8883                 9.8931                 6.5585

                     34                     35                     36
                      A                      A                      A
 Frequencies --   1406.2457              1427.4959              1481.1119
 Red. masses --      1.3977                 1.2967                 1.0461
 Frc consts  --      1.6286                 1.5568                 1.3520
 IR Inten    --     47.0763                11.8351                 0.9496

                     37                     38                     39
                      A                      A                      A
 Frequencies --   1483.8792              1500.5943              1506.3378
 Red. masses --      1.0516                 1.0589                 1.0572
 Frc consts  --      1.3643                 1.4048                 1.4133
 IR Inten    --      2.3926                 4.2811                 9.6638

                     40                     41                     42
                      A                      A                      A
 Frequencies --   1631.4115              1809.0129              2937.0788
 Red. masses --      6.6216                12.2738                 1.0799
 Frc consts  --     10.3834                23.6654                 5.4887
 IR Inten    --     20.7478               270.5464                34.0695

                     43                     44                     45
                      A                      A                      A
 Frequencies --   3029.4180              3041.4968              3097.6788
 Red. masses --      1.0350                 1.0359                 1.1014
 Frc consts  --      5.5966                 5.6458                 6.2268
 IR Inten    --     23.1207                19.8609                22.7303

                     46                     47                     48
                      A                      A                      A
 Frequencies --   3107.9568              3113.3346              3130.0090
 Red. masses --      1.1018                 1.1005                 1.1018
 Frc consts  --      6.2705                 6.2848                 6.3599
 IR Inten    --     14.0131                23.0876                14.0511

                     49                     50                     51
                      A                      A                      A
 Frequencies --   3173.7619              3224.9432              3710.0943
 Red. masses --      1.0898                 1.1003                 1.0653
 Frc consts  --      6.4678                 6.7423                 8.6396
 IR Inten    --      8.3501                 5.1209                43.2357

 - Thermochemistry -
 -------------------
 Temperature   298.150 Kelvin.  Pressure   1.00000 Atm.
 Atom     1 has atomic number  6 and mass  12.00000

 Molecular mass:   126.06808 amu.
 Principal axes and moments of inertia in atomic units:
                           1         2         3
     Eigenvalues --   731.565521167.714521499.79384
           X            0.99999   0.00243   0.00227
           Y           -0.00242   0.99998  -0.00581
           Z           -0.00228   0.00581   0.99998
 This molecule is an asymmetric top.
 Rotational symmetry number  1.
 Warning -- assumption of classical behavior for rotation
           may cause significant error
 Rotational temperatures (Kelvin)      0.11840     0.07417     0.05775
 Rotational constants (GHZ):           2.46696     1.54553     1.20333
 Zero-point vibrational energy     415039.8 (Joules/Mol)
                                   99.19690 (Kcal/Mol)
 Warning -- explicit consideration of  13 degrees of freedom as
           vibrations may cause significant error
 Vibrational temperatures:    107.35   274.27   303.83   348.59   376.31
          (Kelvin)            391.87   454.53   476.48   547.48   606.90
                              757.38   783.60   823.52   990.78  1009.53
                             1147.82  1191.64  1285.74  1310.95  1375.86
                             1416.06  1439.89  1480.64  1561.01  1633.26
                             1664.32  1706.30  1774.14  1788.90  1844.40
                             1944.26  1972.41  2010.08  2023.27  2053.85
                             2130.99  2134.97  2159.02  2167.28  2347.23
                             2602.76  4225.80  4358.65  4376.03  4456.86
                             4471.65  4479.39  4503.38  4566.33  4639.97
                             5337.99

 Zero-point correction=                           0.158080 (Hartree/Particle)
 Thermal correction to Energy=                    0.167043
 Thermal correction to Enthalpy=                  0.167988
 Thermal correction to Gibbs Free Energy=         0.124913
 Sum of electronic and zero-point Energies=           -423.065389
 Sum of electronic and thermal Energies=              -423.056426
 Sum of electronic and thermal Enthalpies=            -423.055482
 Sum of electronic and thermal Free Energies=         -423.098556

                     E (Thermal)             CV                S
                      KCal/Mol        Cal/Mol-Kelvin    Cal/Mol-Kelvin
 Total                  104.821             34.389             90.658
 Electronic               0.000              0.000              0.000
 Translational            0.889              2.981             40.409
 Rotational               0.889              2.981             28.640
 Vibrational            103.044             28.428             21.610
 Vibration     1          0.599              1.966              4.028
 Vibration     2          0.634              1.853              2.222
 Vibration     3          0.643              1.824              2.034
 Vibration     4          0.658              1.776              1.786
 Vibration     5          0.669              1.743              1.651
 Vibration     6          0.675              1.724              1.581
 Vibration     7          0.703              1.643              1.331
 Vibration     8          0.714              1.613              1.254
 Vibration     9          0.750              1.512              1.037
 Vibration    10          0.784              1.423              0.886
 Vibration    11          0.881              1.192              0.595
 Vibration    12          0.900              1.151              0.555
 Vibration    13          0.929              1.091              0.500

 Optimization completed.
    -- Stationary point found.
 Normal termination of Gaussian 09 at Mon Jan 27 23:50:57 2020.
