 Gaussian 09, Revision D.01,
 Gaussian 09:  ES64L-G09RevD.01 24-Apr-2013

 -----------------------------
 # b3lyp 6-31G(2df,p) opt Freq
 -----------------------------

 -----
 titel
 -----
 Symbolic Z-matrix:
 Charge =  0 Multiplicity = 1

 SCF Done:  E(RB3LYP) =  -423.184231909     A.U. after   14 cycles
 Optimization completed.
    -- Stationary point found.
 Normal termination of Gaussian 09 at Mon Jan 27 17:08:50 2020.

 ----------------------------------------------------------------------
 #N Geom=AllCheck Guess=TCheck SCRF=Check GenChk RB3LYP/6-31G(2df,p) Fr
 eq
 ----------------------------------------------------------------------

 Structure from the checkpoint file:  "/scratch/puck/g09_6cd2c731-105c-4506-bc25-267182c6a60b/Gau-65983.chk"
 -----
 titel
 -----
 Charge =  0 Multiplicity = 1

                         Standard orientation:
 ---------------------------------------------------------------------
 Center     Atomic      Atomic             Coordinates (Angstroms)
 Number     Number       Type             X           Y           Z
 ---------------------------------------------------------------------
      1          8           0        2.614193   -0.832336    0.097112
      2          6           0        1.362082   -0.231135    0.026785
      3          6           0        1.204164    1.040905   -0.839202
      4          6           0       -0.082638    1.213581    0.018620
      5          6           0        0.735380    0.600799    1.192177
      6          6           0       -0.941216    0.016683   -0.491580
      7          6           0        0.162737   -1.093740   -0.429807
      8          6           0       -2.155096   -0.273651    0.353553
      9          8           0       -3.291984   -0.225799   -0.042915
     10          1           0        2.536462   -1.650325    0.599994
     11          1           0        1.963927    1.789421   -0.605906
     12          1           0        1.098290    0.921269   -1.921015
     13          1           0       -0.584985    2.174922    0.107597
     14          1           0        1.451363    1.311570    1.609107
     15          1           0        0.212168    0.075452    1.995709
     16          1           0       -1.292570    0.194044   -1.511064
     17          1           0       -0.070983   -1.882315    0.296168
     18          1           0        0.332707   -1.565315   -1.400642
     19          1           0       -1.936532   -0.544295    1.413191
 ---------------------------------------------------------------------

 SCF Done:  E(RB3LYP) =  -423.184231909     A.U. after    1 cycles

 The electronic state is 1-A.
 Alpha  occ. eigenvalues --  -19.15001 -19.13769 -10.26820 -10.24973 -10.20852
 Alpha  occ. eigenvalues --  -10.20147 -10.19735 -10.18987 -10.18934  -1.04439
 Alpha  occ. eigenvalues --   -1.03680  -0.89722  -0.75663  -0.70153  -0.67411
 Alpha  occ. eigenvalues --   -0.61331  -0.56989  -0.55069  -0.53363  -0.48508
 Alpha  occ. eigenvalues --   -0.46719  -0.45958  -0.42809  -0.41700  -0.39641
 Alpha  occ. eigenvalues --   -0.38132  -0.37368  -0.36325  -0.35827  -0.33203
 Alpha  occ. eigenvalues --   -0.32884  -0.30956  -0.26832  -0.24601
 Alpha virt. eigenvalues --   -0.02330   0.06518   0.08806   0.10614   0.11916
 Alpha virt. eigenvalues --    0.13307   0.13676   0.14734   0.16062   0.16348
 Alpha virt. eigenvalues --    0.17471   0.18624   0.20407   0.21189   0.22381

 Mulliken charges:
               1
     1  O   -0.482862
     2  C    0.430816
     3  C   -0.260121
     4  C   -0.048708
     5  C   -0.299108
     6  C   -0.053500
     7  C   -0.318057
     8  C    0.145498
     9  O   -0.253510
    10  H    0.280827
    11  H    0.109262
    12  H    0.096483
    13  H    0.080648
    14  H    0.108931
    15  H    0.090282
    16  H    0.093279
    17  H    0.094906
    18  H    0.116056
    19  H    0.068879
 Sum of Mulliken charges =   0.00000

 Dipole moment (field-independent basis, Debye):
    X=              1.9736    Y=             -0.4901    Z=              0.9050  Tot=              2.2258
 Quadrupole moment (field-independent basis, Debye-Ang):
   XX=            -70.2831   YY=            -48.7430   ZZ=            -51.3515
   XY=             -1.7087   XZ=              0.6438   YZ=             -1.6205

  Exact polarizability:  87.768   1.004  69.433   0.990  -1.801  70.231
 Approx polarizability: 126.463  -0.396 102.935   3.892  -3.621 107.900

                      1                      2                      3
                      A                      A                      A
 Frequencies --     61.4728               136.0877               235.2543
 Red. masses --      4.7683                 4.4992                 1.1333
 Frc consts  --      0.0106                 0.0491                 0.0370
 IR Inten    --      6.8075                 4.1790                77.4581

                      4                      5                      6
                      A                      A                      A
 Frequencies --    251.3526               342.6950               370.6302
 Red. masses --      2.0558                 3.2880                 3.2204
 Frc consts  --      0.0765                 0.2275                 0.2606
 IR Inten    --     10.8557                 5.7261                11.8287

                      7                      8                      9
                      A                      A                      A
 Frequencies --    399.0416               425.6047               462.6976
 Red. masses --      5.5909                 2.3669                 2.4844
 Frc consts  --      0.5245                 0.2526                 0.3134
 IR Inten    --      2.0132                 5.9177                 8.6833

                     10                     11                     12
                      A                      A                      A
 Frequencies --    529.5898               628.1419               685.9107
 Red. masses --      1.9122                 3.9051                 3.6804
 Frc consts  --      0.3160                 0.9078                 1.0202
 IR Inten    --      2.8219                 6.4139                 0.7538

                     13                     14                     15
                      A                      A                      A
 Frequencies --    820.8302               838.1472               868.7638
 Red. masses --      3.0911                 3.0300                 1.9575
 Frc consts  --      1.2271                 1.2541                 0.8705
 IR Inten    --      0.7745                 0.0362                 7.9547

                     16                     17                     18
                      A                      A                      A
 Frequencies --    897.4556               914.9486               956.2156
 Red. masses --      2.1145                 2.1187                 2.2108
 Frc consts  --      1.0034                 1.0450                 1.1910
 IR Inten    --      1.0402                 5.5388                 2.8928

                     19                     20                     21
                      A                      A                      A
 Frequencies --    965.8390               995.6487              1005.4330
 Red. masses --      1.7188                 1.5690                 2.1274
 Frc consts  --      0.9447                 0.9164                 1.2671
 IR Inten    --      0.9147                 3.6669                 6.7649

                     22                     23                     24
                      A                      A                      A
 Frequencies --   1022.6448              1061.1539              1104.5471
 Red. masses --      1.4044                 1.6791                 1.5037
 Frc consts  --      0.8654                 1.1140                 1.0809
 IR Inten    --      5.6116                 0.3929                10.8170

                     25                     26                     27
                      A                      A                      A
 Frequencies --   1126.0993              1141.0823              1155.8663
 Red. masses --      1.6188                 1.4791                 2.2722
 Frc consts  --      1.2095                 1.1347                 1.7886
 IR Inten    --     63.2010                 6.1019                15.0081

                     28                     29                     30
                      A                      A                      A
 Frequencies --   1209.6810              1214.4446              1236.3444
 Red. masses --      1.5261                 1.3992                 1.5636
 Frc consts  --      1.3158                 1.2158                 1.4081
 IR Inten    --      9.2682                 0.7541                19.8110

                     31                     32                     33
                      A                      A                      A
 Frequencies --   1243.9769              1260.1909              1301.7156
 Red. masses --      1.6544                 1.7764                 1.4709
 Frc consts  --      1.5084                 1.6622                 1.4685
 IR Inten    --      8.9469                54.7572                10.4672

                     34                     35                     36
                      A                      A                      A
 Frequencies --   1316.5212              1326.4051              1388.1290
 Red. masses --      1.5023                 2.1048                 1.8673
 Frc consts  --      1.5342                 2.1818                 2.1199
 IR Inten    --      1.2052               126.1782                 3.6445

                     37                     38                     39
                      A                      A                      A
 Frequencies --   1435.9854              1486.1758              1491.9381
 Red. masses --      1.2120                 1.1007                 1.0924
 Frc consts  --      1.4725                 1.4324                 1.4326
 IR Inten    --      3.9847                 2.6434                 1.7712

                     40                     41                     42
                      A                      A                      A
 Frequencies --   1529.0201              1827.3024              2855.1710
 Red. masses --      1.1579                10.2693                 1.0808
 Frc consts  --      1.5949                20.2028                 5.1912
 IR Inten    --      2.6821               207.7516                83.8273

                     43                     44                     45
                      A                      A                      A
 Frequencies --   3031.7199              3058.0671              3063.2647
 Red. masses --      1.0652                 1.0575                 1.0598
 Frc consts  --      5.7687                 5.8265                 5.8593
 IR Inten    --     32.2499                54.5486                 8.4371

                     46                     47                     48
                      A                      A                      A
 Frequencies --   3080.1748              3103.0574              3124.8319
 Red. masses --      1.0870                 1.0974                 1.1089
 Frc consts  --      6.0762                 6.2258                 6.3797
 IR Inten    --      8.4669                22.6505                13.4341

                     49                     50                     51
                      A                      A                      A
 Frequencies --   3129.0696              3136.0625              3804.8561
 Red. masses --      1.1052                 1.0917                 1.0658
 Frc consts  --      6.3758                 6.3261                 9.0911
 IR Inten    --     30.2982                34.4357                21.0946

 - Thermochemistry -
 -------------------
 Temperature   298.150 Kelvin.  Pressure   1.00000 Atm.
 Atom     1 has atomic number  8 and mass  15.99491

 Molecular mass:   126.06808 amu.
 Principal axes and moments of inertia in atomic units:
                           1         2         3
     Eigenvalues --   472.383881660.209711777.18793
           X            0.99999   0.00421  -0.00100
           Y           -0.00423   0.99972  -0.02346
           Z            0.00090   0.02347   0.99972
 This molecule is an asymmetric top.
 Rotational symmetry number  1.
 Warning -- assumption of classical behavior for rotation
           may cause significant error
 Rotational temperatures (Kelvin)      0.18335     0.05217     0.04874
 Rotational constants (GHZ):           3.82050     1.08706     1.01550
 Zero-point vibrational energy     419035.5 (Joules/Mol)
                                  100.15188 (Kcal/Mol)
 Warning -- explicit consideration of  10 degrees of freedom as
           vibrations may cause significant error
 Vibrational temperatures:     88.45   195.80   338.48   361.64   493.06
          (Kelvin)            533.25   574.13   612.35   665.72   761.96
                              903.76   986.87  1180.99  1205.91  1249.96
                             1291.24  1316.41  1375.78  1389.63  1432.51
                             1446.59  1471.36  1526.76  1589.19  1620.20
                             1641.76  1663.03  1740.46  1747.31  1778.82
                             1789.80  1813.13  1872.88  1894.18  1908.40
                             1997.21  2066.06  2138.27  2146.56  2199.92
                             2629.08  4107.95  4361.96  4399.87  4407.35
                             4431.68  4464.60  4495.93  4502.03  4512.09
                             5474.33

 Zero-point correction=                           0.159602 (Hartree/Particle)
 Thermal correction to Energy=                    0.167682
 Thermal correction to Enthalpy=                  0.168626
 Thermal correction to Gibbs Free Energy=         0.126785
 Sum of electronic and zero-point Energies=           -423.024630
 Sum of electronic and thermal Energies=              -423.016550
 Sum of electronic and thermal Enthalpies=            -423.015606
 Sum of electronic and thermal Free Energies=         -423.057447

                     E (Thermal)             CV                S
                      KCal/Mol        Cal/Mol-Kelvin    Cal/Mol-Kelvin
 Total                  105.222             31.569             88.063
 Electronic               0.000              0.000              0.000
 Translational            0.889              2.981             40.409
 Rotational               0.889              2.981             28.724
 Vibrational            103.445             25.607             18.931
 Vibration     1          0.597              1.973              4.409
 Vibration     2          0.614              1.917              2.858
 Vibration     3          0.655              1.787              1.838
 Vibration     4          0.663              1.760              1.721
 Vibration     5          0.722              1.590              1.200
 Vibration     6          0.743              1.533              1.077
 Vibration     7          0.765              1.472              0.966
 Vibration     8          0.787              1.415              0.873
 Vibration     9          0.820              1.333              0.758
 Vibration    10          0.885              1.185              0.588

 Normal termination of Gaussian 09 at Mon Jan 27 17:55:41 2020.
