 Gaussian 09, Revision D.01,
 Gaussian 09:  ES64L-G09RevD.01 24-Apr-2013

 -----------------------------
 # b3lyp 6-31G(2df,p) opt Freq
 -----------------------------

 -----
 titel
 -----
 Symbolic Z-matrix:
 Charge =  0 Multiplicity = 1

 SCF Done:  E(RB3LYP) =  -423.158663139     A.U. after   14 cycles
 Optimization completed.
    -- Stationary point found.
 Normal termination of Gaussian 09 at Mon Jan 27 22:07:23 2020.

 ----------------------------------------------------------------------
 #N Geom=AllCheck Guess=TCheck SCRF=Check GenChk RB3LYP/6-31G(2df,p) Fr
 eq
 ----------------------------------------------------------------------

 Structure from the checkpoint file:  "/scratch/puck/g09_5587bec4-9c9f-413c-a2e3-5fbb74a0fcd4/Gau-85633.chk"
 -----
 titel
 -----
 Charge =  0 Multiplicity = 1

                         Standard orientation:
 ---------------------------------------------------------------------
 Center     Atomic      Atomic             Coordinates (Angstroms)
 Number     Number       Type             X           Y           Z
 ---------------------------------------------------------------------
      1          6           0       -1.730939    1.501921    0.348968
      2          6           0       -0.566523    0.615345   -0.027194
      3          6           0        0.694203    1.291421   -0.598914
      4          6           0        1.887519    0.512280   -0.063768
      5          8           0        1.953440   -0.854287   -0.494060
      6          6           0        1.407856   -0.573910    0.807588
      7          6           0       -0.099046   -0.540800    0.862695
      8          6           0       -0.826826   -0.825907   -0.421622
      9          8           0       -2.116371   -1.348509   -0.262880
     10          1           0       -2.089129    2.072270   -0.517357
     11          1           0       -2.565437    0.906731    0.726028
     12          1           0       -1.446183    2.225054    1.121706
     13          1           0        0.698659    1.331714   -1.694277
     14          1           0        0.750967    2.325315   -0.237349
     15          1           0        2.851490    1.001857    0.055965
     16          1           0        1.978847   -0.970880    1.642038
     17          1           0       -0.601917   -0.774585    1.793906
     18          1           0       -0.245464   -1.256100   -1.233667
     19          1           0       -2.625857   -1.121111   -1.048000
 ---------------------------------------------------------------------

 SCF Done:  E(RB3LYP) =  -423.158663139     A.U. after    1 cycles

 The electronic state is 1-A.
 Alpha  occ. eigenvalues --  -19.14635 -19.14339 -10.23470 -10.23197 -10.22889
 Alpha  occ. eigenvalues --  -10.19396 -10.18846 -10.18510 -10.17672  -1.06790
 Alpha  occ. eigenvalues --   -1.02702  -0.86303  -0.74227  -0.71740  -0.66907
 Alpha  occ. eigenvalues --   -0.60059  -0.56497  -0.55429  -0.52363  -0.49786
 Alpha  occ. eigenvalues --   -0.45711  -0.44028  -0.42784  -0.41515  -0.40489
 Alpha  occ. eigenvalues --   -0.38074  -0.37243  -0.36328  -0.35362  -0.31949
 Alpha  occ. eigenvalues --   -0.30720  -0.26121  -0.26019  -0.24244
 Alpha virt. eigenvalues --    0.07409   0.08063   0.10001   0.12227   0.12679
 Alpha virt. eigenvalues --    0.13582   0.14903   0.15843   0.16489   0.17363
 Alpha virt. eigenvalues --    0.17974   0.18232   0.19312   0.20556   0.21401

 Mulliken charges:
               1
     1  C   -0.486968
     2  C    0.272796
     3  C   -0.325865
     4  C    0.044578
     5  O   -0.256430
     6  C    0.022673
     7  C   -0.140428
     8  C    0.052992
     9  O   -0.433449
    10  H    0.111118
    11  H    0.132272
    12  H    0.114209
    13  H    0.111573
    14  H    0.103981
    15  H    0.094529
    16  H    0.096677
    17  H    0.091963
    18  H    0.106975
    19  H    0.286805
 Sum of Mulliken charges =   0.00000

 Dipole moment (field-independent basis, Debye):
    X=             -0.5055    Y=              1.9615    Z=             -0.0132  Tot=              2.0256
 Quadrupole moment (field-independent basis, Debye-Ang):
   XX=            -52.8000   YY=            -55.3292   ZZ=            -49.9709
   XY=              1.4325   XZ=              5.5473   YZ=             -0.5971

  Exact polarizability:  82.182   0.785  73.930   1.907  -3.444  66.019
 Approx polarizability: 109.124   2.272 111.825   0.987  -4.564 105.769

                      1                      2                      3
                      A                      A                      A
 Frequencies --    178.0530               200.9090               214.4499
 Red. masses --      2.8412                 1.0968                 3.8438
 Frc consts  --      0.0531                 0.0261                 0.1042
 IR Inten    --      3.7673                 4.4713                 2.2661

                      4                      5                      6
                      A                      A                      A
 Frequencies --    263.6091               299.8198               323.2987
 Red. masses --      2.0754                 1.5103                 3.3519
 Frc consts  --      0.0850                 0.0800                 0.2064
 IR Inten    --     12.0421                86.7678                 5.9629

                      7                      8                      9
                      A                      A                      A
 Frequencies --    335.8546               384.3334               442.9727
 Red. masses --      2.6007                 2.0076                 4.7251
 Frc consts  --      0.1728                 0.1747                 0.5463
 IR Inten    --     14.5884                 0.9947                12.8852

                     10                     11                     12
                      A                      A                      A
 Frequencies --    557.4029               659.2998               715.2991
 Red. masses --      3.9177                 3.9168                 5.8051
 Frc consts  --      0.7172                 1.0031                 1.7500
 IR Inten    --      5.9763                 6.5540                 6.4654

                     13                     14                     15
                      A                      A                      A
 Frequencies --    722.3245               799.9018               856.4413
 Red. masses --      3.9348                 3.7499                 2.2747
 Frc consts  --      1.2096                 1.4137                 0.9830
 IR Inten    --      1.7311                 0.6154                30.8656

                     16                     17                     18
                      A                      A                      A
 Frequencies --    860.8080               896.8399               930.3335
 Red. masses --      4.1707                 2.4352                 1.8718
 Frc consts  --      1.8209                 1.1540                 0.9545
 IR Inten    --      6.9411                 1.6790                 2.3921

                     19                     20                     21
                      A                      A                      A
 Frequencies --    968.2348               976.9418               998.7657
 Red. masses --      1.4163                 2.8587                 1.8080
 Frc consts  --      0.7823                 1.6075                 1.0626
 IR Inten    --     12.6091                 2.3782                 2.3743

                     22                     23                     24
                      A                      A                      A
 Frequencies --   1025.5950              1060.3152              1094.4744
 Red. masses --      1.4525                 1.5971                 1.2621
 Frc consts  --      0.9002                 1.0579                 0.8908
 IR Inten    --      2.1974                13.7423                 0.9231

                     25                     26                     27
                      A                      A                      A
 Frequencies --   1107.6146              1126.4909              1146.8632
 Red. masses --      1.5551                 1.6096                 4.1106
 Frc consts  --      1.1241                 1.2035                 3.1855
 IR Inten    --     22.5467                10.2921                66.1328

                     28                     29                     30
                      A                      A                      A
 Frequencies --   1197.5395              1221.6626              1248.2086
 Red. masses --      1.5234                 1.7056                 2.0141
 Frc consts  --      1.2872                 1.4998                 1.8488
 IR Inten    --      0.2878                 7.7287                 4.1826

                     31                     32                     33
                      A                      A                      A
 Frequencies --   1265.7532              1290.9354              1298.8271
 Red. masses --      1.4130                 1.3299                 1.4864
 Frc consts  --      1.3338                 1.3058                 1.4774
 IR Inten    --      5.2600                22.9934                28.6446

                     34                     35                     36
                      A                      A                      A
 Frequencies --   1334.9957              1369.5969              1411.2111
 Red. masses --      1.4463                 1.9512                 1.3789
 Frc consts  --      1.5187                 2.1565                 1.6179
 IR Inten    --      7.3511                16.0762                 0.7277

                     37                     38                     39
                      A                      A                      A
 Frequencies --   1417.1999              1459.9798              1475.9067
 Red. masses --      2.8814                 1.9583                 1.1210
 Frc consts  --      3.4097                 2.4594                 1.4387
 IR Inten    --     16.8978                11.4466                 1.9988

                     40                     41                     42
                      A                      A                      A
 Frequencies --   1497.7388              1504.5310              3021.0460
 Red. masses --      1.0615                 1.0838                 1.0402
 Frc consts  --      1.4029                 1.4454                 5.5936
 IR Inten    --      3.4723                 6.5539                31.7814

                     43                     44                     45
                      A                      A                      A
 Frequencies --   3033.2662              3071.2487              3074.9985
 Red. masses --      1.0589                 1.1032                 1.0993
 Frc consts  --      5.7400                 6.1310                 6.1243
 IR Inten    --     36.1342                 9.6875                32.4409

                     46                     47                     48
                      A                      A                      A
 Frequencies --   3125.5033              3136.0010              3137.1970
 Red. masses --      1.0973                 1.0885                 1.0884
 Frc consts  --      6.3154                 6.3069                 6.3113
 IR Inten    --      9.8818                26.7031                13.0348

                     49                     50                     51
                      A                      A                      A
 Frequencies --   3156.9068              3186.9327              3803.1771
 Red. masses --      1.0927                 1.0913                 1.0661
 Frc consts  --      6.4162                 6.5305                 9.0853
 IR Inten    --     32.2772                 8.5069                22.6417

 - Thermochemistry -
 -------------------
 Temperature   298.150 Kelvin.  Pressure   1.00000 Atm.
 Atom     1 has atomic number  6 and mass  12.00000

 Molecular mass:   126.06808 amu.
 Principal axes and moments of inertia in atomic units:
                           1         2         3
     Eigenvalues --   632.148651178.937941501.65676
           X            0.99983  -0.01730   0.00663
           Y            0.01736   0.99980  -0.01005
           Z           -0.00646   0.01016   0.99993
 This molecule is an asymmetric top.
 Rotational symmetry number  1.
 Warning -- assumption of classical behavior for rotation
           may cause significant error
 Rotational temperatures (Kelvin)      0.13701     0.07347     0.05768
 Rotational constants (GHZ):           2.85493     1.53082     1.20183
 Zero-point vibrational energy     418020.7 (Joules/Mol)
                                   99.90935 (Kcal/Mol)
 Warning -- explicit consideration of  10 degrees of freedom as
           vibrations may cause significant error
 Vibrational temperatures:    256.18   289.06   308.55   379.27   431.37
          (Kelvin)            465.15   483.22   552.97   637.34   801.98
                              948.58  1029.15  1039.26  1150.88  1232.23
                             1238.51  1290.35  1338.54  1393.07  1405.60
                             1437.00  1475.60  1525.56  1574.70  1593.61
                             1620.77  1650.08  1722.99  1757.70  1795.89
                             1821.13  1857.37  1868.72  1920.76  1970.54
                             2030.42  2039.03  2100.58  2123.50  2154.91
                             2164.68  4346.61  4364.19  4418.84  4424.23
                             4496.90  4512.00  4513.72  4542.08  4585.28
                             5471.92

 Zero-point correction=                           0.159216 (Hartree/Particle)
 Thermal correction to Energy=                    0.167236
 Thermal correction to Enthalpy=                  0.168180
 Thermal correction to Gibbs Free Energy=         0.127275
 Sum of electronic and zero-point Energies=           -422.999447
 Sum of electronic and thermal Energies=              -422.991427
 Sum of electronic and thermal Enthalpies=            -422.990483
 Sum of electronic and thermal Free Energies=         -423.031388

                     E (Thermal)             CV                S
                      KCal/Mol        Cal/Mol-Kelvin    Cal/Mol-Kelvin
 Total                  104.942             32.096             86.092
 Electronic               0.000              0.000              0.000
 Translational            0.889              2.981             40.409
 Rotational               0.889              2.981             28.505
 Vibrational            103.165             26.134             17.178
 Vibration     1          0.628              1.869              2.349
 Vibration     2          0.638              1.839              2.125
 Vibration     3          0.644              1.819              2.005
 Vibration     4          0.670              1.740              1.638
 Vibration     5          0.692              1.674              1.418
 Vibration     6          0.708              1.629              1.293
 Vibration     7          0.717              1.604              1.232
 Vibration     8          0.753              1.504              1.022
 Vibration     9          0.803              1.376              0.817
 Vibration    10          0.913              1.124              0.529

 Normal termination of Gaussian 09 at Mon Jan 27 23:06:53 2020.
