 Gaussian 09, Revision D.01,
 Gaussian 09:  ES64L-G09RevD.01 24-Apr-2013

 -----------------------------
 # b3lyp 6-31G(2df,p) opt Freq
 -----------------------------

 -----
 titel
 -----
 Symbolic Z-matrix:
 Charge =  0 Multiplicity = 1

 SCF Done:  E(RB3LYP) =  -423.132683525     A.U. after   14 cycles
 Optimization completed.
    -- Stationary point found.
 Normal termination of Gaussian 09 at Mon Jan 27 23:10:35 2020.

 ----------------------------------------------------------------------
 #N Geom=AllCheck Guess=TCheck SCRF=Check GenChk RB3LYP/6-31G(2df,p) Fr
 eq
 ----------------------------------------------------------------------

 Structure from the checkpoint file:  "/scratch/puck/g09_3e71ae3b-59ab-47f7-9633-8019d5818efa/Gau-79890.chk"
 -----
 titel
 -----
 Charge =  0 Multiplicity = 1

                         Standard orientation:
 ---------------------------------------------------------------------
 Center     Atomic      Atomic             Coordinates (Angstroms)
 Number     Number       Type             X           Y           Z
 ---------------------------------------------------------------------
      1          6           0       -2.258192   -0.450964   -0.693514
      2          6           0       -0.905366   -0.431249   -0.068823
      3          8           0       -0.020081   -1.543954   -0.328975
      4          6           0        0.781626   -1.054902    0.789189
      5          6           0       -0.408493   -0.199437    1.324192
      6          6           0       -0.026816    0.799478    0.216526
      7          6           0       -0.440645    2.225095    0.009300
      8          6           0        1.401818    0.231366    0.189110
      9          8           0        2.083826    0.112031   -1.024393
     10          1           0       -2.843615    0.415790   -0.375118
     11          1           0       -2.179411   -0.425183   -1.785917
     12          1           0       -2.803106   -1.356594   -0.410403
     13          1           0        1.353721   -1.833739    1.288395
     14          1           0       -0.890320   -0.084552    2.284859
     15          1           0       -0.206565    2.551244   -1.010085
     16          1           0       -1.514905    2.367428    0.166009
     17          1           0        0.084057    2.893688    0.701092
     18          1           0        2.047847    0.751830    0.901860
     19          1           0        1.578746   -0.540854   -1.529630
 ---------------------------------------------------------------------

 SCF Done:  E(RB3LYP) =  -423.132683525     A.U. after    1 cycles

 The electronic state is 1-A.
 Alpha  occ. eigenvalues --  -19.14179 -19.12819 -10.24635 -10.23957 -10.23068
 Alpha  occ. eigenvalues --  -10.19793 -10.19433 -10.18974 -10.18515  -1.06706
 Alpha  occ. eigenvalues --   -1.00929  -0.86091  -0.76174  -0.72464  -0.68138
 Alpha  occ. eigenvalues --   -0.62921  -0.56187  -0.52428  -0.51090  -0.48731
 Alpha  occ. eigenvalues --   -0.46130  -0.44573  -0.42684  -0.41351  -0.40188
 Alpha  occ. eigenvalues --   -0.39263  -0.38235  -0.37297  -0.35697  -0.34775
 Alpha  occ. eigenvalues --   -0.29058  -0.26562  -0.26009  -0.22944
 Alpha virt. eigenvalues --    0.08228   0.08802   0.09526   0.11913   0.12774
 Alpha virt. eigenvalues --    0.13644   0.13795   0.14929   0.15932   0.16344
 Alpha virt. eigenvalues --    0.17093   0.18967   0.19555   0.20288   0.21064

 Mulliken charges:
               1
     1  C   -0.507686
     2  C    0.418981
     3  O   -0.343340
     4  C    0.001348
     5  C   -0.250391
     6  C    0.187009
     7  C   -0.517967
     8  C    0.129283
     9  O   -0.448347
    10  H    0.130053
    11  H    0.133181
    12  H    0.135295
    13  H    0.085406
    14  H    0.099630
    15  H    0.133977
    16  H    0.118439
    17  H    0.123775
    18  H    0.087786
    19  H    0.283567
 Sum of Mulliken charges =   0.00000

 Dipole moment (field-independent basis, Debye):
    X=             -1.8106    Y=              0.7180    Z=              1.2363  Tot=              2.3070
 Quadrupole moment (field-independent basis, Debye-Ang):
   XX=            -54.6733   YY=            -54.3925   ZZ=            -50.9066
   XY=             -2.0334   XZ=              2.9348   YZ=             -0.0197

  Exact polarizability:  78.836   0.026  75.356   2.614  -0.869  69.670
 Approx polarizability: 109.766   1.561 110.024   1.100   0.611 109.979

                      1                      2                      3
                      A                      A                      A
 Frequencies --    156.6884               166.1467               174.3555
 Red. masses --      2.5879                 1.2363                 1.1359
 Frc consts  --      0.0374                 0.0201                 0.0203
 IR Inten    --      0.6959                 0.2507                 0.2893

                      4                      5                      6
                      A                      A                      A
 Frequencies --    210.2932               232.3175               282.7856
 Red. masses --      2.7960                 2.1503                 3.9029
 Frc consts  --      0.0729                 0.0684                 0.1839
 IR Inten    --      1.1344                 0.2745                 7.3604

                      7                      8                      9
                      A                      A                      A
 Frequencies --    343.6269               414.6249               527.8208
 Red. masses --      2.7892                 2.7487                 1.1647
 Frc consts  --      0.1940                 0.2784                 0.1912
 IR Inten    --      1.6594                 0.0794                59.9468

                     10                     11                     12
                      A                      A                      A
 Frequencies --    548.9266               600.1256               640.6403
 Red. masses --      3.9904                 3.9350                 3.5869
 Frc consts  --      0.7084                 0.8350                 0.8673
 IR Inten    --      6.8649                 1.9891                 1.3820

                     13                     14                     15
                      A                      A                      A
 Frequencies --    697.7904               758.9758               780.2102
 Red. masses --      3.4409                 4.2212                 3.1175
 Frc consts  --      0.9871                 1.4327                 1.1181
 IR Inten    --     10.1461                 9.2939                13.8312

                     16                     17                     18
                      A                      A                      A
 Frequencies --    813.8827               865.9600               907.0644
 Red. masses --      2.1614                 2.0342                 1.8551
 Frc consts  --      0.8436                 0.8987                 0.8993
 IR Inten    --     11.4143                13.0899                 0.3464

                     19                     20                     21
                      A                      A                      A
 Frequencies --    911.5148               943.9109               963.3216
 Red. masses --      1.8553                 2.1452                 3.6303
 Frc consts  --      0.9082                 1.1261                 1.9849
 IR Inten    --     27.4579                 8.1569                39.9919

                     22                     23                     24
                      A                      A                      A
 Frequencies --    975.5899              1085.4535              1102.1761
 Red. masses --      2.7250                 1.7107                 1.7479
 Frc consts  --      1.5281                 1.1875                 1.2511
 IR Inten    --      4.8025                19.9703                27.3058

                     25                     26                     27
                      A                      A                      A
 Frequencies --   1114.1449              1122.6611              1145.2357
 Red. masses --      2.0847                 2.4276                 1.7914
 Frc consts  --      1.5247                 1.8027                 1.3843
 IR Inten    --     36.4568                60.4231                40.0949

                     28                     29                     30
                      A                      A                      A
 Frequencies --   1153.7775              1220.4896              1236.0628
 Red. masses --      2.0637                 2.0730                 1.9942
 Frc consts  --      1.6186                 1.8194                 1.7951
 IR Inten    --     14.3258                 4.5662                 4.2599

                     31                     32                     33
                      A                      A                      A
 Frequencies --   1280.0464              1283.2413              1364.3005
 Red. masses --      1.7649                 1.4239                 2.2974
 Frc consts  --      1.7038                 1.3815                 2.5195
 IR Inten    --      4.4381                17.6621                 4.0642

                     34                     35                     36
                      A                      A                      A
 Frequencies --   1408.1699              1417.6320              1439.8321
 Red. masses --      1.4725                 1.3744                 1.3121
 Frc consts  --      1.7203                 1.6274                 1.6026
 IR Inten    --      2.5441                 0.7320               104.6880

                     37                     38                     39
                      A                      A                      A
 Frequencies --   1454.2098              1472.6159              1488.0676
 Red. masses --      3.4379                 1.0508                 1.0518
 Frc consts  --      4.2835                 1.3427                 1.3723
 IR Inten    --     12.6294                 3.3957                 6.3782

                     40                     41                     42
                      A                      A                      A
 Frequencies --   1492.9040              1507.4681              3026.6410
 Red. masses --      1.0530                 1.1510                 1.0354
 Frc consts  --      1.3828                 1.5410                 5.5881
 IR Inten    --      1.3638                12.2150                32.4412

                     43                     44                     45
                      A                      A                      A
 Frequencies --   3037.5478              3082.7619              3087.6208
 Red. masses --      1.0362                 1.0867                 1.1006
 Frc consts  --      5.6332                 6.0849                 6.1818
 IR Inten    --     22.2383                24.8993                25.7919

                     46                     47                     48
                      A                      A                      A
 Frequencies --   3095.9570              3101.9541              3121.2557
 Red. masses --      1.1004                 1.1007                 1.0998
 Frc consts  --      6.2141                 6.2402                 6.3128
 IR Inten    --     14.9443                18.3351                14.3284

                     49                     50                     51
                      A                      A                      A
 Frequencies --   3147.8140              3214.0035              3744.6640
 Red. masses --      1.0929                 1.0980                 1.0645
 Frc consts  --      6.3804                 6.6823                 8.7944
 IR Inten    --     35.6242                 6.4930                28.3641

 - Thermochemistry -
 -------------------
 Temperature   298.150 Kelvin.  Pressure   1.00000 Atm.
 Atom     1 has atomic number  6 and mass  12.00000

 Molecular mass:   126.06808 amu.
 Principal axes and moments of inertia in atomic units:
                           1         2         3
     Eigenvalues --   786.57050 990.081171284.93680
           X            0.99854  -0.03895   0.03737
           Y            0.03903   0.99924  -0.00143
           Z           -0.03729   0.00288   0.99930
 This molecule is an asymmetric top.
 Rotational symmetry number  1.
 Warning -- assumption of classical behavior for rotation
           may cause significant error
 Rotational temperatures (Kelvin)      0.11012     0.08748     0.06741
 Rotational constants (GHZ):           2.29444     1.82282     1.40454
 Zero-point vibrational energy     414896.5 (Joules/Mol)
                                   99.16265 (Kcal/Mol)
 Warning -- explicit consideration of  11 degrees of freedom as
           vibrations may cause significant error
 Vibrational temperatures:    225.44   239.05   250.86   302.56   334.25
          (Kelvin)            406.86   494.40   596.55   759.42   789.78
                              863.45   921.74  1003.96  1092.00  1122.55
                             1170.99  1245.92  1305.06  1311.46  1358.08
                             1386.00  1403.65  1561.72  1585.78  1603.00
                             1615.26  1647.74  1660.03  1756.01  1778.42
                             1841.70  1846.30  1962.92  2026.04  2039.65
                             2071.59  2092.28  2118.76  2140.99  2147.95
                             2168.91  4354.66  4370.35  4435.40  4442.39
                             4454.39  4463.01  4490.79  4529.00  4624.23
                             5387.73

 Zero-point correction=                           0.158026 (Hartree/Particle)
 Thermal correction to Energy=                    0.166470
 Thermal correction to Enthalpy=                  0.167414
 Thermal correction to Gibbs Free Energy=         0.125556
 Sum of electronic and zero-point Energies=           -422.974658
 Sum of electronic and thermal Energies=              -422.966214
 Sum of electronic and thermal Enthalpies=            -422.965270
 Sum of electronic and thermal Free Energies=         -423.007128

                     E (Thermal)             CV                S
                      KCal/Mol        Cal/Mol-Kelvin    Cal/Mol-Kelvin
 Total                  104.461             33.012             88.098
 Electronic               0.000              0.000              0.000
 Translational            0.889              2.981             40.409
 Rotational               0.889              2.981             28.394
 Vibrational            102.684             27.050             19.295
 Vibration     1          0.620              1.895              2.589
 Vibration     2          0.624              1.884              2.479
 Vibration     3          0.627              1.874              2.388
 Vibration     4          0.642              1.825              2.041
 Vibration     5          0.653              1.792              1.861
 Vibration     6          0.682              1.706              1.517
 Vibration     7          0.722              1.588              1.195
 Vibration     8          0.778              1.438              0.910
 Vibration     9          0.883              1.188              0.592
 Vibration    10          0.904              1.142              0.546
 Vibration    11          0.958              1.032              0.449

 Optimization completed.
    -- Stationary point found.
 Normal termination of Gaussian 09 at Mon Jan 27 23:57:15 2020.
