 Gaussian 09, Revision D.01,
 Gaussian 09:  ES64L-G09RevD.01 24-Apr-2013

 -----------------------------
 # b3lyp 6-31G(2df,p) opt Freq
 -----------------------------

 -----
 titel
 -----
 Symbolic Z-matrix:
 Charge =  0 Multiplicity = 1

 SCF Done:  E(RB3LYP) =  -423.159328357     A.U. after   14 cycles
 SCF Done:  E(RB3LYP) =  -423.159328028     A.U. after    7 cycles
 SCF Done:  E(RB3LYP) =  -423.159328373     A.U. after    7 cycles
 Optimization completed.
    -- Stationary point found.
 Normal termination of Gaussian 09 at Tue Jan 28 01:12:19 2020.

 ----------------------------------------------------------------------
 #N Geom=AllCheck Guess=TCheck SCRF=Check GenChk RB3LYP/6-31G(2df,p) Fr
 eq
 ----------------------------------------------------------------------

 Structure from the checkpoint file:  "/scratch/puck/g09_790db156-2e0e-4634-9394-57c43dbaeffd/Gau-38714.chk"
 -----
 titel
 -----
 Charge =  0 Multiplicity = 1

                         Standard orientation:
 ---------------------------------------------------------------------
 Center     Atomic      Atomic             Coordinates (Angstroms)
 Number     Number       Type             X           Y           Z
 ---------------------------------------------------------------------
      1          6           0        2.687434   -0.936302   -0.350474
      2          6           0        1.531838   -0.275217    0.366753
      3          8           0        1.150731    0.936440   -0.277934
      4          6           0       -0.271625    0.981381   -0.377206
      5          6           0       -0.812464    2.317574    0.101281
      6          6           0       -0.712196   -0.238847    0.474130
      7          8           0        0.399917   -1.118108    0.347981
      8          6           0       -1.941802   -0.873780    0.032771
      9          6           0       -2.980624   -1.353875   -0.331497
     10          1           0        3.547946   -0.262737   -0.362484
     11          1           0        2.969166   -1.859125    0.163501
     12          1           0        2.399046   -1.169174   -1.378248
     13          1           0        1.798381   -0.039601    1.413774
     14          1           0       -0.562741    0.806601   -1.421556
     15          1           0       -0.411188    3.131046   -0.508525
     16          1           0       -1.904282    2.334273    0.020915
     17          1           0       -0.532106    2.499089    1.143531
     18          1           0       -0.818899    0.079072    1.525833
     19          1           0       -3.893882   -1.791703   -0.651654
 ---------------------------------------------------------------------

 SCF Done:  E(RB3LYP) =  -423.159328373     A.U. after    1 cycles

 The electronic state is 1-A.
 Alpha  occ. eigenvalues --  -19.15331 -19.14193 -10.27964 -10.26159 -10.24170
 Alpha  occ. eigenvalues --  -10.18997 -10.18517 -10.18202 -10.17723  -1.09112
 Alpha  occ. eigenvalues --   -0.99610  -0.81584  -0.75345  -0.73350  -0.68710
 Alpha  occ. eigenvalues --   -0.62224  -0.59438  -0.54612  -0.52111  -0.50165
 Alpha  occ. eigenvalues --   -0.48985  -0.44507  -0.42991  -0.41226  -0.40042
 Alpha  occ. eigenvalues --   -0.38967  -0.37752  -0.36897  -0.34729  -0.33953
 Alpha  occ. eigenvalues --   -0.28593  -0.28276  -0.26655  -0.25479
 Alpha virt. eigenvalues --    0.02680   0.04545   0.10306   0.11485   0.11900
 Alpha virt. eigenvalues --    0.12309   0.13185   0.15062   0.15511   0.16194
 Alpha virt. eigenvalues --    0.16916   0.17885   0.18431   0.21076   0.22393

 Mulliken charges:
               1
     1  C   -0.404797
     2  C    0.239492
     3  O   -0.295546
     4  C    0.123961
     5  C   -0.408579
     6  C   -0.092201
     7  O   -0.266385
     8  C    0.304718
     9  C   -0.420495
    10  H    0.129045
    11  H    0.127933
    12  H    0.131563
    13  H    0.065013
    14  H    0.088134
    15  H    0.131972
    16  H    0.127020
    17  H    0.120511
    18  H    0.096513
    19  H    0.202126
 Sum of Mulliken charges =   0.00000

 Dipole moment (field-independent basis, Debye):
    X=             -0.6238    Y=              0.5695    Z=              0.3001  Tot=              0.8964
 Quadrupole moment (field-independent basis, Debye-Ang):
   XX=            -47.1730   YY=            -54.7747   ZZ=            -52.4387
   XY=             -0.6038   XZ=              2.1970   YZ=              1.2954

  Exact polarizability:  99.772   5.221  73.406   5.931   2.557  61.694
 Approx polarizability: 136.379  14.882 101.729  12.875   4.428  94.454

                      1                      2                      3
                      A                      A                      A
 Frequencies --     41.1466                91.5734               136.2760
 Red. masses --      3.5219                 3.7942                 3.4812
 Frc consts  --      0.0035                 0.0187                 0.0381
 IR Inten    --      2.0578                 0.6963                 0.5224

                      4                      5                      6
                      A                      A                      A
 Frequencies --    210.2075               227.1509               238.2033
 Red. masses --      1.0712                 1.1635                 3.0756
 Frc consts  --      0.0279                 0.0354                 0.1028
 IR Inten    --      0.3122                 0.3982                 0.5466

                      7                      8                      9
                      A                      A                      A
 Frequencies --    259.0527               348.0601               422.4988
 Red. masses --      2.5958                 3.1947                 3.2440
 Frc consts  --      0.1026                 0.2280                 0.3412
 IR Inten    --      1.6750                 0.8137                 1.9841

                     10                     11                     12
                      A                      A                      A
 Frequencies --    474.3369               506.3399               538.7992
 Red. masses --      3.7365                 4.4140                 4.1800
 Frc consts  --      0.4953                 0.6668                 0.7150
 IR Inten    --      5.1628                 4.3481                 2.9940

                     13                     14                     15
                      A                      A                      A
 Frequencies --    613.3814               629.1540               678.4717
 Red. masses --      3.2437                 1.4313                 1.2626
 Frc consts  --      0.7190                 0.3338                 0.3424
 IR Inten    --      3.0293                43.1517                31.0039

                     16                     17                     18
                      A                      A                      A
 Frequencies --    702.1814               832.9486               882.2492
 Red. masses --      4.8775                 2.4744                 2.1379
 Frc consts  --      1.4169                 1.0115                 0.9804
 IR Inten    --      3.4734                14.6600                 2.4622

                     19                     20                     21
                      A                      A                      A
 Frequencies --    906.7439               936.4691              1009.1232
 Red. masses --      2.1369                 2.7462                 3.6395
 Frc consts  --      1.0352                 1.4190                 2.1836
 IR Inten    --     24.0404                34.2713                10.8736

                     22                     23                     24
                      A                      A                      A
 Frequencies --   1076.7547              1105.9509              1118.8903
 Red. masses --      3.0837                 2.7162                 2.1753
 Frc consts  --      2.1065                 1.9574                 1.6045
 IR Inten    --     57.5807                26.1882                12.5077

                     25                     26                     27
                      A                      A                      A
 Frequencies --   1125.1501              1135.3259              1152.2725
 Red. masses --      2.4858                 2.5045                 2.2986
 Frc consts  --      1.8541                 1.9020                 1.7981
 IR Inten    --      9.5859               118.7214                33.7007

                     28                     29                     30
                      A                      A                      A
 Frequencies --   1171.8377              1285.5333              1340.7469
 Red. masses --      2.6056                 1.3063                 1.2353
 Frc consts  --      2.1081                 1.2719                 1.3083
 IR Inten    --    167.0371                 7.1599                57.3322

                     31                     32                     33
                      A                      A                      A
 Frequencies --   1354.0175              1385.3203              1395.2973
 Red. masses --      1.1707                 1.3439                 1.2794
 Frc consts  --      1.2646                 1.5195                 1.4676
 IR Inten    --      5.3491                24.0252                 2.0654

                     34                     35                     36
                      A                      A                      A
 Frequencies --   1398.9462              1408.0235              1439.4906
 Red. masses --      1.2601                 1.3330                 1.5817
 Frc consts  --      1.4529                 1.5570                 1.9310
 IR Inten    --      1.9347                17.2647                44.5564

                     37                     38                     39
                      A                      A                      A
 Frequencies --   1483.8051              1484.4281              1486.7478
 Red. masses --      1.0551                 1.0498                 1.0704
 Frc consts  --      1.3687                 1.3630                 1.3940
 IR Inten    --      3.4310                 3.8942                 3.2454

                     40                     41                     42
                      A                      A                      A
 Frequencies --   1496.9448              2247.2402              2928.1920
 Red. masses --      1.0502                 5.9156                 1.0826
 Frc consts  --      1.3866                17.6014                 5.4690
 IR Inten    --      2.8989                 1.5565                82.8622

                     43                     44                     45
                      A                      A                      A
 Frequencies --   2951.1348              3015.8508              3039.9540
 Red. masses --      1.0803                 1.0851                 1.0352
 Frc consts  --      5.5432                 5.8147                 5.6365
 IR Inten    --     35.5391                34.7985                14.8614

                     46                     47                     48
                      A                      A                      A
 Frequencies --   3053.2404              3113.5756              3123.0241
 Red. masses --      1.0342                 1.1018                 1.1015
 Frc consts  --      5.6806                 6.2932                 6.3296
 IR Inten    --      9.5364                22.0458                17.4060

                     49                     50                     51
                      A                      A                      A
 Frequencies --   3132.7966              3139.3092              3503.0788
 Red. masses --      1.1020                 1.1031                 1.1636
 Frc consts  --      6.3720                 6.4053                 8.4130
 IR Inten    --     13.4150                17.6244                67.3476

 - Thermochemistry -
 -------------------
 Temperature   298.150 Kelvin.  Pressure   1.00000 Atm.
 Atom     1 has atomic number  6 and mass  12.00000

 Molecular mass:   126.06808 amu.
 Principal axes and moments of inertia in atomic units:
                           1         2         3
     Eigenvalues --   734.703121354.795971928.44099
           X            0.99841  -0.05639  -0.00026
           Y            0.05639   0.99826   0.01724
           Z           -0.00071  -0.01723   0.99985
 This molecule is an asymmetric top.
 Rotational symmetry number  1.
 Warning -- assumption of classical behavior for rotation
           may cause significant error
 Rotational temperatures (Kelvin)      0.11789     0.06393     0.04491
 Rotational constants (GHZ):           2.45642     1.33211     0.93586
 Zero-point vibrational energy     411379.3 (Joules/Mol)
                                   98.32201 (Kcal/Mol)
 Warning -- explicit consideration of  13 degrees of freedom as
           vibrations may cause significant error
 Vibrational temperatures:     59.20   131.75   196.07   302.44   326.82
          (Kelvin)            342.72   372.72   500.78   607.88   682.46
                              728.51   775.21   882.52   905.21   976.17
                             1010.28  1198.43  1269.36  1304.60  1347.37
                             1451.90  1549.21  1591.21  1609.83  1618.84
                             1633.48  1657.86  1686.01  1849.59  1929.03
                             1948.13  1993.16  2007.52  2012.77  2025.83
                             2071.10  2134.86  2135.76  2139.10  2153.77
                             3233.27  4213.01  4246.02  4339.13  4373.81
                             4392.93  4479.74  4493.33  4507.39  4516.76
                             5040.14

 Zero-point correction=                           0.156686 (Hartree/Particle)
 Thermal correction to Energy=                    0.166183
 Thermal correction to Enthalpy=                  0.167127
 Thermal correction to Gibbs Free Energy=         0.121843
 Sum of electronic and zero-point Energies=           -423.002642
 Sum of electronic and thermal Energies=              -422.993146
 Sum of electronic and thermal Enthalpies=            -422.992201
 Sum of electronic and thermal Free Energies=         -423.037485

                     E (Thermal)             CV                S
                      KCal/Mol        Cal/Mol-Kelvin    Cal/Mol-Kelvin
 Total                  104.281             34.839             95.307
 Electronic               0.000              0.000              0.000
 Translational            0.889              2.981             40.409
 Rotational               0.889              2.981             29.042
 Vibrational            102.504             28.878             25.857
 Vibration     1          0.594              1.981              5.203
 Vibration     2          0.602              1.955              3.626
 Vibration     3          0.614              1.917              2.856
 Vibration     4          0.642              1.825              2.042
 Vibration     5          0.651              1.800              1.901
 Vibration     6          0.656              1.782              1.816
 Vibration     7          0.668              1.747              1.668
 Vibration     8          0.726              1.579              1.175
 Vibration     9          0.785              1.421              0.884
 Vibration    10          0.831              1.307              0.726
 Vibration    11          0.862              1.236              0.642
 Vibration    12          0.894              1.164              0.568
 Vibration    13          0.973              1.004              0.427

 Optimization completed.
    -- Stationary point found.
 Normal termination of Gaussian 09 at Tue Jan 28 03:02:07 2020.
