 Gaussian 09, Revision D.01,
 Gaussian 09:  ES64L-G09RevD.01 24-Apr-2013

 -----------------------------
 # b3lyp 6-31G(2df,p) opt Freq
 -----------------------------

 -----
 titel
 -----
 Symbolic Z-matrix:
 Charge =  0 Multiplicity = 1

 SCF Done:  E(RB3LYP) =  -423.236181072     A.U. after   14 cycles
 Optimization completed.
    -- Stationary point found.
 Normal termination of Gaussian 09 at Tue Jan 28 12:39:47 2020.

 ----------------------------------------------------------------------
 #N Geom=AllCheck Guess=TCheck SCRF=Check GenChk RB3LYP/6-31G(2df,p) Fr
 eq
 ----------------------------------------------------------------------

 Structure from the checkpoint file:  "/scratch/puck/g09_649b6eb1-bbe8-4641-ac55-588ff670f930/Gau-29195.chk"
 -----
 titel
 -----
 Charge =  0 Multiplicity = 1

                         Standard orientation:
 ---------------------------------------------------------------------
 Center     Atomic      Atomic             Coordinates (Angstroms)
 Number     Number       Type             X           Y           Z
 ---------------------------------------------------------------------
      1          6           0        3.249590   -0.287975    0.518033
      2          6           0        2.328945    0.283892   -0.575213
      3          6           0        0.865112    0.247287   -0.218839
      4          6           0        0.103055    1.329879   -0.089795
      5          6           0       -1.341760    1.236963    0.299859
      6          6           0       -1.981736   -0.118476    0.041541
      7          8           0       -3.170430   -0.274622   -0.022452
      8          8           0       -1.166978   -1.183469   -0.133495
      9          6           0        0.256686   -1.109333    0.014708
     10          1           0        3.040909   -1.344669    0.714187
     11          1           0        4.298134   -0.211649    0.215830
     12          1           0        3.126158    0.258413    1.458351
     13          1           0        2.614161    1.319664   -0.787260
     14          1           0        2.490477   -0.281759   -1.503750
     15          1           0        0.518226    2.321044   -0.253358
     16          1           0       -1.474867    1.456245    1.370000
     17          1           0       -1.958407    1.974426   -0.222371
     18          1           0        0.510682   -1.484078    1.016750
     19          1           0        0.654432   -1.836341   -0.702576
 ---------------------------------------------------------------------

 SCF Done:  E(RB3LYP) =  -423.236181072     A.U. after    1 cycles

 The electronic state is 1-A.
 Alpha  occ. eigenvalues --  -19.17892 -19.11188 -10.30294 -10.25356 -10.20499
 Alpha  occ. eigenvalues --  -10.20270 -10.20157 -10.19547 -10.19030  -1.09348
 Alpha  occ. eigenvalues --   -1.01070  -0.83704  -0.78264  -0.74386  -0.68715
 Alpha  occ. eigenvalues --   -0.63229  -0.59948  -0.52333  -0.49812  -0.48635
 Alpha  occ. eigenvalues --   -0.48121  -0.44806  -0.44237  -0.42703  -0.41446
 Alpha  occ. eigenvalues --   -0.40828  -0.38807  -0.37929  -0.36183  -0.35175
 Alpha  occ. eigenvalues --   -0.32916  -0.28883  -0.26542  -0.25007
 Alpha virt. eigenvalues --    0.00574   0.01904   0.07779   0.09056   0.11069
 Alpha virt. eigenvalues --    0.12080   0.14237   0.14837   0.15541   0.16314
 Alpha virt. eigenvalues --    0.17220   0.18293   0.19301   0.20069   0.21752

 Mulliken charges:
               1
     1  C   -0.378902
     2  C   -0.279280
     3  C    0.285881
     4  C   -0.173125
     5  C   -0.402017
     6  C    0.410708
     7  O   -0.326176
     8  O   -0.224200
     9  C   -0.144956
    10  H    0.122707
    11  H    0.121922
    12  H    0.124133
    13  H    0.108703
    14  H    0.109631
    15  H    0.094559
    16  H    0.147509
    17  H    0.147590
    18  H    0.126908
    19  H    0.128404
 Sum of Mulliken charges =   0.00000

 Dipole moment (field-independent basis, Debye):
    X=              4.4163    Y=              1.3297    Z=              0.4717  Tot=              4.6362
 Quadrupole moment (field-independent basis, Debye-Ang):
   XX=            -64.6140   YY=            -51.2000   ZZ=            -52.2567
   XY=             -4.7799   XZ=             -1.4856   YZ=             -0.0814

  Exact polarizability: 101.814  -9.216  78.004  -2.621   0.890  56.486
 Approx polarizability: 136.317 -17.448 121.713  -4.313   3.398  86.659

                      1                      2                      3
                      A                      A                      A
 Frequencies --     31.8528                70.4932               121.5820
 Red. masses --      3.1053                 2.5039                 3.8302
 Frc consts  --      0.0019                 0.0073                 0.0334
 IR Inten    --      5.8763                 0.6293                 0.9495

                      4                      5                      6
                      A                      A                      A
 Frequencies --    164.3964               222.9000               291.4972
 Red. masses --      2.5964                 1.2418                 2.1713
 Frc consts  --      0.0413                 0.0364                 0.1087
 IR Inten    --      0.9691                 0.4447                 1.1688

                      7                      8                      9
                      A                      A                      A
 Frequencies --    346.9709               420.8239               455.6835
 Red. masses --      2.3986                 3.4140                 6.2192
 Frc consts  --      0.1701                 0.3562                 0.7609
 IR Inten    --      1.0646                 2.5473                 2.0858

                     10                     11                     12
                      A                      A                      A
 Frequencies --    527.0485               549.5943               599.1215
 Red. masses --      3.1968                 3.2023                 4.2742
 Frc consts  --      0.5232                 0.5699                 0.9039
 IR Inten    --      6.0264                 3.3999                 1.2022

                     13                     14                     15
                      A                      A                      A
 Frequencies --    719.9572               772.2792               785.1648
 Red. masses --      4.2160                 4.7548                 1.1838
 Frc consts  --      1.2876                 1.6708                 0.4300
 IR Inten    --      4.2283                 2.0131                 1.3977

                     16                     17                     18
                      A                      A                      A
 Frequencies --    843.8165               916.2518               960.4580
 Red. masses --      1.3362                 3.6957                 2.1511
 Frc consts  --      0.5605                 1.8280                 1.1691
 IR Inten    --     13.6237                 9.7259                 7.4450

                     19                     20                     21
                      A                      A                      A
 Frequencies --    981.1638              1003.6547              1016.1005
 Red. masses --      2.2532                 1.9816                 1.7444
 Frc consts  --      1.2780                 1.1761                 1.0611
 IR Inten    --      3.2513                 7.8600                14.9480

                     22                     23                     24
                      A                      A                      A
 Frequencies --   1077.0307              1106.6077              1115.6193
 Red. masses --      2.1998                 3.7828                 1.5960
 Frc consts  --      1.5034                 2.7293                 1.1704
 IR Inten    --     19.3428                56.5364                 5.3908

                     25                     26                     27
                      A                      A                      A
 Frequencies --   1186.2243              1201.0657              1222.2821
 Red. masses --      1.9015                 2.2732                 1.7009
 Frc consts  --      1.5765                 1.9320                 1.4972
 IR Inten    --     96.6804                 1.8886                94.0887

                     28                     29                     30
                      A                      A                      A
 Frequencies --   1269.9100              1284.8870              1338.5665
 Red. masses --      1.0880                 1.2001                 1.6961
 Frc consts  --      1.0338                 1.1673                 1.7906
 IR Inten    --      1.7720                 1.9323                11.4481

                     31                     32                     33
                      A                      A                      A
 Frequencies --   1351.1100              1381.8623              1411.1810
 Red. masses --      1.6445                 1.5570                 1.2306
 Frc consts  --      1.7688                 1.7517                 1.4439
 IR Inten    --     16.5757                13.0269                 1.0634

                     34                     35                     36
                      A                      A                      A
 Frequencies --   1430.2429              1453.9419              1479.8011
 Red. masses --      1.5681                 1.0890                 1.0725
 Frc consts  --      1.8899                 1.3563                 1.3838
 IR Inten    --     28.0350                 2.6070                 3.5094

                     37                     38                     39
                      A                      A                      A
 Frequencies --   1499.2614              1505.0394              1507.3756
 Red. masses --      1.0545                 1.0673                 1.0756
 Frc consts  --      1.3966                 1.4244                 1.4400
 IR Inten    --      7.9658                 1.5005                 1.5684

                     40                     41                     42
                      A                      A                      A
 Frequencies --   1756.2358              1845.8226              3001.7814
 Red. masses --      7.5266                12.4804                 1.0675
 Frc consts  --     13.6777                25.0529                 5.6674
 IR Inten    --      1.7617               364.1233                32.4347

                     43                     44                     45
                      A                      A                      A
 Frequencies --   3006.5425              3009.6390              3038.3300
 Red. masses --      1.0718                 1.0667                 1.0350
 Frc consts  --      5.7080                 5.6925                 5.6292
 IR Inten    --     14.4378                23.8170                27.4525

                     46                     47                     48
                      A                      A                      A
 Frequencies --   3057.2215              3068.1274              3084.7160
 Red. masses --      1.0939                 1.0951                 1.0876
 Frc consts  --      6.0238                 6.0738                 6.0974
 IR Inten    --     22.5443                10.6942                 6.9644

                     49                     50                     51
                      A                      A                      A
 Frequencies --   3108.6834              3112.7826              3158.7794
 Red. masses --      1.1015                 1.1023                 1.0905
 Frc consts  --      6.2718                 6.2931                 6.4110
 IR Inten    --     36.3209                28.2902                16.4141

 - Thermochemistry -
 -------------------
 Temperature   298.150 Kelvin.  Pressure   1.00000 Atm.
 Atom     1 has atomic number  6 and mass  12.00000

 Molecular mass:   126.06808 amu.
 Principal axes and moments of inertia in atomic units:
                           1         2         3
     Eigenvalues --   428.227811885.535162182.38475
           X            0.99981  -0.01937   0.00078
           Y            0.01937   0.99980  -0.00570
           Z           -0.00067   0.00571   0.99998
 This molecule is an asymmetric top.
 Rotational symmetry number  1.
 Rotational temperatures (Kelvin)      0.20226     0.04594     0.03969
 Rotational constants (GHZ):           4.21444     0.95715     0.82696
 Zero-point vibrational energy     417924.3 (Joules/Mol)
                                   99.88630 (Kcal/Mol)
 Warning -- explicit consideration of  12 degrees of freedom as
           vibrations may cause significant error
 Vibrational temperatures:     45.83   101.42   174.93   236.53   320.70
          (Kelvin)            419.40   499.21   605.47   655.63   758.30
                              790.74   862.00  1035.86  1111.14  1129.68
                             1214.06  1318.28  1381.88  1411.67  1444.03
                             1461.94  1549.61  1592.16  1605.13  1706.71
                             1728.06  1758.59  1827.11  1848.66  1925.90
                             1943.94  1988.19  2030.37  2057.80  2091.90
                             2129.10  2157.10  2165.41  2168.77  2526.83
                             2655.72  4318.89  4325.74  4330.19  4371.47
                             4398.65  4414.35  4438.21  4472.70  4478.59
                             4544.77

 Zero-point correction=                           0.159179 (Hartree/Particle)
 Thermal correction to Energy=                    0.168179
 Thermal correction to Enthalpy=                  0.169123
 Thermal correction to Gibbs Free Energy=         0.124179
 Sum of electronic and zero-point Energies=           -423.077002
 Sum of electronic and thermal Energies=              -423.068002
 Sum of electronic and thermal Enthalpies=            -423.067058
 Sum of electronic and thermal Free Energies=         -423.112002

                     E (Thermal)             CV                S
                      KCal/Mol        Cal/Mol-Kelvin    Cal/Mol-Kelvin
 Total                  105.534             32.500             94.594
 Electronic               0.000              0.000              0.000
 Translational            0.889              2.981             40.409
 Rotational               0.889              2.981             28.957
 Vibrational            103.757             26.539             25.229
 Vibration     1          0.594              1.983              5.711
 Vibration     2          0.598              1.968              4.140
 Vibration     3          0.609              1.931              3.075
 Vibration     4          0.623              1.886              2.499
 Vibration     5          0.649              1.806              1.935
 Vibration     6          0.687              1.690              1.465
 Vibration     7          0.725              1.581              1.180
 Vibration     8          0.783              1.425              0.889
 Vibration     9          0.814              1.348              0.779
 Vibration    10          0.882              1.190              0.594
 Vibration    11          0.905              1.141              0.545
 Vibration    12          0.957              1.034              0.451

 Normal termination of Gaussian 09 at Tue Jan 28 13:19:25 2020.
