 Gaussian 09, Revision D.01,
 Gaussian 09:  ES64L-G09RevD.01 24-Apr-2013

 -----------------------------
 # b3lyp 6-31G(2df,p) opt Freq
 -----------------------------

 -----
 titel
 -----
 Symbolic Z-matrix:
 Charge =  0 Multiplicity = 1

 SCF Done:  E(RB3LYP) =  -423.140882415     A.U. after   14 cycles
 Optimization completed.
    -- Stationary point found.
 Normal termination of Gaussian 09 at Mon Jan 27 17:14:06 2020.

 ----------------------------------------------------------------------
 #N Geom=AllCheck Guess=TCheck SCRF=Check GenChk RB3LYP/6-31G(2df,p) Fr
 eq
 ----------------------------------------------------------------------

 Structure from the checkpoint file:  "/scratch/puck/g09_8d3fabe1-276b-48f2-a426-67a886d2cb0c/Gau-62692.chk"
 -----
 titel
 -----
 Charge =  0 Multiplicity = 1

                         Standard orientation:
 ---------------------------------------------------------------------
 Center     Atomic      Atomic             Coordinates (Angstroms)
 Number     Number       Type             X           Y           Z
 ---------------------------------------------------------------------
      1          6           0        0.380848    2.181419   -0.160988
      2          6           0        0.467455    0.697715    0.030877
      3          6           0        0.847943   -0.024643    1.358620
      4          6           0        0.278059   -1.263137    0.591053
      5          6           0        1.258369   -1.324850   -0.587550
      6          8           0        1.352471    0.080571   -0.928815
      7          6           0       -0.736619   -0.264065    0.003330
      8          6           0       -1.947427   -0.358353   -0.795986
      9          8           0       -1.978436    0.033934    0.599027
     10          1           0        1.343635    2.657807    0.045833
     11          1           0        0.100240    2.415836   -1.192567
     12          1           0       -0.372684    2.601397    0.510742
     13          1           0        1.907074   -0.031007    1.627071
     14          1           0        0.219953    0.271104    2.200109
     15          1           0       -0.015722   -2.190665    1.078587
     16          1           0        2.247283   -1.711876   -0.314797
     17          1           0        0.875303   -1.893962   -1.442757
     18          1           0       -2.199248    0.431361   -1.501881
     19          1           0       -2.389888   -1.330549   -1.008171
 ---------------------------------------------------------------------

 SCF Done:  E(RB3LYP) =  -423.140882415     A.U. after    1 cycles

 The electronic state is 1-A.
 Alpha  occ. eigenvalues --  -19.15436 -19.13485 -10.24047 -10.24021 -10.23463
 Alpha  occ. eigenvalues --  -10.22951 -10.20045 -10.18667 -10.17844  -1.07594
 Alpha  occ. eigenvalues --   -1.03760  -0.82988  -0.76080  -0.68271  -0.67303
 Alpha  occ. eigenvalues --   -0.63257  -0.57506  -0.54203  -0.50977  -0.48725
 Alpha  occ. eigenvalues --   -0.48230  -0.45660  -0.42509  -0.41577  -0.40071
 Alpha  occ. eigenvalues --   -0.37594  -0.36753  -0.35762  -0.34699  -0.34223
 Alpha  occ. eigenvalues --   -0.31791  -0.29517  -0.27205  -0.23184
 Alpha virt. eigenvalues --    0.08440   0.09943   0.10243   0.11355   0.11682
 Alpha virt. eigenvalues --    0.13727   0.14549   0.14917   0.15561   0.16991
 Alpha virt. eigenvalues --    0.17467   0.18364   0.18566   0.20376   0.21482

 Mulliken charges:
               1
     1  C   -0.502692
     2  C    0.350109
     3  C   -0.285582
     4  C   -0.182018
     5  C   -0.078517
     6  O   -0.315071
     7  C    0.489046
     8  C   -0.310325
     9  O   -0.303058
    10  H    0.129362
    11  H    0.128523
    12  H    0.133594
    13  H    0.097931
    14  H    0.120857
    15  H    0.083091
    16  H    0.102120
    17  H    0.101579
    18  H    0.121980
    19  H    0.119073
 Sum of Mulliken charges =   0.00000

 Dipole moment (field-independent basis, Debye):
    X=              0.1747    Y=             -0.8547    Z=             -0.1638  Tot=              0.8876
 Quadrupole moment (field-independent basis, Debye-Ang):
   XX=            -56.1981   YY=            -49.1456   ZZ=            -53.7329
   XY=             -0.2394   XZ=              5.5003   YZ=              0.6915

  Exact polarizability:  78.354  -0.997  77.422   6.002   1.352  69.296
 Approx polarizability: 111.988  -1.372 106.621   3.336   2.466 108.061

                      1                      2                      3
                      A                      A                      A
 Frequencies --    155.0444               192.2020               194.0649
 Red. masses --      2.2678                 2.7740                 1.3197
 Frc consts  --      0.0321                 0.0604                 0.0293
 IR Inten    --      3.0723                 0.6866                 0.1816

                      4                      5                      6
                      A                      A                      A
 Frequencies --    247.2949               280.1920               365.0843
 Red. masses --      2.8660                 2.5524                 3.1101
 Frc consts  --      0.1033                 0.1181                 0.2442
 IR Inten    --      4.0640                 2.9108                 6.2937

                      7                      8                      9
                      A                      A                      A
 Frequencies --    419.7372               434.6393               565.8650
 Red. masses --      2.2592                 3.0116                 3.3845
 Frc consts  --      0.2345                 0.3352                 0.6385
 IR Inten    --      0.5331                 0.4281                 3.2893

                     10                     11                     12
                      A                      A                      A
 Frequencies --    631.7986               634.6973               679.2855
 Red. masses --      3.7572                 3.8882                 3.1090
 Frc consts  --      0.8836                 0.9229                 0.8452
 IR Inten    --      4.6926                 3.6677                 1.0663

                     13                     14                     15
                      A                      A                      A
 Frequencies --    811.0781               852.8053               885.3406
 Red. masses --      2.3753                 2.7913                 2.3987
 Frc consts  --      0.9206                 1.1961                 1.1078
 IR Inten    --      0.6452                 2.5345                16.8699

                     16                     17                     18
                      A                      A                      A
 Frequencies --    894.7190               919.9339               937.2613
 Red. masses --      4.6424                 2.5617                 1.7182
 Frc consts  --      2.1896                 1.2773                 0.8893
 IR Inten    --     24.3414                 3.5860                 8.4090

                     19                     20                     21
                      A                      A                      A
 Frequencies --    953.3372               984.2398              1018.2035
 Red. masses --      1.9835                 3.7703                 1.4788
 Frc consts  --      1.0621                 2.1519                 0.9033
 IR Inten    --     19.2098                58.0933                17.0260

                     22                     23                     24
                      A                      A                      A
 Frequencies --   1044.0855              1078.3989              1109.9813
 Red. masses --      2.1588                 1.4688                 1.3087
 Frc consts  --      1.3865                 1.0064                 0.9500
 IR Inten    --     19.8581                 8.7393                 2.9424

                     25                     26                     27
                      A                      A                      A
 Frequencies --   1117.3365              1131.7929              1154.7632
 Red. masses --      1.7479                 1.9624                 1.4761
 Frc consts  --      1.2857                 1.4810                 1.1597
 IR Inten    --     14.2761                 7.2637                 0.8503

                     28                     29                     30
                      A                      A                      A
 Frequencies --   1170.2073              1185.0503              1212.2594
 Red. masses --      1.5791                 1.4447                 2.1999
 Frc consts  --      1.2741                 1.1953                 1.9048
 IR Inten    --     10.2571                 0.3769                15.2925

                     31                     32                     33
                      A                      A                      A
 Frequencies --   1233.4664              1260.9657              1341.8724
 Red. masses --      1.5132                 1.7833                 2.4905
 Frc consts  --      1.3564                 1.6707                 2.6422
 IR Inten    --      1.2664                 0.8974                14.2491

                     34                     35                     36
                      A                      A                      A
 Frequencies --   1358.8458              1419.2901              1450.3319
 Red. masses --      1.4135                 1.6669                 1.6168
 Frc consts  --      1.5378                 1.9784                 2.0038
 IR Inten    --      4.3346                14.9600                 9.6801

                     37                     38                     39
                      A                      A                      A
 Frequencies --   1480.2203              1484.4996              1493.9503
 Red. masses --      1.0580                 1.1296                 1.0820
 Frc consts  --      1.3658                 1.4666                 1.4228
 IR Inten    --      3.4343                 5.1677                 4.2420

                     40                     41                     42
                      A                      A                      A
 Frequencies --   1527.3626              1550.5744              3021.6419
 Red. masses --      1.1232                 2.1202                 1.0557
 Frc consts  --      1.5438                 3.0034                 5.6790
 IR Inten    --      0.9376                13.6239                71.5818

                     43                     44                     45
                      A                      A                      A
 Frequencies --   3042.8528              3061.8242              3069.9088
 Red. masses --      1.0351                 1.1098                 1.0581
 Frc consts  --      5.6469                 6.1302                 5.8752
 IR Inten    --     15.5230                27.0075                34.6855

                     46                     47                     48
                      A                      A                      A
 Frequencies --   3086.3649              3112.2166              3124.2303
 Red. masses --      1.0508                 1.1011                 1.1015
 Frc consts  --      5.8975                 6.2838                 6.3348
 IR Inten    --     21.2597                14.7841                 9.0218

                     49                     50                     51
                      A                      A                      A
 Frequencies --   3141.8389              3144.4045              3172.9776
 Red. masses --      1.0968                 1.1036                 1.1189
 Frc consts  --      6.3788                 6.4287                 6.6372
 IR Inten    --     20.6048                20.4696                17.4728

 - Thermochemistry -
 -------------------
 Temperature   298.150 Kelvin.  Pressure   1.00000 Atm.
 Atom     1 has atomic number  6 and mass  12.00000

 Molecular mass:   126.06808 amu.
 Principal axes and moments of inertia in atomic units:
                           1         2         3
     Eigenvalues --   758.46298 974.248491208.02056
           X            0.99842  -0.00743   0.05563
           Y            0.00686   0.99992   0.01054
           Z           -0.05570  -0.01014   0.99840
 This molecule is an asymmetric top.
 Rotational symmetry number  1.
 Warning -- assumption of classical behavior for rotation
           may cause significant error
 Rotational temperatures (Kelvin)      0.11420     0.08890     0.07170
 Rotational constants (GHZ):           2.37947     1.85244     1.49397
 Zero-point vibrational energy     417738.0 (Joules/Mol)
                                   99.84178 (Kcal/Mol)
 Warning -- explicit consideration of   9 degrees of freedom as
           vibrations may cause significant error
 Vibrational temperatures:    223.07   276.54   279.22   355.80   403.13
          (Kelvin)            525.27   603.91   625.35   814.15   909.02
                              913.19   977.34  1166.96  1227.00  1273.81
                             1287.30  1323.58  1348.51  1371.64  1416.10
                             1464.97  1502.20  1551.57  1597.01  1607.60
                             1628.40  1661.44  1683.67  1705.02  1744.17
                             1774.68  1814.25  1930.65  1955.07  2042.04
                             2086.70  2129.70  2135.86  2149.46  2197.53
                             2230.93  4347.46  4377.98  4405.28  4416.91
                             4440.59  4477.78  4495.06  4520.40  4524.09
                             4565.20

 Zero-point correction=                           0.159108 (Hartree/Particle)
 Thermal correction to Energy=                    0.166902
 Thermal correction to Enthalpy=                  0.167847
 Thermal correction to Gibbs Free Energy=         0.127292
 Sum of electronic and zero-point Energies=           -422.981774
 Sum of electronic and thermal Energies=              -422.973980
 Sum of electronic and thermal Enthalpies=            -422.973036
 Sum of electronic and thermal Free Energies=         -423.013591

                     E (Thermal)             CV                S
                      KCal/Mol        Cal/Mol-Kelvin    Cal/Mol-Kelvin
 Total                  104.733             31.090             85.355
 Electronic               0.000              0.000              0.000
 Translational            0.889              2.981             40.409
 Rotational               0.889              2.981             28.281
 Vibrational            102.955             25.128             16.665
 Vibration     1          0.620              1.897              2.609
 Vibration     2          0.634              1.851              2.206
 Vibration     3          0.635              1.848              2.189
 Vibration     4          0.661              1.767              1.750
 Vibration     5          0.680              1.710              1.533
 Vibration     6          0.738              1.544              1.100
 Vibration     7          0.782              1.427              0.893
 Vibration     8          0.795              1.395              0.844
 Vibration     9          0.922              1.105              0.512

 Optimization completed.
    -- Stationary point found.
 Normal termination of Gaussian 09 at Mon Jan 27 17:57:24 2020.
