 Gaussian 09, Revision D.01,
 Gaussian 09:  ES64L-G09RevD.01 24-Apr-2013

 -----------------------------
 # b3lyp 6-31G(2df,p) opt Freq
 -----------------------------

 -----
 titel
 -----
 Symbolic Z-matrix:
 Charge =  0 Multiplicity = 1

 SCF Done:  E(RB3LYP) =  -423.209239245     A.U. after   14 cycles
 Optimization completed.
    -- Stationary point found.
 Normal termination of Gaussian 09 at Tue Jan 28 03:55:26 2020.

 ----------------------------------------------------------------------
 #N Geom=AllCheck Guess=TCheck SCRF=Check GenChk RB3LYP/6-31G(2df,p) Fr
 eq
 ----------------------------------------------------------------------

 Structure from the checkpoint file:  "/scratch/puck/g09_3badefbe-ba20-4f96-a30d-21547c5780ad/Gau-8781.chk"
 -----
 titel
 -----
 Charge =  0 Multiplicity = 1

                         Standard orientation:
 ---------------------------------------------------------------------
 Center     Atomic      Atomic             Coordinates (Angstroms)
 Number     Number       Type             X           Y           Z
 ---------------------------------------------------------------------
      1          6           0        2.497580   -0.001593   -0.182976
      2          6           0        1.134566   -0.695027   -0.169086
      3          6           0        0.467383   -0.710766    1.262546
      4          6           0       -0.868288    0.013363    1.030710
      5          8           0       -1.720938   -0.828545    0.244334
      6          6           0       -1.181324   -0.846440   -1.103781
      7          6           0        0.069585    0.040834   -1.035188
      8          6           0       -0.436401    1.062179   -0.006405
      9          8           0       -0.453583    2.259068   -0.000023
     10          1           0        3.196622   -0.507470    0.491050
     11          1           0        2.935543   -0.003864   -1.186497
     12          1           0        2.415290    1.041355    0.143239
     13          1           0        1.249695   -1.718450   -0.540889
     14          1           0        0.293255   -1.722595    1.635345
     15          1           0        1.086748   -0.177416    1.991812
     16          1           0       -1.410697    0.362827    1.906615
     17          1           0       -0.952952   -1.881381   -1.386530
     18          1           0       -1.933731   -0.451246   -1.797160
     19          1           0        0.417786    0.438749   -1.986380
 ---------------------------------------------------------------------

 SCF Done:  E(RB3LYP) =  -423.209239245     A.U. after    1 cycles

 The electronic state is 1-A.
 Alpha  occ. eigenvalues --  -19.14749 -19.14545 -10.27171 -10.23998 -10.23830
 Alpha  occ. eigenvalues --  -10.20723 -10.20072 -10.19286 -10.18442  -1.06027
 Alpha  occ. eigenvalues --   -1.03757  -0.84316  -0.76439  -0.73612  -0.67183
 Alpha  occ. eigenvalues --   -0.62100  -0.56547  -0.55727  -0.50037  -0.49177
 Alpha  occ. eigenvalues --   -0.46612  -0.44244  -0.42787  -0.41382  -0.40322
 Alpha  occ. eigenvalues --   -0.39417  -0.38785  -0.37977  -0.36756  -0.34953
 Alpha  occ. eigenvalues --   -0.33132  -0.32503  -0.27298  -0.22780
 Alpha virt. eigenvalues --   -0.02198   0.08326   0.10186   0.11515   0.12688
 Alpha virt. eigenvalues --    0.13566   0.14143   0.14940   0.15494   0.16021
 Alpha virt. eigenvalues --    0.17413   0.17871   0.19033   0.20016   0.20267

 Mulliken charges:
               1
     1  C   -0.421694
     2  C    0.024683
     3  C   -0.248359
     4  C    0.003273
     5  O   -0.289008
     6  C   -0.088704
     7  C   -0.158099
     8  C    0.429258
     9  O   -0.326907
    10  H    0.119535
    11  H    0.117888
    12  H    0.132157
    13  H    0.080492
    14  H    0.115929
    15  H    0.109294
    16  H    0.095923
    17  H    0.104282
    18  H    0.111810
    19  H    0.088247
 Sum of Mulliken charges =   0.00000

 Dipole moment (field-independent basis, Debye):
    X=              1.5939    Y=             -2.0343    Z=             -0.4779  Tot=              2.6282
 Quadrupole moment (field-independent basis, Debye-Ang):
   XX=            -54.9010   YY=            -60.2820   ZZ=            -49.3505
   XY=             -0.8094   XZ=              1.1010   YZ=              1.0566

  Exact polarizability:  74.989  -0.513  73.781   0.653   1.225  73.187
 Approx polarizability: 102.232   0.054 119.429  -0.291   2.182 107.160

                      1                      2                      3
                      A                      A                      A
 Frequencies --    103.7835               139.9560               245.9226
 Red. masses --      3.3845                 4.6386                 2.0817
 Frc consts  --      0.0215                 0.0535                 0.0742
 IR Inten    --      0.6175                 4.0715                 1.8139

                      4                      5                      6
                      A                      A                      A
 Frequencies --    253.3936               299.9626               380.8557
 Red. masses --      1.2117                 2.5416                 2.7716
 Frc consts  --      0.0458                 0.1347                 0.2369
 IR Inten    --      0.7688                 0.9999                 1.4451

                      7                      8                      9
                      A                      A                      A
 Frequencies --    412.6749               470.1261               584.7354
 Red. masses --      3.4959                 2.8226                 4.4852
 Frc consts  --      0.3508                 0.3676                 0.9035
 IR Inten    --      1.1414                 6.3262                 0.8259

                     10                     11                     12
                      A                      A                      A
 Frequencies --    633.3960               708.1657               777.2068
 Red. masses --      5.2316                 4.1828                 2.6617
 Frc consts  --      1.2366                 1.2359                 0.9473
 IR Inten    --      1.5850                16.1299                 0.3048

                     13                     14                     15
                      A                      A                      A
 Frequencies --    802.1425               853.6034               865.0114
 Red. masses --      4.1181                 3.5380                 2.6497
 Frc consts  --      1.5612                 1.5189                 1.1681
 IR Inten    --      4.3101                 6.1427                 3.5053

                     16                     17                     18
                      A                      A                      A
 Frequencies --    902.0348               931.2725               970.0990
 Red. masses --      4.8321                 1.5965                 2.1422
 Frc consts  --      2.3165                 0.8158                 1.1878
 IR Inten    --      9.9447                 4.7877                15.3163

                     19                     20                     21
                      A                      A                      A
 Frequencies --    982.3370              1014.9380              1027.7846
 Red. masses --      2.0512                 1.5707                 1.4991
 Frc consts  --      1.1662                 0.9533                 0.9330
 IR Inten    --      3.1972                 0.4567                 0.2785

                     22                     23                     24
                      A                      A                      A
 Frequencies --   1042.3523              1109.1844              1129.7932
 Red. masses --      3.1815                 2.0238                 1.6467
 Frc consts  --      2.0367                 1.4670                 1.2384
 IR Inten    --     40.9082                 7.9243                 3.1731

                     25                     26                     27
                      A                      A                      A
 Frequencies --   1145.6671              1167.1005              1183.1521
 Red. masses --      2.5578                 1.7936                 1.3788
 Frc consts  --      1.9781                 1.4395                 1.1372
 IR Inten    --     43.6627                 4.9385                 2.3062

                     28                     29                     30
                      A                      A                      A
 Frequencies --   1227.0427              1240.5473              1261.1961
 Red. masses --      1.5248                 1.4337                 1.5855
 Frc consts  --      1.3526                 1.3000                 1.4859
 IR Inten    --      1.6234                 5.8810                 4.8565

                     31                     32                     33
                      A                      A                      A
 Frequencies --   1297.9933              1315.7885              1324.4502
 Red. masses --      1.2910                 1.5163                 1.3891
 Frc consts  --      1.2815                 1.5467                 1.4357
 IR Inten    --      1.8309                 1.3202                 5.9502

                     34                     35                     36
                      A                      A                      A
 Frequencies --   1360.1881              1386.3345              1417.6104
 Red. masses --      1.4119                 1.3738                 1.2318
 Frc consts  --      1.5391                 1.5557                 1.4585
 IR Inten    --      7.8081                 1.7293                 3.0553

                     37                     38                     39
                      A                      A                      A
 Frequencies --   1476.1943              1498.0956              1500.4791
 Red. masses --      1.0910                 1.0453                 1.0471
 Frc consts  --      1.4007                 1.3821                 1.3891
 IR Inten    --      2.9826                 3.2945                 3.5095

                     40                     41                     42
                      A                      A                      A
 Frequencies --   1529.6927              1890.7148              3015.0973
 Red. masses --      1.0911                12.3396                 1.0560
 Frc consts  --      1.5043                25.9898                 5.6560
 IR Inten    --      0.2735               234.5275                69.9570

                     43                     44                     45
                      A                      A                      A
 Frequencies --   3029.3933              3042.2672              3049.7494
 Red. masses --      1.0354                 1.0848                 1.0634
 Frc consts  --      5.5982                 5.9157                 5.8273
 IR Inten    --     18.2032                17.3293                16.9425

                     46                     47                     48
                      A                      A                      A
 Frequencies --   3054.5259              3099.4174              3101.7699
 Red. masses --      1.1104                 1.1015                 1.1016
 Frc consts  --      6.1041                 6.2342                 6.2445
 IR Inten    --     39.0826                23.2855                23.3082

                     49                     50                     51
                      A                      A                      A
 Frequencies --   3109.7005              3141.3704              3150.1977
 Red. masses --      1.1028                 1.0889                 1.0911
 Frc consts  --      6.2832                 6.3312                 6.3793
 IR Inten    --     20.0945                15.0667                15.3274

 - Thermochemistry -
 -------------------
 Temperature   298.150 Kelvin.  Pressure   1.00000 Atm.
 Atom     1 has atomic number  6 and mass  12.00000

 Molecular mass:   126.06808 amu.
 Principal axes and moments of inertia in atomic units:
                           1         2         3
     Eigenvalues --   787.221121029.989411227.84826
           X            0.99991   0.00122   0.01315
           Y           -0.00144   0.99986   0.01666
           Z           -0.01313  -0.01668   0.99977
 This molecule is an asymmetric top.
 Rotational symmetry number  1.
 Warning -- assumption of classical behavior for rotation
           may cause significant error
 Rotational temperatures (Kelvin)      0.11002     0.08409     0.07054
 Rotational constants (GHZ):           2.29255     1.75219     1.46984
 Zero-point vibrational energy     422619.5 (Joules/Mol)
                                  101.00849 (Kcal/Mol)
 Warning -- explicit consideration of   9 degrees of freedom as
           vibrations may cause significant error
 Vibrational temperatures:    149.32   201.37   353.83   364.58   431.58
          (Kelvin)            547.97   593.75   676.41   841.30   911.31
                             1018.89  1118.23  1154.10  1228.14  1244.56
                             1297.83  1339.89  1395.75  1413.36  1460.27
                             1478.75  1499.71  1595.87  1625.52  1648.36
                             1679.20  1702.29  1765.44  1784.87  1814.58
                             1867.52  1893.12  1905.59  1957.00  1994.62
                             2039.62  2123.91  2155.42  2158.85  2200.88
                             2720.31  4338.05  4358.62  4377.14  4387.90
                             4394.78  4459.36  4462.75  4474.16  4519.73
                             4532.43

 Zero-point correction=                           0.160967 (Hartree/Particle)
 Thermal correction to Energy=                    0.168668
 Thermal correction to Enthalpy=                  0.169613
 Thermal correction to Gibbs Free Energy=         0.128869
 Sum of electronic and zero-point Energies=           -423.048272
 Sum of electronic and thermal Energies=              -423.040571
 Sum of electronic and thermal Enthalpies=            -423.039627
 Sum of electronic and thermal Free Energies=         -423.080370

                     E (Thermal)             CV                S
                      KCal/Mol        Cal/Mol-Kelvin    Cal/Mol-Kelvin
 Total                  105.841             30.216             85.752
 Electronic               0.000              0.000              0.000
 Translational            0.889              2.981             40.409
 Rotational               0.889              2.981             28.389
 Vibrational            104.064             24.255             16.955
 Vibration     1          0.605              1.946              3.382
 Vibration     2          0.615              1.913              2.804
 Vibration     3          0.660              1.770              1.760
 Vibration     4          0.665              1.757              1.707
 Vibration     5          0.692              1.674              1.417
 Vibration     6          0.751              1.511              1.036
 Vibration     7          0.776              1.443              0.917
 Vibration     8          0.827              1.316              0.737
 Vibration     9          0.942              1.064              0.477

 Optimization completed.
    -- Stationary point found.
 Normal termination of Gaussian 09 at Tue Jan 28 04:39:25 2020.
