 Gaussian 09, Revision D.01,
 Gaussian 09:  ES64L-G09RevD.01 24-Apr-2013

 -----------------------------
 # b3lyp 6-31G(2df,p) opt Freq
 -----------------------------

 -----
 titel
 -----
 Symbolic Z-matrix:
 Charge =  0 Multiplicity = 1

 SCF Done:  E(RB3LYP) =  -423.150330528     A.U. after   14 cycles
 Optimization completed.
    -- Stationary point found.
 Normal termination of Gaussian 09 at Tue Jan 28 09:03:39 2020.

 ----------------------------------------------------------------------
 #N Geom=AllCheck Guess=TCheck SCRF=Check GenChk RB3LYP/6-31G(2df,p) Fr
 eq
 ----------------------------------------------------------------------

 Structure from the checkpoint file:  "/scratch/puck/g09_69ff7e8b-20b7-4ecb-a223-0e5e6cb7376e/Gau-94247.chk"
 -----
 titel
 -----
 Charge =  0 Multiplicity = 1

                         Standard orientation:
 ---------------------------------------------------------------------
 Center     Atomic      Atomic             Coordinates (Angstroms)
 Number     Number       Type             X           Y           Z
 ---------------------------------------------------------------------
      1          6           0       -1.903191    1.640309    0.276620
      2          6           0       -0.920402    0.990393   -0.704899
      3          6           0       -0.082543   -0.102757   -0.064865
      4          8           0        0.626053    0.302479    1.154147
      5          6           0        1.856838   -0.212267    0.638823
      6          6           0        2.280901    0.548913   -0.570346
      7          6           0        1.246128   -0.552274   -0.702701
      8          6           0       -0.890264   -1.353505    0.276691
      9          8           0       -1.879155   -1.706785   -0.310032
     10          1           0       -2.458079    2.445491   -0.212956
     11          1           0       -2.630552    0.913135    0.649119
     12          1           0       -1.370191    2.061892    1.133165
     13          1           0       -1.465187    0.532593   -1.537648
     14          1           0       -0.253802    1.749093   -1.126095
     15          1           0        2.503076   -0.755077    1.317768
     16          1           0        2.012415    1.595731   -0.672544
     17          1           0        3.252719    0.279741   -0.972955
     18          1           0        1.370583   -1.408900   -1.350756
     19          1           0       -0.460969   -1.932110    1.124037
 ---------------------------------------------------------------------

 SCF Done:  E(RB3LYP) =  -423.150330528     A.U. after    1 cycles

 The electronic state is 1-A.
 Alpha  occ. eigenvalues --  -19.15248 -19.14849 -10.27267 -10.25331 -10.25217
 Alpha  occ. eigenvalues --  -10.21144 -10.20218 -10.18594 -10.17301  -1.06809
 Alpha  occ. eigenvalues --   -1.05178  -0.84479  -0.79067  -0.71577  -0.63229
 Alpha  occ. eigenvalues --   -0.61205  -0.59962  -0.53439  -0.52534  -0.49976
 Alpha  occ. eigenvalues --   -0.46999  -0.45966  -0.43303  -0.41381  -0.40197
 Alpha  occ. eigenvalues --   -0.39532  -0.38483  -0.36704  -0.34652  -0.34299
 Alpha  occ. eigenvalues --   -0.32386  -0.29474  -0.26867  -0.24035
 Alpha virt. eigenvalues --   -0.03252   0.07591   0.10081   0.10538   0.11130
 Alpha virt. eigenvalues --    0.12825   0.13712   0.14348   0.15891   0.16412
 Alpha virt. eigenvalues --    0.17110   0.18498   0.19722   0.20909   0.22290

 Mulliken charges:
               1
     1  C   -0.392018
     2  C   -0.245098
     3  C    0.311909
     4  O   -0.335380
     5  C    0.104880
     6  C   -0.313256
     7  C   -0.178641
     8  C    0.142566
     9  O   -0.255849
    10  H    0.114318
    11  H    0.130301
    12  H    0.134027
    13  H    0.122561
    14  H    0.098785
    15  H    0.111133
    16  H    0.123773
    17  H    0.122319
    18  H    0.112838
    19  H    0.090832
 Sum of Mulliken charges =   0.00000

 Dipole moment (field-independent basis, Debye):
    X=              2.5107    Y=              0.3699    Z=             -0.5156  Tot=              2.5896
 Quadrupole moment (field-independent basis, Debye-Ang):
   XX=            -53.2030   YY=            -54.1211   ZZ=            -54.3277
   XY=             -5.3753   XZ=             -1.7175   YZ=             -2.4540

  Exact polarizability:  88.859   1.345  71.813   1.590  -2.685  65.311
 Approx polarizability: 123.178   7.934 102.558   7.898   0.450 106.725

                      1                      2                      3
                      A                      A                      A
 Frequencies --     66.0745                91.1356               175.8658
 Red. masses --      4.2590                 2.4183                 3.1685
 Frc consts  --      0.0110                 0.0118                 0.0577
 IR Inten    --      6.8837                 1.0828                 0.0466

                      4                      5                      6
                      A                      A                      A
 Frequencies --    187.4124               210.5582               274.0483
 Red. masses --      3.3422                 1.2716                 2.2293
 Frc consts  --      0.0692                 0.0332                 0.0986
 IR Inten    --      3.4045                 1.0051                 1.8794

                      7                      8                      9
                      A                      A                      A
 Frequencies --    299.3924               390.0282               462.0260
 Red. masses --      2.0496                 3.8574                 4.0450
 Frc consts  --      0.1082                 0.3457                 0.5087
 IR Inten    --      4.9278                 1.1546                 7.8781

                     10                     11                     12
                      A                      A                      A
 Frequencies --    493.3580               525.4404               704.3765
 Red. masses --      2.6926                 3.7693                 2.4063
 Frc consts  --      0.3861                 0.6131                 0.7034
 IR Inten    --      2.0827                10.0803                 1.5185

                     13                     14                     15
                      A                      A                      A
 Frequencies --    758.0323               786.3980               808.2727
 Red. masses --      1.7527                 1.6097                 1.8052
 Frc consts  --      0.5934                 0.5865                 0.6949
 IR Inten    --     14.4333                16.3434                 3.2280

                     16                     17                     18
                      A                      A                      A
 Frequencies --    848.1192               915.7269               958.2386
 Red. masses --      3.2676                 2.4990                 2.0166
 Frc consts  --      1.3848                 1.2347                 1.0910
 IR Inten    --     24.8583                14.1258                25.8415

                     19                     20                     21
                      A                      A                      A
 Frequencies --    972.7097               979.6037               997.5029
 Red. masses --      1.5731                 2.1775                 2.3466
 Frc consts  --      0.8769                 1.2312                 1.3757
 IR Inten    --      1.3482                 6.1336                18.2542

                     22                     23                     24
                      A                      A                      A
 Frequencies --   1035.7548              1039.3872              1049.5597
 Red. masses --      2.2409                 1.5206                 1.4274
 Frc consts  --      1.4164                 0.9679                 0.9264
 IR Inten    --      5.9353                22.4350                18.2554

                     25                     26                     27
                      A                      A                      A
 Frequencies --   1067.7432              1087.7245              1129.1919
 Red. masses --      1.9217                 1.8218                 2.2012
 Frc consts  --      1.2908                 1.2700                 1.6536
 IR Inten    --      4.3913                33.6957                 5.6158

                     28                     29                     30
                      A                      A                      A
 Frequencies --   1154.0587              1203.0788              1251.3942
 Red. masses --      1.8143                 2.2580                 2.9679
 Frc consts  --      1.4237                 1.9256                 2.7384
 IR Inten    --     10.8538                 0.9609                 3.1181

                     31                     32                     33
                      A                      A                      A
 Frequencies --   1274.6325              1312.8942              1346.8436
 Red. masses --      1.5478                 1.3209                 1.9395
 Frc consts  --      1.4816                 1.3414                 2.0728
 IR Inten    --      3.9967                 1.2849                 6.1943

                     34                     35                     36
                      A                      A                      A
 Frequencies --   1365.0885              1401.8535              1408.6175
 Red. masses --      1.5544                 1.2881                 1.2294
 Frc consts  --      1.7066                 1.4915                 1.4373
 IR Inten    --      2.9603                 4.4620                 3.6953

                     37                     38                     39
                      A                      A                      A
 Frequencies --   1464.7075              1476.0840              1500.2911
 Red. masses --      1.1514                 1.1759                 1.0390
 Frc consts  --      1.4553                 1.5095                 1.3779
 IR Inten    --      1.8580                 9.3549                 5.5341

                     40                     41                     42
                      A                      A                      A
 Frequencies --   1510.1434              1829.7730              2896.7273
 Red. masses --      1.0574                10.8900                 1.0848
 Frc consts  --      1.4208                21.4818                 5.3630
 IR Inten    --      4.5182               151.9385                85.1462

                     43                     44                     45
                      A                      A                      A
 Frequencies --   3046.0264              3049.1461              3088.6686
 Red. masses --      1.0363                 1.0573                 1.1025
 Frc consts  --      5.6649                 5.7918                 6.1969
 IR Inten    --     17.0633                19.6634                 4.5924

                     46                     47                     48
                      A                      A                      A
 Frequencies --   3116.3441              3123.1969              3125.5745
 Red. masses --      1.1015                 1.0541                 1.1021
 Frc consts  --      6.3025                 6.0581                 6.3433
 IR Inten    --     25.1688                 9.2883                23.7732

                     49                     50                     51
                      A                      A                      A
 Frequencies --   3188.1810              3206.1713              3215.7482
 Red. masses --      1.0917                 1.1035                 1.1092
 Frc consts  --      6.5381                 6.6834                 6.7580
 IR Inten    --     17.2666                 1.2180                12.1333

 - Thermochemistry -
 -------------------
 Temperature   298.150 Kelvin.  Pressure   1.00000 Atm.
 Atom     1 has atomic number  6 and mass  12.00000

 Molecular mass:   126.06808 amu.
 Principal axes and moments of inertia in atomic units:
                           1         2         3
     Eigenvalues --   719.499141237.848101550.65566
           X            0.99686  -0.07782  -0.01464
           Y            0.07731   0.99648  -0.03244
           Z            0.01711   0.03121   0.99937
 This molecule is an asymmetric top.
 Rotational symmetry number  1.
 Warning -- assumption of classical behavior for rotation
           may cause significant error
 Rotational temperatures (Kelvin)      0.12038     0.06997     0.05586
 Rotational constants (GHZ):           2.50833     1.45797     1.16386
 Zero-point vibrational energy     411927.7 (Joules/Mol)
                                   98.45307 (Kcal/Mol)
 Warning -- explicit consideration of  11 degrees of freedom as
           vibrations may cause significant error
 Vibrational temperatures:     95.07   131.12   253.03   269.64   302.95
          (Kelvin)            394.29   430.76   561.16   664.75   709.83
                              755.99  1013.44  1090.64  1131.45  1162.92
                             1220.25  1317.53  1378.69  1399.51  1409.43
                             1435.18  1490.22  1495.44  1510.08  1536.24
                             1564.99  1624.65  1660.43  1730.96  1800.47
                             1833.91  1888.96  1937.81  1964.06  2016.95
                             2026.68  2107.38  2123.75  2158.58  2172.76
                             2632.63  4167.74  4382.55  4387.04  4443.90
                             4483.72  4493.58  4497.00  4587.08  4612.96
                             4626.74

 Zero-point correction=                           0.156895 (Hartree/Particle)
 Thermal correction to Energy=                    0.165825
 Thermal correction to Enthalpy=                  0.166769
 Thermal correction to Gibbs Free Energy=         0.122994
 Sum of electronic and zero-point Energies=           -422.993436
 Sum of electronic and thermal Energies=              -422.984506
 Sum of electronic and thermal Enthalpies=            -422.983561
 Sum of electronic and thermal Free Energies=         -423.027336

                     E (Thermal)             CV                S
                      KCal/Mol        Cal/Mol-Kelvin    Cal/Mol-Kelvin
 Total                  104.057             33.207             92.132
 Electronic               0.000              0.000              0.000
 Translational            0.889              2.981             40.409
 Rotational               0.889              2.981             28.714
 Vibrational            102.279             27.245             23.009
 Vibration     1          0.597              1.970              4.267
 Vibration     2          0.602              1.955              3.636
 Vibration     3          0.628              1.872              2.372
 Vibration     4          0.632              1.857              2.253
 Vibration     5          0.643              1.825              2.039
 Vibration     6          0.676              1.721              1.571
 Vibration     7          0.692              1.675              1.420
 Vibration     8          0.758              1.491              1.000
 Vibration     9          0.820              1.334              0.760
 Vibration    10          0.849              1.265              0.675
 Vibration    11          0.880              1.194              0.597

 Normal termination of Gaussian 09 at Tue Jan 28 09:46:17 2020.
