 Gaussian 09, Revision D.01,
 Gaussian 09:  ES64L-G09RevD.01 24-Apr-2013

 -----------------------------
 # b3lyp 6-31G(2df,p) opt Freq
 -----------------------------

 -----
 titel
 -----
 Symbolic Z-matrix:
 Charge =  0 Multiplicity = 1

 SCF Done:  E(RB3LYP) =  -423.210696185     A.U. after   14 cycles
 Optimization completed.
    -- Stationary point found.
 Normal termination of Gaussian 09 at Tue Jan 28 12:08:56 2020.

 ----------------------------------------------------------------------
 #N Geom=AllCheck Guess=TCheck SCRF=Check GenChk RB3LYP/6-31G(2df,p) Fr
 eq
 ----------------------------------------------------------------------

 Structure from the checkpoint file:  "/scratch/puck/g09_1c7946b7-240f-44b5-9a09-a1bb16e654a3/Gau-65842.chk"
 -----
 titel
 -----
 Charge =  0 Multiplicity = 1

                         Standard orientation:
 ---------------------------------------------------------------------
 Center     Atomic      Atomic             Coordinates (Angstroms)
 Number     Number       Type             X           Y           Z
 ---------------------------------------------------------------------
      1          6           0       -2.798850   -0.633686   -0.241827
      2          6           0       -1.709136   -0.268556    0.773686
      3          6           0       -0.423188    0.159343    0.117237
      4          6           0       -0.302117    1.479536   -0.685228
      5          6           0        1.063744    1.768379    0.010101
      6          6           0        0.935650    0.438212    0.819829
      7          6           0        1.413060   -0.765234    0.020462
      8          8           0        2.408707   -1.402043   -0.113458
      9          8           0        0.212772   -0.946421   -0.629398
     10          1           0       -3.051819    0.220038   -0.879276
     11          1           0       -2.464191   -1.449355   -0.888591
     12          1           0       -3.712552   -0.953006    0.266928
     13          1           0       -2.051747    0.547623    1.421824
     14          1           0       -1.501006   -1.125301    1.425686
     15          1           0       -0.279179    1.339905   -1.767096
     16          1           0       -1.077223    2.208882   -0.437664
     17          1           0        1.941125    1.840007   -0.634914
     18          1           0        1.036729    2.646685    0.656832
     19          1           0        1.113040    0.444275    1.893563
 ---------------------------------------------------------------------

 SCF Done:  E(RB3LYP) =  -423.210696185     A.U. after    1 cycles

 The electronic state is 1-A.
 Alpha  occ. eigenvalues --  -19.17371 -19.12867 -10.30221 -10.25623 -10.20762
 Alpha  occ. eigenvalues --  -10.20609 -10.19858 -10.19835 -10.18436  -1.09971
 Alpha  occ. eigenvalues --   -1.02692  -0.84923  -0.78513  -0.70753  -0.67554
 Alpha  occ. eigenvalues --   -0.62398  -0.58317  -0.52758  -0.51653  -0.48669
 Alpha  occ. eigenvalues --   -0.47252  -0.45025  -0.43485  -0.42178  -0.40367
 Alpha  occ. eigenvalues --   -0.39571  -0.38139  -0.36679  -0.35117  -0.34370
 Alpha  occ. eigenvalues --   -0.33922  -0.30524  -0.28967  -0.26645
 Alpha virt. eigenvalues --    0.01133   0.06658   0.08231   0.09539   0.11861
 Alpha virt. eigenvalues --    0.13186   0.13415   0.14099   0.14802   0.16204
 Alpha virt. eigenvalues --    0.17096   0.17891   0.19195   0.20540   0.21269

 Mulliken charges:
               1
     1  C   -0.385677
     2  C   -0.276135
     3  C    0.469856
     4  C   -0.279486
     5  C   -0.234355
     6  C   -0.302821
     7  C    0.447849
     8  O   -0.330476
     9  O   -0.290718
    10  H    0.120473
    11  H    0.142751
    12  H    0.118901
    13  H    0.104253
    14  H    0.111356
    15  H    0.123321
    16  H    0.111280
    17  H    0.127057
    18  H    0.118291
    19  H    0.104277
 Sum of Mulliken charges =   0.00000

 Dipole moment (field-independent basis, Debye):
    X=             -2.7247    Y=              3.0338    Z=              1.3370  Tot=              4.2913
 Quadrupole moment (field-independent basis, Debye-Ang):
   XX=            -58.3543   YY=            -54.8739   ZZ=            -51.8314
   XY=              5.3436   XZ=              0.3522   YZ=             -1.3982

  Exact polarizability:  87.183  -2.247  74.404   1.322   0.059  63.930
 Approx polarizability: 121.112  -9.640 108.646   2.390   2.646  97.656

                      1                      2                      3
                      A                      A                      A
 Frequencies --     89.3842               115.2419               158.5490
 Red. masses --      3.1892                 2.6170                 2.6779
 Frc consts  --      0.0150                 0.0205                 0.0397
 IR Inten    --      1.1278                 0.6762                 0.1472

                      4                      5                      6
                      A                      A                      A
 Frequencies --    211.9761               218.1640               330.2674
 Red. masses --      2.6981                 1.1804                 2.0665
 Frc consts  --      0.0714                 0.0331                 0.1328
 IR Inten    --      1.7552                 0.1065                 0.4450

                      7                      8                      9
                      A                      A                      A
 Frequencies --    366.7873               398.7528               479.6156
 Red. masses --      3.8024                 3.8510                 4.2765
 Frc consts  --      0.3014                 0.3608                 0.5796
 IR Inten    --      1.0933                 2.6655                 1.9080

                     10                     11                     12
                      A                      A                      A
 Frequencies --    626.0854               655.2477               739.4370
 Red. masses --      3.7328                 3.5789                 1.3457
 Frc consts  --      0.8621                 0.9053                 0.4335
 IR Inten    --      1.0327                 1.4215                 2.0230

                     13                     14                     15
                      A                      A                      A
 Frequencies --    751.2896               784.1084               825.3456
 Red. masses --      4.2398                 1.3329                 2.8914
 Frc consts  --      1.4100                 0.4828                 1.1604
 IR Inten    --      2.1088                 1.0633                13.7151

                     16                     17                     18
                      A                      A                      A
 Frequencies --    869.0494               910.0734               942.8819
 Red. masses --      2.9214                 2.4346                 2.4611
 Frc consts  --      1.3000                 1.1880                 1.2891
 IR Inten    --     72.4326                 5.1811                 1.2515

                     19                     20                     21
                      A                      A                      A
 Frequencies --    972.5300               986.5531               995.0138
 Red. masses --      2.1947                 2.1785                 2.7132
 Frc consts  --      1.2230                 1.2493                 1.5827
 IR Inten    --     14.6375                 1.6015                 5.7883

                     22                     23                     24
                      A                      A                      A
 Frequencies --   1026.6760              1074.3118              1102.8193
 Red. masses --      2.0442                 2.0969                 1.7681
 Frc consts  --      1.2695                 1.4259                 1.2670
 IR Inten    --     21.1843                39.4867                 3.4125

                     25                     26                     27
                      A                      A                      A
 Frequencies --   1129.5441              1168.2492              1203.3964
 Red. masses --      1.6997                 2.6140                 2.0819
 Frc consts  --      1.2777                 2.1019                 1.7763
 IR Inten    --     17.2421                36.5585                29.7409

                     28                     29                     30
                      A                      A                      A
 Frequencies --   1219.2744              1229.0819              1255.3107
 Red. masses --      1.5057                 1.5674                 1.4627
 Frc consts  --      1.3188                 1.3951                 1.3580
 IR Inten    --      9.8766                 2.6341                 6.6011

                     31                     32                     33
                      A                      A                      A
 Frequencies --   1286.3814              1306.4447              1323.0702
 Red. masses --      1.5627                 1.5236                 1.5821
 Frc consts  --      1.5236                 1.5322                 1.6317
 IR Inten    --     12.9669                12.3651                13.9881

                     34                     35                     36
                      A                      A                      A
 Frequencies --   1384.5981              1412.3255              1467.2317
 Red. masses --      2.0907                 1.2276                 1.0908
 Frc consts  --      2.3615                 1.4427                 1.3835
 IR Inten    --      4.9674                 2.4817                 2.0155

                     37                     38                     39
                      A                      A                      A
 Frequencies --   1477.3443              1492.7717              1499.2759
 Red. masses --      1.0764                 1.1066                 1.0413
 Frc consts  --      1.3842                 1.4528                 1.3791
 IR Inten    --      1.2928                 2.1862                 4.4182

                     40                     41                     42
                      A                      A                      A
 Frequencies --   1509.1817              1929.8490              3028.7981
 Red. masses --      1.0696                12.7816                 1.0596
 Frc consts  --      1.4353                28.0467                 5.7273
 IR Inten    --      5.4822               476.9749                17.3743

                     43                     44                     45
                      A                      A                      A
 Frequencies --   3042.2280              3065.6483              3071.5685
 Red. masses --      1.0361                 1.1005                 1.0603
 Frc consts  --      5.6498                 6.0938                 5.8938
 IR Inten    --     20.6430                 8.8228                24.7651

                     46                     47                     48
                      A                      A                      A
 Frequencies --   3080.8592              3110.1463              3122.5954
 Red. masses --      1.0596                 1.1010                 1.1072
 Frc consts  --      5.9257                 6.2747                 6.3607
 IR Inten    --     27.3679                31.4858                 3.1714

                     49                     50                     51
                      A                      A                      A
 Frequencies --   3123.7629              3136.8941              3142.1736
 Red. masses --      1.1028                 1.0987                 1.0995
 Frc consts  --      6.3405                 6.3701                 6.3960
 IR Inten    --     16.6160                 7.9107                22.6483

 - Thermochemistry -
 -------------------
 Temperature   298.150 Kelvin.  Pressure   1.00000 Atm.
 Atom     1 has atomic number  6 and mass  12.00000

 Molecular mass:   126.06808 amu.
 Principal axes and moments of inertia in atomic units:
                           1         2         3
     Eigenvalues --   670.815921281.323311653.73867
           X            0.99809   0.06170   0.00390
           Y           -0.06162   0.99795  -0.01718
           Z           -0.00495   0.01690   0.99984
 This molecule is an asymmetric top.
 Rotational symmetry number  1.
 Warning -- assumption of classical behavior for rotation
           may cause significant error
 Rotational temperatures (Kelvin)      0.12912     0.06760     0.05237
 Rotational constants (GHZ):           2.69037     1.40850     1.09131
 Zero-point vibrational energy     417784.8 (Joules/Mol)
                                   99.85297 (Kcal/Mol)
 Warning -- explicit consideration of   9 degrees of freedom as
           vibrations may cause significant error
 Vibrational temperatures:    128.60   165.81   228.12   304.99   313.89
          (Kelvin)            475.18   527.72   573.72   690.06   900.80
                              942.75  1063.88  1080.94  1128.16  1187.49
                             1250.37  1309.39  1356.60  1399.25  1419.43
                             1431.60  1477.16  1545.69  1586.71  1625.16
                             1680.85  1731.42  1754.26  1768.37  1806.11
                             1850.81  1879.68  1903.60  1992.13  2032.02
                             2111.02  2125.57  2147.76  2157.12  2171.37
                             2776.62  4357.76  4377.08  4410.78  4419.30
                             4432.66  4474.80  4492.71  4494.39  4513.29
                             4520.88

 Zero-point correction=                           0.159126 (Hartree/Particle)
 Thermal correction to Energy=                    0.167561
 Thermal correction to Enthalpy=                  0.168506
 Thermal correction to Gibbs Free Energy=         0.125911
 Sum of electronic and zero-point Energies=           -423.051570
 Sum of electronic and thermal Energies=              -423.043135
 Sum of electronic and thermal Enthalpies=            -423.042191
 Sum of electronic and thermal Free Energies=         -423.084786

                     E (Thermal)             CV                S
                      KCal/Mol        Cal/Mol-Kelvin    Cal/Mol-Kelvin
 Total                  105.146             31.858             89.649
 Electronic               0.000              0.000              0.000
 Translational            0.889              2.981             40.409
 Rotational               0.889              2.981             28.743
 Vibrational            103.369             25.896             20.497
 Vibration     1          0.602              1.957              3.674
 Vibration     2          0.608              1.937              3.179
 Vibration     3          0.621              1.893              2.567
 Vibration     4          0.643              1.823              2.027
 Vibration     5          0.646              1.813              1.974
 Vibration     6          0.713              1.615              1.259
 Vibration     7          0.740              1.541              1.093
 Vibration     8          0.765              1.473              0.967
 Vibration     9          0.836              1.295              0.711

 Optimization completed.
    -- Stationary point found.
 Normal termination of Gaussian 09 at Tue Jan 28 12:54:37 2020.
