 Gaussian 09, Revision D.01,
 Gaussian 09:  ES64L-G09RevD.01 24-Apr-2013

 -----------------------------
 # b3lyp 6-31G(2df,p) opt Freq
 -----------------------------

 -----
 titel
 -----
 Symbolic Z-matrix:
 Charge =  0 Multiplicity = 1

 SCF Done:  E(RB3LYP) =  -423.201093876     A.U. after   13 cycles
 Optimization completed.
    -- Stationary point found.
 Normal termination of Gaussian 09 at Tue Jan 28 00:02:07 2020.

 ----------------------------------------------------------------------
 #N Geom=AllCheck Guess=TCheck SCRF=Check GenChk RB3LYP/6-31G(2df,p) Fr
 eq
 ----------------------------------------------------------------------

 Structure from the checkpoint file:  "/scratch/puck/g09_036a83bc-abf0-4cf8-8034-d7e98e27e33b/Gau-131058.chk"
 -----
 titel
 -----
 Charge =  0 Multiplicity = 1

                         Standard orientation:
 ---------------------------------------------------------------------
 Center     Atomic      Atomic             Coordinates (Angstroms)
 Number     Number       Type             X           Y           Z
 ---------------------------------------------------------------------
      1          8           0        1.460681    1.612087   -0.138591
      2          6           0        0.124963    1.181241   -0.218855
      3          6           0       -0.153636    0.021352   -1.198701
      4          6           0        0.833494   -1.132977   -0.953746
      5          6           0        1.011025   -1.387107    0.524893
      6          6           0        0.418943   -0.628266    1.452908
      7          6           0       -0.471974    0.530974    1.052445
      8          6           0       -1.799170    0.025113    0.464580
      9          8           0       -1.484549   -0.389503   -0.874500
     10          1           0        1.950375    0.933322    0.342634
     11          1           0       -0.462436    2.058507   -0.507095
     12          1           0       -0.140786    0.329710   -2.247778
     13          1           0        0.447408   -2.031074   -1.450902
     14          1           0        1.802321   -0.914060   -1.424563
     15          1           0        1.645812   -2.219314    0.819486
     16          1           0        0.555003   -0.837584    2.509978
     17          1           0       -0.619729    1.237630    1.871343
     18          1           0       -2.217249   -0.826440    1.011312
     19          1           0       -2.551634    0.826651    0.439167
 ---------------------------------------------------------------------

 SCF Done:  E(RB3LYP) =  -423.201093876     A.U. after    1 cycles

 The electronic state is 1-A.
 Alpha  occ. eigenvalues --  -19.13642 -19.13338 -10.23148 -10.22843 -10.22646
 Alpha  occ. eigenvalues --  -10.19463 -10.19297 -10.19010 -10.18694  -1.03641
 Alpha  occ. eigenvalues --   -1.01635  -0.82478  -0.77336  -0.73342  -0.67211
 Alpha  occ. eigenvalues --   -0.61630  -0.57270  -0.54485  -0.52707  -0.48543
 Alpha  occ. eigenvalues --   -0.45863  -0.44535  -0.42421  -0.42033  -0.40746
 Alpha  occ. eigenvalues --   -0.39972  -0.39374  -0.35542  -0.33809  -0.32965
 Alpha  occ. eigenvalues --   -0.30974  -0.27438  -0.24695  -0.24252
 Alpha virt. eigenvalues --    0.00752   0.08324   0.09921   0.11635   0.12940
 Alpha virt. eigenvalues --    0.13725   0.14060   0.15487   0.16366   0.17010
 Alpha virt. eigenvalues --    0.18059   0.19002   0.20500   0.21571   0.22744

 Mulliken charges:
               1
     1  O   -0.448980
     2  C    0.120521
     3  C    0.076556
     4  C   -0.271242
     5  C   -0.059063
     6  C   -0.093780
     7  C   -0.122481
     8  C   -0.068423
     9  O   -0.279092
    10  H    0.281881
    11  H    0.091862
    12  H    0.078500
    13  H    0.121246
    14  H    0.110188
    15  H    0.094009
    16  H    0.092081
    17  H    0.075927
    18  H    0.104984
    19  H    0.095306
 Sum of Mulliken charges =   0.00000

 Dipole moment (field-independent basis, Debye):
    X=              0.3922    Y=             -0.8021    Z=              1.3522  Tot=              1.6203
 Quadrupole moment (field-independent basis, Debye-Ang):
   XX=            -54.0032   YY=            -55.3658   ZZ=            -51.1618
   XY=             -5.4051   XZ=             -1.7193   YZ=              0.1809

  Exact polarizability:  74.718  -8.366  72.456  -5.187   2.002  76.534
 Approx polarizability: 111.035 -10.741 109.068  -9.810   7.590 116.824

                      1                      2                      3
                      A                      A                      A
 Frequencies --    160.5820               214.5085               271.6286
 Red. masses --      3.0514                 4.7973                 2.4513
 Frc consts  --      0.0464                 0.1301                 0.1066
 IR Inten    --      3.8179                 2.8247                 2.2402

                      4                      5                      6
                      A                      A                      A
 Frequencies --    303.4620               371.3119               433.1917
 Red. masses --      3.9065                 1.9493                 1.3676
 Frc consts  --      0.2120                 0.1583                 0.1512
 IR Inten    --      1.7058                 9.0033                45.9421

                      7                      8                      9
                      A                      A                      A
 Frequencies --    459.4751               545.4730               562.1961
 Red. masses --      2.1975                 5.8831                 3.1240
 Frc consts  --      0.2733                 1.0313                 0.5817
 IR Inten    --      3.7712                 1.1155                 2.6250

                     10                     11                     12
                      A                      A                      A
 Frequencies --    614.9940               708.9689               766.9570
 Red. masses --      5.1778                 2.1463                 2.5276
 Frc consts  --      1.1538                 0.6356                 0.8760
 IR Inten    --      3.5703                 8.8222                21.5507

                     13                     14                     15
                      A                      A                      A
 Frequencies --    811.6218               845.5765               858.0942
 Red. masses --      3.3243                 2.8951                 2.2523
 Frc consts  --      1.2902                 1.2196                 0.9771
 IR Inten    --      1.1283                 6.9107                15.3150

                     16                     17                     18
                      A                      A                      A
 Frequencies --    894.8827               955.8283               981.0345
 Red. masses --      3.0807                 2.1121                 2.2264
 Frc consts  --      1.4536                 1.1369                 1.2625
 IR Inten    --      2.9701                 5.6752                27.5777

                     19                     20                     21
                      A                      A                      A
 Frequencies --    992.5406              1005.5509              1014.3896
 Red. masses --      2.0179                 1.7529                 2.0482
 Frc consts  --      1.1713                 1.0443                 1.2417
 IR Inten    --      4.8322                 7.2265                 3.4513

                     22                     23                     24
                      A                      A                      A
 Frequencies --   1064.2973              1087.9228              1108.1242
 Red. masses --      2.0796                 3.4563                 1.5702
 Frc consts  --      1.3879                 2.4102                 1.1360
 IR Inten    --     22.5710                56.6680                 0.9251

                     25                     26                     27
                      A                      A                      A
 Frequencies --   1133.5282              1145.3911              1202.6945
 Red. masses --      2.9726                 1.3884                 1.1189
 Frc consts  --      2.2503                 1.0732                 0.9536
 IR Inten    --     92.1968                 6.1534                11.1805

                     28                     29                     30
                      A                      A                      A
 Frequencies --   1207.5140              1233.7866              1263.2188
 Red. masses --      1.1339                 1.4536                 1.4090
 Frc consts  --      0.9741                 1.3037                 1.3247
 IR Inten    --      6.3590                22.3322                 9.0249

                     31                     32                     33
                      A                      A                      A
 Frequencies --   1294.2308              1313.6539              1346.1352
 Red. masses --      1.4712                 1.4571                 1.2832
 Frc consts  --      1.4519                 1.4815                 1.3700
 IR Inten    --      4.5413                 1.3809                 0.8990

                     34                     35                     36
                      A                      A                      A
 Frequencies --   1355.4541              1370.3751              1385.9505
 Red. masses --      1.7751                 1.5350                 1.3456
 Frc consts  --      1.9215                 1.6984                 1.5229
 IR Inten    --     14.5838                 4.2095                 8.9799

                     37                     38                     39
                      A                      A                      A
 Frequencies --   1413.4526              1443.2741              1462.0650
 Red. masses --      1.4624                 1.2637                 1.1053
 Frc consts  --      1.7213                 1.5509                 1.3920
 IR Inten    --      3.9526                56.2550                 7.9877

                     40                     41                     42
                      A                      A                      A
 Frequencies --   1520.5638              1695.3012              2996.1605
 Red. masses --      1.0925                 6.1739                 1.0669
 Frc consts  --      1.4883                10.4545                 5.6431
 IR Inten    --      0.8613                 1.8789                81.2654

                     43                     44                     45
                      A                      A                      A
 Frequencies --   3013.3354              3054.4363              3062.2987
 Red. masses --      1.0646                 1.0958                 1.0875
 Frc consts  --      5.6954                 6.0236                 6.0088
 IR Inten    --     21.6049                11.9370                21.1440

                     46                     47                     48
                      A                      A                      A
 Frequencies --   3066.1342              3075.5756              3095.4214
 Red. masses --      1.0963                 1.0877                 1.0872
 Frc consts  --      6.0722                 6.0619                 6.1374
 IR Inten    --     31.6086                57.4873                28.9669

                     49                     50                     51
                      A                      A                      A
 Frequencies --   3150.4384              3175.5640              3768.4455
 Red. masses --      1.0845                 1.0974                 1.0648
 Frc consts  --      6.3419                 6.5199                 8.9096
 IR Inten    --      7.7375                27.5656                27.2097

 - Thermochemistry -
 -------------------
 Temperature   298.150 Kelvin.  Pressure   1.00000 Atm.
 Atom     1 has atomic number  8 and mass  15.99491

 Molecular mass:   126.06808 amu.
 Principal axes and moments of inertia in atomic units:
                           1         2         3
     Eigenvalues --   827.35616 946.703851011.03221
           X            0.97605  -0.20082  -0.08366
           Y            0.20642   0.97632   0.06474
           Z            0.06868  -0.08046   0.99439
 This molecule is an asymmetric top.
 Rotational symmetry number  1.
 Warning -- assumption of classical behavior for rotation
           may cause significant error
 Rotational temperatures (Kelvin)      0.10469     0.09149     0.08567
 Rotational constants (GHZ):           2.18134     1.90634     1.78505
 Zero-point vibrational energy     426331.2 (Joules/Mol)
                                  101.89560 (Kcal/Mol)
 Warning -- explicit consideration of  10 degrees of freedom as
           vibrations may cause significant error
 Vibrational temperatures:    231.04   308.63   390.81   436.61   534.23
          (Kelvin)            623.27   661.08   784.81   808.87   884.84
                             1020.05  1103.48  1167.74  1216.59  1234.60
                             1287.53  1375.22  1411.49  1428.04  1446.76
                             1459.48  1531.28  1565.28  1594.34  1630.89
                             1647.96  1730.41  1737.34  1775.14  1817.49
                             1862.11  1890.05  1936.79  1950.19  1971.66
                             1994.07  2033.64  2076.55  2103.58  2187.75
                             2439.16  4310.80  4335.51  4394.65  4405.96
                             4411.48  4425.06  4453.62  4532.77  4568.92
                             5421.95

 Zero-point correction=                           0.162381 (Hartree/Particle)
 Thermal correction to Energy=                    0.169562
 Thermal correction to Enthalpy=                  0.170507
 Thermal correction to Gibbs Free Energy=         0.131241
 Sum of electronic and zero-point Energies=           -423.038713
 Sum of electronic and thermal Energies=              -423.031531
 Sum of electronic and thermal Enthalpies=            -423.030587
 Sum of electronic and thermal Free Energies=         -423.069853

                     E (Thermal)             CV                S
                      KCal/Mol        Cal/Mol-Kelvin    Cal/Mol-Kelvin
 Total                  106.402             29.619             82.641
 Electronic               0.000              0.000              0.000
 Translational            0.889              2.981             40.409
 Rotational               0.889              2.981             28.162
 Vibrational            104.625             23.657             14.070
 Vibration     1          0.622              1.891              2.543
 Vibration     2          0.644              1.819              2.005
 Vibration     3          0.675              1.726              1.586
 Vibration     4          0.695              1.667              1.398
 Vibration     5          0.743              1.531              1.074
 Vibration     6          0.794              1.398              0.848
 Vibration     7          0.817              1.340              0.768
 Vibration     8          0.901              1.150              0.554
 Vibration     9          0.918              1.113              0.519
 Vibration    10          0.974              1.000              0.425

 Normal termination of Gaussian 09 at Tue Jan 28 00:47:33 2020.
