 Gaussian 09, Revision D.01,
 Gaussian 09:  ES64L-G09RevD.01 24-Apr-2013

 -----------------------------
 # b3lyp 6-31G(2df,p) opt Freq
 -----------------------------

 -----
 titel
 -----
 Symbolic Z-matrix:
 Charge =  0 Multiplicity = 1

 SCF Done:  E(RB3LYP) =  -423.135100484     A.U. after   14 cycles
 SCF Done:  E(RB3LYP) =  -423.135100693     A.U. after    9 cycles
 SCF Done:  E(RB3LYP) =  -423.135101344     A.U. after    7 cycles
 SCF Done:  E(RB3LYP) =  -423.135101316     A.U. after    7 cycles
 SCF Done:  E(RB3LYP) =  -423.135101473     A.U. after    7 cycles
 Optimization completed.
    -- Stationary point found.
 Normal termination of Gaussian 09 at Tue Jan 28 09:18:26 2020.

 ----------------------------------------------------------------------
 #N Geom=AllCheck Guess=TCheck SCRF=Check GenChk RB3LYP/6-31G(2df,p) Fr
 eq
 ----------------------------------------------------------------------

 Structure from the checkpoint file:  "/scratch/puck/g09_a3c425be-0d45-437c-bd50-55ed85eb2cd7/Gau-16419.chk"
 -----
 titel
 -----
 Charge =  0 Multiplicity = 1

                         Standard orientation:
 ---------------------------------------------------------------------
 Center     Atomic      Atomic             Coordinates (Angstroms)
 Number     Number       Type             X           Y           Z
 ---------------------------------------------------------------------
      1          6           0        3.763836   -0.040307   -0.314300
      2          6           0        2.329930   -0.092491   -0.068567
      3          6           0        1.141746   -0.126576    0.128929
      4          6           0       -0.275033   -0.153308    0.376244
      5          6           0       -0.915731    1.173069    0.794894
      6          8           0       -1.036643    2.075842   -0.283606
      7          6           0       -0.900187   -1.438374    0.931864
      8          6           0       -1.127347   -1.049435   -0.499319
      9          8           0       -2.357016   -0.507981   -0.899099
     10          1           0        4.329148   -0.524988    0.489812
     11          1           0        4.026907   -0.541279   -1.252791
     12          1           0        4.113057    0.995782   -0.385807
     13          1           0       -1.891021    0.969907    1.257443
     14          1           0       -0.282509    1.660224    1.541953
     15          1           0       -1.646578    1.664497   -0.907399
     16          1           0       -0.244150   -2.274742    1.141901
     17          1           0       -1.726053   -1.308746    1.623758
     18          1           0       -0.608567   -1.617378   -1.268950
     19          1           0       -3.024248   -1.201632   -0.876752
 ---------------------------------------------------------------------

 SCF Done:  E(RB3LYP) =  -423.135101473     A.U. after    1 cycles

 The electronic state is 1-A.
 Alpha  occ. eigenvalues --  -19.16028 -19.11939 -10.24560 -10.22266 -10.21283
 Alpha  occ. eigenvalues --  -10.19870 -10.19511 -10.16743 -10.16237  -1.04416
 Alpha  occ. eigenvalues --   -1.00308  -0.86554  -0.76695  -0.70687  -0.67930
 Alpha  occ. eigenvalues --   -0.62046  -0.59304  -0.54227  -0.50994  -0.47541
 Alpha  occ. eigenvalues --   -0.45268  -0.44770  -0.42601  -0.42032  -0.41945
 Alpha  occ. eigenvalues --   -0.40242  -0.39016  -0.35901  -0.32348  -0.30718
 Alpha  occ. eigenvalues --   -0.28245  -0.26452  -0.23744  -0.22975
 Alpha virt. eigenvalues --    0.05231   0.05643   0.07400   0.11103   0.11377
 Alpha virt. eigenvalues --    0.11739   0.12458   0.14881   0.16425   0.17325
 Alpha virt. eigenvalues --    0.17909   0.19638   0.19977   0.21081   0.22954

 Mulliken charges:
               1
     1  C   -0.502112
     2  C    0.130684
     3  C   -0.010003
     4  C    0.075140
     5  C   -0.115653
     6  O   -0.422802
     7  C   -0.370150
     8  C    0.071815
     9  O   -0.429532
    10  H    0.144063
    11  H    0.145398
    12  H    0.151199
    13  H    0.084039
    14  H    0.112455
    15  H    0.294767
    16  H    0.124265
    17  H    0.117626
    18  H    0.103954
    19  H    0.294848
 Sum of Mulliken charges =   0.00000

 Dipole moment (field-independent basis, Debye):
    X=             -0.6608    Y=             -2.8926    Z=              0.1988  Tot=              2.9738
 Quadrupole moment (field-independent basis, Debye-Ang):
   XX=            -41.5097   YY=            -55.4444   ZZ=            -52.0787
   XY=              4.4837   XZ=             -0.4559   YZ=              1.4870

  Exact polarizability: 112.865   4.587  69.339  -3.995  -0.791  63.731
 Approx polarizability: 158.441   7.576  98.318  -6.466  -2.741  94.956

 ******    1 imaginary frequencies (negative Signs) ******

                      1                      2                      3
                      A                      A                      A
 Frequencies --    -16.3431                76.8103                96.3718
 Red. masses --      1.0206                 4.3562                 3.5553
 Frc consts  --      0.0002                 0.0151                 0.0195
 IR Inten    --      0.0710                 3.1405                 2.8361

                      4                      5                      6
                      A                      A                      A
 Frequencies --    117.8942               195.5956               235.8237
 Red. masses --      3.9779                 3.9918                 1.3680
 Frc consts  --      0.0326                 0.0900                 0.0448
 IR Inten    --      0.4801                 9.4950                58.0809

                      7                      8                      9
                      A                      A                      A
 Frequencies --    259.9353               285.9056               302.7613
 Red. masses --      2.3779                 2.8414                 3.2500
 Frc consts  --      0.0947                 0.1368                 0.1755
 IR Inten    --     27.1829                 7.3799                15.0414

                     10                     11                     12
                      A                      A                      A
 Frequencies --    386.1007               396.9889               483.7750
 Red. masses --      4.7625                 3.5895                 1.2460
 Frc consts  --      0.4183                 0.3333                 0.1718
 IR Inten    --      5.0416                 8.6724                79.8919

                     13                     14                     15
                      A                      A                      A
 Frequencies --    491.1609               530.8333               545.9419
 Red. masses --      2.4989                 4.2869                 4.8635
 Frc consts  --      0.3552                 0.7117                 0.8541
 IR Inten    --      8.6347                14.0453                 2.2730

                     16                     17                     18
                      A                      A                      A
 Frequencies --    710.0856               821.9564               838.7209
 Red. masses --      3.3612                 2.3257                 2.5425
 Frc consts  --      0.9985                 0.9258                 1.0538
 IR Inten    --     19.5425                10.7229                14.1275

                     19                     20                     21
                      A                      A                      A
 Frequencies --    915.2761               948.9055              1013.8539
 Red. masses --      2.1961                 1.7556                 1.9891
 Frc consts  --      1.0839                 0.9313                 1.2046
 IR Inten    --     11.5066                 8.3423                25.7411

                     22                     23                     24
                      A                      A                      A
 Frequencies --   1025.1756              1051.2826              1054.4195
 Red. masses --      1.9310                 1.3956                 1.3979
 Frc consts  --      1.1957                 0.9087                 0.9157
 IR Inten    --     19.9517                 2.2206                 0.2872

                     25                     26                     27
                      A                      A                      A
 Frequencies --   1058.1405              1081.3255              1114.7944
 Red. masses --      1.4996                 4.8422                 1.7023
 Frc consts  --      0.9892                 3.3359                 1.2465
 IR Inten    --      5.9938                66.8525                29.5250

                     28                     29                     30
                      A                      A                      A
 Frequencies --   1168.8506              1218.0201              1266.1588
 Red. masses --      2.9138                 1.2577                 2.0223
 Frc consts  --      2.3455                 1.0994                 1.9101
 IR Inten    --     51.8148                25.1039                44.3756

                     31                     32                     33
                      A                      A                      A
 Frequencies --   1300.5411              1327.4554              1399.7830
 Red. masses --      1.3693                 2.2799                 1.2372
 Frc consts  --      1.3646                 2.3671                 1.4283
 IR Inten    --     24.1764                 2.7653                 4.0758

                     34                     35                     36
                      A                      A                      A
 Frequencies --   1412.9595              1422.1806              1433.7093
 Red. masses --      1.2460                 1.4568                 1.2300
 Frc consts  --      1.4656                 1.7360                 1.4896
 IR Inten    --     12.9340                 1.5819                71.0416

                     37                     38                     39
                      A                      A                      A
 Frequencies --   1475.2334              1477.6455              1479.3595
 Red. masses --      1.4617                 1.0402                 1.0411
 Frc consts  --      1.8743                 1.3381                 1.3425
 IR Inten    --      9.8554                 5.9837                 5.0100

                     40                     41                     42
                      A                      A                      A
 Frequencies --   1496.5643              2368.2070              3008.5319
 Red. masses --      1.0994                11.8708                 1.0667
 Frc consts  --      1.4508                39.2257                 5.6886
 IR Inten    --      2.4774                 0.4383                54.9289

                     43                     44                     45
                      A                      A                      A
 Frequencies --   3024.2416              3082.3556              3086.2740
 Red. masses --      1.0348                 1.1002                 1.0999
 Frc consts  --      5.5763                 6.1589                 6.1726
 IR Inten    --     38.4367                12.1889                 9.6262

                     46                     47                     48
                      A                      A                      A
 Frequencies --   3089.5543              3125.1231              3134.2964
 Red. masses --      1.0968                 1.0873                 1.0557
 Frc consts  --      6.1682                 6.2566                 6.1101
 IR Inten    --     27.6569                21.3013                 7.9275

                     49                     50                     51
                      A                      A                      A
 Frequencies --   3230.2108              3796.1822              3808.6619
 Red. masses --      1.1172                 1.0655                 1.0664
 Frc consts  --      6.8681                 9.0470                 9.1145
 IR Inten    --      5.6068                37.2891                27.2629

 - Thermochemistry -
 -------------------
 Temperature   298.150 Kelvin.  Pressure   1.00000 Atm.
 Atom     1 has atomic number  6 and mass  12.00000

 Molecular mass:   126.06808 amu.
 Principal axes and moments of inertia in atomic units:
                           1         2         3
     Eigenvalues --   709.592541841.111542183.42860
           X            0.99989   0.00630  -0.01306
           Y           -0.00621   0.99996   0.00662
           Z            0.01310  -0.00654   0.99989
 This molecule is an asymmetric top.
 Rotational symmetry number  1.
 Warning -- assumption of classical behavior for rotation
           may cause significant error
 Rotational temperatures (Kelvin)      0.12206     0.04704     0.03967
 Rotational constants (GHZ):           2.54335     0.98025     0.82656
    1 imaginary frequencies ignored.
 Zero-point vibrational energy     410749.4 (Joules/Mol)
                                   98.17146 (Kcal/Mol)
 Warning -- explicit consideration of  14 degrees of freedom as
           vibrations may cause significant error
 Vibrational temperatures:    110.51   138.66   169.62   281.42   339.30
          (Kelvin)            373.99   411.35   435.61   555.51   571.18
                              696.04   706.67   763.75   785.49  1021.65
                             1182.61  1206.73  1316.88  1365.26  1458.71
                             1475.00  1512.56  1517.07  1522.43  1555.78
                             1603.94  1681.71  1752.46  1821.72  1871.19
                             1909.91  2013.97  2032.93  2046.20  2062.79
                             2122.53  2126.00  2128.47  2153.22  3407.32
                             4328.60  4351.20  4434.82  4440.45  4445.17
                             4496.35  4509.55  4647.55  5461.85  5479.81

 Zero-point correction=                           0.156446 (Hartree/Particle)
 Thermal correction to Energy=                    0.166071
 Thermal correction to Enthalpy=                  0.167015
 Thermal correction to Gibbs Free Energy=         0.121748
 Sum of electronic and zero-point Energies=           -422.978655
 Sum of electronic and thermal Energies=              -422.969031
 Sum of electronic and thermal Enthalpies=            -422.968087
 Sum of electronic and thermal Free Energies=         -423.013354

                     E (Thermal)             CV                S
                      KCal/Mol        Cal/Mol-Kelvin    Cal/Mol-Kelvin
 Total                  104.211             35.182             95.272
 Electronic               0.000              0.000              0.000
 Translational            0.889              2.981             40.409
 Rotational               0.889              2.981             29.435
 Vibrational            102.433             29.220             25.429
 Vibration     1          0.599              1.965              3.971
 Vibration     2          0.603              1.952              3.526
 Vibration     3          0.608              1.934              3.135
 Vibration     4          0.636              1.846              2.174
 Vibration     5          0.655              1.786              1.834
 Vibration     6          0.668              1.746              1.662
 Vibration     7          0.684              1.700              1.498
 Vibration     8          0.694              1.668              1.402
 Vibration     9          0.755              1.500              1.015
 Vibration    10          0.763              1.477              0.974
 Vibration    11          0.840              1.286              0.700
 Vibration    12          0.847              1.270              0.681
 Vibration    13          0.886              1.182              0.585
 Vibration    14          0.901              1.149              0.553

 Normal termination of Gaussian 09 at Tue Jan 28 09:55:02 2020.
