 Gaussian 09, Revision D.01,
 Gaussian 09:  ES64L-G09RevD.01 24-Apr-2013

 -----------------------------
 # b3lyp 6-31G(2df,p) opt Freq
 -----------------------------

 -----
 titel
 -----
 Symbolic Z-matrix:
 Charge =  0 Multiplicity = 1

 SCF Done:  E(RB3LYP) =  -423.128971854     A.U. after   14 cycles
 Optimization completed.
    -- Stationary point found.
 Normal termination of Gaussian 09 at Mon Jan 27 15:35:20 2020.

 ----------------------------------------------------------------------
 #N Geom=AllCheck Guess=TCheck SCRF=Check GenChk RB3LYP/6-31G(2df,p) Fr
 eq
 ----------------------------------------------------------------------

 Structure from the checkpoint file:  "/scratch/puck/g09_deb2f301-13f9-4850-989b-15007d2cd2d8/Gau-45570.chk"
 -----
 titel
 -----
 Charge =  0 Multiplicity = 1

                         Standard orientation:
 ---------------------------------------------------------------------
 Center     Atomic      Atomic             Coordinates (Angstroms)
 Number     Number       Type             X           Y           Z
 ---------------------------------------------------------------------
      1          6           0       -2.103690    1.494151    0.200791
      2          6           0       -2.334292    0.079218   -0.321592
      3          8           0       -3.683918   -0.334301   -0.159848
      4          6           0       -1.389620   -0.962094    0.331072
      5          6           0        0.020642   -0.732324    0.051259
      6          6           0        1.178160   -0.510330   -0.201561
      7          6           0        2.555551   -0.263422   -0.529591
      8          6           0        3.602939   -0.182374    0.508338
      9          8           0        3.122204    0.995987   -0.123575
     10          1           0       -2.784156    2.194182   -0.291028
     11          1           0       -2.285591    1.540507    1.282880
     12          1           0       -1.074137    1.815945    0.022904
     13          1           0       -2.161012    0.057851   -1.403111
     14          1           0       -3.935552   -0.167984    0.755452
     15          1           0       -1.560477   -0.961957    1.417334
     16          1           0       -1.687775   -1.952965   -0.030495
     17          1           0        2.863181   -0.575427   -1.527245
     18          1           0        3.318887   -0.306935    1.551529
     19          1           0        4.622209   -0.473646    0.256865
 ---------------------------------------------------------------------

 SCF Done:  E(RB3LYP) =  -423.128971854     A.U. after    1 cycles

 The electronic state is 1-A.
 Alpha  occ. eigenvalues --  -19.15756 -19.13871 -10.26029 -10.24172 -10.24052
 Alpha  occ. eigenvalues --  -10.20748 -10.18570 -10.17807 -10.17797  -1.07730
 Alpha  occ. eigenvalues --   -1.02237  -0.80289  -0.75410  -0.71405  -0.67363
 Alpha  occ. eigenvalues --   -0.64556  -0.60993  -0.53436  -0.49856  -0.48949
 Alpha  occ. eigenvalues --   -0.48540  -0.45323  -0.42872  -0.41715  -0.41145
 Alpha  occ. eigenvalues --   -0.40303  -0.36977  -0.36800  -0.34296  -0.32551
 Alpha  occ. eigenvalues --   -0.28466  -0.27851  -0.26437  -0.24587
 Alpha virt. eigenvalues --    0.02296   0.04030   0.07351   0.10819   0.11715
 Alpha virt. eigenvalues --    0.12579   0.13602   0.14228   0.14417   0.16472
 Alpha virt. eigenvalues --    0.17162   0.17421   0.18265   0.19124   0.21660

 Mulliken charges:
               1
     1  C   -0.403448
     2  C    0.138965
     3  O   -0.422245
     4  C   -0.371554
     5  C    0.076114
     6  C    0.106458
     7  C   -0.117463
     8  C   -0.159256
     9  O   -0.216465
    10  H    0.126146
    11  H    0.104096
    12  H    0.143300
    13  H    0.102563
    14  H    0.277885
    15  H    0.116935
    16  H    0.140091
    17  H    0.116220
    18  H    0.122942
    19  H    0.118712
 Sum of Mulliken charges =   0.00000

 Dipole moment (field-independent basis, Debye):
    X=              0.1645    Y=             -1.0287    Z=              1.3150  Tot=              1.6776
 Quadrupole moment (field-independent basis, Debye-Ang):
   XX=            -51.9599   YY=            -55.5816   ZZ=            -50.0398
   XY=             -6.7758   XZ=             -4.8575   YZ=             -0.1229

  Exact polarizability: 120.369   3.414  63.101  -2.336  -0.226  64.850
 Approx polarizability: 162.177  13.248  93.884  -6.678  -1.419  98.419

                      1                      2                      3
                      A                      A                      A
 Frequencies --     18.7672                61.1493                75.4060
 Red. masses --      3.5190                 4.2220                 4.0491
 Frc consts  --      0.0007                 0.0093                 0.0136
 IR Inten    --      2.7319                 2.5335                 0.7801

                      4                      5                      6
                      A                      A                      A
 Frequencies --    143.3286               184.3062               248.4038
 Red. masses --      3.6230                 4.1415                 1.1191
 Frc consts  --      0.0439                 0.0829                 0.0407
 IR Inten    --      1.9663                 2.4717                 1.0776

                      7                      8                      9
                      A                      A                      A
 Frequencies --    280.2934               324.1124               339.7507
 Red. masses --      1.0862                 2.5807                 4.2484
 Frc consts  --      0.0503                 0.1597                 0.2889
 IR Inten    --     78.5309                19.5657                 2.4570

                     10                     11                     12
                      A                      A                      A
 Frequencies --    384.8677               452.5113               457.2372
 Red. masses --      4.4479                 2.5952                 3.1205
 Frc consts  --      0.3882                 0.3131                 0.3844
 IR Inten    --     12.6759                 4.1313                10.3899

                     13                     14                     15
                      A                      A                      A
 Frequencies --    516.1936               568.5803               745.0197
 Red. masses --      4.3508                 7.4094                 2.4909
 Frc consts  --      0.6830                 1.4113                 0.8146
 IR Inten    --      1.4840                 5.6926                 6.0136

                     16                     17                     18
                      A                      A                      A
 Frequencies --    831.1257               834.3148               889.5965
 Red. masses --      4.1523                 3.9587                 1.3842
 Frc consts  --      1.6899                 1.6236                 0.6454
 IR Inten    --     19.1247                 9.0589                 1.9360

                     19                     20                     21
                      A                      A                      A
 Frequencies --    909.1483               950.7264               997.8117
 Red. masses --      3.5933                 2.0831                 1.7464
 Frc consts  --      1.7499                 1.1094                 1.0245
 IR Inten    --     26.8874                21.4022                14.1156

                     22                     23                     24
                      A                      A                      A
 Frequencies --   1064.9852              1085.8356              1110.3400
 Red. masses --      1.6477                 1.1808                 3.0375
 Frc consts  --      1.1011                 0.8202                 2.2064
 IR Inten    --     64.3606                 0.0683                18.4076

                     25                     26                     27
                      A                      A                      A
 Frequencies --   1128.1820              1149.1257              1160.4567
 Red. masses --      1.7643                 1.6571                 1.3545
 Frc consts  --      1.3231                 1.2892                 1.0747
 IR Inten    --     88.4999                 1.5795                 5.3157

                     28                     29                     30
                      A                      A                      A
 Frequencies --   1185.0470              1218.8989              1274.2635
 Red. masses --      2.1185                 1.2827                 1.4429
 Frc consts  --      1.7529                 1.1229                 1.3804
 IR Inten    --      7.0886                11.7054                 5.2799

                     31                     32                     33
                      A                      A                      A
 Frequencies --   1287.3910              1338.4010              1369.2044
 Red. masses --      1.5467                 1.4760                 1.3182
 Frc consts  --      1.5104                 1.5578                 1.4561
 IR Inten    --      7.0830                15.3155                 8.7053

                     34                     35                     36
                      A                      A                      A
 Frequencies --   1405.0672              1408.5883              1423.9276
 Red. masses --      1.2551                 1.8755                 1.2622
 Frc consts  --      1.4599                 2.1925                 1.5079
 IR Inten    --     18.0857                36.3209                47.4112

                     37                     38                     39
                      A                      A                      A
 Frequencies --   1466.0247              1494.0953              1495.2709
 Red. masses --      1.0916                 1.0541                 1.0505
 Frc consts  --      1.3822                 1.3864                 1.3838
 IR Inten    --      3.6691                 0.6182                10.7231

                     40                     41                     42
                      A                      A                      A
 Frequencies --   1519.6553              2361.5788              3006.5160
 Red. masses --      1.2343                11.8744                 1.0653
 Frc consts  --      1.6795                39.0181                 5.6734
 IR Inten    --      1.5624                13.8598                20.5972

                     43                     44                     45
                      A                      A                      A
 Frequencies --   3022.3856              3053.0782              3066.8173
 Red. masses --      1.0449                 1.0830                 1.0937
 Frc consts  --      5.6238                 5.9476                 6.0608
 IR Inten    --     15.3621                10.5099                19.9533

                     46                     47                     48
                      A                      A                      A
 Frequencies --   3084.2255              3100.8242              3113.1689
 Red. masses --      1.0499                 1.0923                 1.0866
 Frc consts  --      5.8842                 6.1881                 6.2050
 IR Inten    --     30.0927                28.9227                20.5923

                     49                     50                     51
                      A                      A                      A
 Frequencies --   3130.0049              3177.6741              3799.0489
 Red. masses --      1.1026                 1.1199                 1.0659
 Frc consts  --      6.3642                 6.6625                 9.0637
 IR Inten    --     17.5977                24.7623                17.3870

 - Thermochemistry -
 -------------------
 Temperature   298.150 Kelvin.  Pressure   1.00000 Atm.
 Atom     1 has atomic number  6 and mass  12.00000

 Molecular mass:   126.06808 amu.
 Principal axes and moments of inertia in atomic units:
                           1         2         3
     Eigenvalues --   371.719883099.849343315.78713
           X            0.99989  -0.01444  -0.00288
           Y            0.01445   0.99989   0.00325
           Z            0.00283  -0.00329   0.99999
 This molecule is an asymmetric top.
 Rotational symmetry number  1.
 Rotational temperatures (Kelvin)      0.23301     0.02794     0.02612
 Rotational constants (GHZ):           4.85511     0.58220     0.54429
 Zero-point vibrational energy     410993.4 (Joules/Mol)
                                   98.22978 (Kcal/Mol)
 Warning -- explicit consideration of  14 degrees of freedom as
           vibrations may cause significant error
 Vibrational temperatures:     27.00    87.98   108.49   206.22   265.18
          (Kelvin)            357.40   403.28   466.32   488.82   553.74
                              651.06   657.86   742.69   818.06  1071.92
                             1195.80  1200.39  1279.93  1308.06  1367.88
                             1435.63  1532.27  1562.27  1597.53  1623.20
                             1653.33  1669.64  1705.02  1753.72  1833.38
                             1852.27  1925.66  1969.98  2021.58  2026.64
                             2048.71  2109.28  2149.67  2151.36  2186.44
                             3397.78  4325.70  4348.53  4392.69  4412.46
                             4437.51  4461.39  4479.15  4503.37  4571.96
                             5465.98

 Zero-point correction=                           0.156539 (Hartree/Particle)
 Thermal correction to Energy=                    0.166724
 Thermal correction to Enthalpy=                  0.167668
 Thermal correction to Gibbs Free Energy=         0.119396
 Sum of electronic and zero-point Energies=           -422.972433
 Sum of electronic and thermal Energies=              -422.962248
 Sum of electronic and thermal Enthalpies=            -422.961303
 Sum of electronic and thermal Free Energies=         -423.009576

                     E (Thermal)             CV                S
                      KCal/Mol        Cal/Mol-Kelvin    Cal/Mol-Kelvin
 Total                  104.621             35.821            101.597
 Electronic               0.000              0.000              0.000
 Translational            0.889              2.981             40.409
 Rotational               0.889              2.981             29.725
 Vibrational            102.844             29.859             31.463
 Vibration     1          0.593              1.986              6.761
 Vibration     2          0.597              1.973              4.420
 Vibration     3          0.599              1.965              4.007
 Vibration     4          0.616              1.910              2.759
 Vibration     5          0.631              1.861              2.284
 Vibration     6          0.662              1.765              1.742
 Vibration     7          0.680              1.710              1.532
 Vibration     8          0.709              1.627              1.289
 Vibration     9          0.720              1.596              1.213
 Vibration    10          0.754              1.502              1.020
 Vibration    11          0.811              1.355              0.788
 Vibration    12          0.815              1.345              0.774
 Vibration    13          0.871              1.214              0.619
 Vibration    14          0.925              1.099              0.507

 Optimization completed.
    -- Stationary point found.
 Normal termination of Gaussian 09 at Mon Jan 27 16:07:06 2020.
