 Gaussian 09, Revision D.01,
 Gaussian 09:  ES64L-G09RevD.01 24-Apr-2013

 -----------------------------
 # b3lyp 6-31G(2df,p) opt Freq
 -----------------------------

 -----
 titel
 -----
 Symbolic Z-matrix:
 Charge =  0 Multiplicity = 1

 SCF Done:  E(RB3LYP) =  -423.192160248     A.U. after   14 cycles
 Optimization completed.
    -- Stationary point found.
 Normal termination of Gaussian 09 at Tue Jan 28 09:18:08 2020.

 ----------------------------------------------------------------------
 #N Geom=AllCheck Guess=TCheck SCRF=Check GenChk RB3LYP/6-31G(2df,p) Fr
 eq
 ----------------------------------------------------------------------

 Structure from the checkpoint file:  "/scratch/puck/g09_46c4db63-2abc-4ef4-8274-1a9c5a683100/Gau-107406.chk"
 -----
 titel
 -----
 Charge =  0 Multiplicity = 1

                         Standard orientation:
 ---------------------------------------------------------------------
 Center     Atomic      Atomic             Coordinates (Angstroms)
 Number     Number       Type             X           Y           Z
 ---------------------------------------------------------------------
      1          8           0       -2.855787   -0.251481   -0.000679
      2          6           0       -1.927238    0.823708    0.000202
      3          6           0       -0.536184    0.245615    0.000129
      4          6           0       -0.081704   -0.800000   -1.064339
      5          6           0        1.017197   -1.131385    0.000118
      6          6           0       -0.081510   -0.799794    1.064705
      7          6           0        1.791450    0.176922   -0.000078
      8          8           0        2.977494    0.366023   -0.000238
      9          6           0        0.652670    1.226910   -0.000083
     10          1           0       -3.744116    0.115896    0.001535
     11          1           0       -2.058457    1.465395   -0.886917
     12          1           0       -2.058778    1.464243    0.888088
     13          1           0       -0.803078   -1.610616   -1.173586
     14          1           0        0.241075   -0.436301   -2.044565
     15          1           0        1.594442   -2.052982    0.000150
     16          1           0       -0.802871   -1.610389    1.174229
     17          1           0        0.241451   -0.435907    2.044805
     18          1           0        0.704391    1.866325    0.887426
     19          1           0        0.704203    1.866133   -0.887741
 ---------------------------------------------------------------------

 SCF Done:  E(RB3LYP) =  -423.192160248     A.U. after    1 cycles

 The electronic state is 1-A.
 Alpha  occ. eigenvalues --  -19.14417 -19.12432 -10.26212 -10.23551 -10.20638
 Alpha  occ. eigenvalues --  -10.19751 -10.19307 -10.19306 -10.18962  -1.03573
 Alpha  occ. eigenvalues --   -1.02496  -0.89798  -0.73874  -0.71423  -0.66966
 Alpha  occ. eigenvalues --   -0.63569  -0.55006  -0.52584  -0.51250  -0.48375
 Alpha  occ. eigenvalues --   -0.46660  -0.45825  -0.44914  -0.40339  -0.39010
 Alpha  occ. eigenvalues --   -0.38254  -0.37303  -0.36384  -0.34946  -0.32206
 Alpha  occ. eigenvalues --   -0.31649  -0.31268  -0.27643  -0.23148
 Alpha virt. eigenvalues --   -0.00198   0.06634   0.08894   0.11149   0.13303
 Alpha virt. eigenvalues --    0.13447   0.13849   0.14918   0.16002   0.16955
 Alpha virt. eigenvalues --    0.17585   0.19032   0.19566   0.20475   0.21926

 Mulliken charges:
               1
     1  O   -0.424110
     2  C   -0.196285
     3  C    0.357716
     4  C   -0.270657
     5  C   -0.133534
     6  C   -0.270673
     7  C    0.439949
     8  O   -0.336791
     9  C   -0.402226
    10  H    0.291265
    11  H    0.088839
    12  H    0.088852
    13  H    0.124357
    14  H    0.098538
    15  H    0.080682
    16  H    0.124317
    17  H    0.098526
    18  H    0.120611
    19  H    0.120625
 Sum of Mulliken charges =   0.00000

 Dipole moment (field-independent basis, Debye):
    X=             -3.7417    Y=              0.7005    Z=              0.0043  Tot=              3.8067
 Quadrupole moment (field-independent basis, Debye-Ang):
   XX=            -59.4302   YY=            -51.4565   ZZ=            -51.7848
   XY=             -5.1614   XZ=             -0.0146   YZ=              0.0007

  Exact polarizability:  88.041   0.151  73.087  -0.007   0.000  65.585
 Approx polarizability: 124.872   3.491 108.519  -0.010   0.003 101.043

                      1                      2                      3
                      A                      A                      A
 Frequencies --     88.0157               153.1154               167.8107
 Red. masses --      5.3606                 3.1257                 4.8067
 Frc consts  --      0.0245                 0.0432                 0.0798
 IR Inten    --      7.1483                 0.6166                 3.4477

                      4                      5                      6
                      A                      A                      A
 Frequencies --    250.0683               310.1018               358.8999
 Red. masses --      1.1631                 1.8876                 6.4390
 Frc consts  --      0.0429                 0.1069                 0.4887
 IR Inten    --     89.9192                13.9594                 4.2976

                      7                      8                      9
                      A                      A                      A
 Frequencies --    408.6240               476.3868               493.2611
 Red. masses --      1.8111                 3.7157                 2.3518
 Frc consts  --      0.1782                 0.4968                 0.3371
 IR Inten    --      0.0002                 2.7752                 3.9294

                     10                     11                     12
                      A                      A                      A
 Frequencies --    614.9142               623.2978               660.5880
 Red. masses --      3.5956                 2.2853                 3.2800
 Frc consts  --      0.8010                 0.5231                 0.8433
 IR Inten    --     13.5497                 1.0224                12.8371

                     13                     14                     15
                      A                      A                      A
 Frequencies --    765.0358               813.2736               815.2678
 Red. masses --      3.1572                 2.8805                 3.5488
 Frc consts  --      1.0887                 1.1225                 1.3897
 IR Inten    --      4.3982                 0.0000                 9.1668

                     16                     17                     18
                      A                      A                      A
 Frequencies --    867.5120               941.8532               944.2932
 Red. masses --      2.2045                 1.4632                 1.9762
 Frc consts  --      0.9775                 0.7647                 1.0382
 IR Inten    --      0.4870                 0.1771                 3.5763

                     19                     20                     21
                      A                      A                      A
 Frequencies --    974.8836               998.2561              1022.1549
 Red. masses --      1.4186                 2.3474                 2.5136
 Frc consts  --      0.7944                 1.3782                 1.5473
 IR Inten    --      0.3514                 7.4836                36.0939

                     22                     23                     24
                      A                      A                      A
 Frequencies --   1056.5348              1074.6560              1084.3786
 Red. masses --      1.1384                 4.4248                 1.8168
 Frc consts  --      0.7487                 3.0108                 1.2587
 IR Inten    --      0.5772                53.4026                 0.2287

                     25                     26                     27
                      A                      A                      A
 Frequencies --   1120.5247              1140.5284              1187.6215
 Red. masses --      1.9681                 1.3059                 1.3435
 Frc consts  --      1.4559                 1.0008                 1.1164
 IR Inten    --      7.8543                 2.3824                21.2944

                     28                     29                     30
                      A                      A                      A
 Frequencies --   1192.4385              1195.3530              1225.7451
 Red. masses --      1.7469                 1.4021                 1.3894
 Frc consts  --      1.4635                 1.1804                 1.2299
 IR Inten    --     37.2051                 1.6748                 0.3356

                     31                     32                     33
                      A                      A                      A
 Frequencies --   1233.5421              1264.5395              1292.1656
 Red. masses --      1.6449                 1.9894                 1.3485
 Frc consts  --      1.4746                 1.8743                 1.3266
 IR Inten    --      1.7715                23.6702                 0.6342

                     34                     35                     36
                      A                      A                      A
 Frequencies --   1292.3902              1342.5517              1461.4018
 Red. masses --      1.7170                 2.2631                 1.1991
 Frc consts  --      1.6897                 2.4033                 1.5089
 IR Inten    --      7.7534                20.3554                 0.8281

                     37                     38                     39
                      A                      A                      A
 Frequencies --   1467.9754              1489.1260              1510.8227
 Red. masses --      1.4540                 1.0889                 1.0798
 Frc consts  --      1.8461                 1.4227                 1.4522
 IR Inten    --      8.5236                 1.6980                 2.8018

                     40                     41                     42
                      A                      A                      A
 Frequencies --   1525.5614              1869.6146              2957.0870
 Red. masses --      1.1415                12.4219                 1.0547
 Frc consts  --      1.5652                25.5825                 5.4336
 IR Inten    --      0.8502               287.9498                56.5181

                     43                     44                     45
                      A                      A                      A
 Frequencies --   2984.7092              3046.9835              3055.0320
 Red. masses --      1.1059                 1.0585                 1.0600
 Frc consts  --      5.8047                 5.7898                 5.8290
 IR Inten    --     50.4772                17.0048                65.1163

                     46                     47                     48
                      A                      A                      A
 Frequencies --   3058.5787              3093.7831              3134.1632
 Red. masses --      1.0618                 1.1045                 1.1059
 Frc consts  --      5.8523                 6.2285                 6.4001
 IR Inten    --      0.0964                14.9194                 5.9989

                     49                     50                     51
                      A                      A                      A
 Frequencies --   3136.8371              3151.2283              3837.7062
 Red. masses --      1.1038                 1.0913                 1.0665
 Frc consts  --      6.3992                 6.3851                 9.2543
 IR Inten    --     19.1363                27.5292                27.3139

 - Thermochemistry -
 -------------------
 Temperature   298.150 Kelvin.  Pressure   1.00000 Atm.
 Atom     1 has atomic number  8 and mass  15.99491

 Molecular mass:   126.06808 amu.
 Principal axes and moments of inertia in atomic units:
                           1         2         3
     Eigenvalues --   442.450001590.858571736.35908
           X            0.99989  -0.01467  -0.00002
           Y            0.01467   0.99989   0.00000
           Z            0.00002  -0.00001   1.00000
 This molecule is an asymmetric top.
 Rotational symmetry number  1.
 Warning -- assumption of classical behavior for rotation
           may cause significant error
 Rotational temperatures (Kelvin)      0.19576     0.05444     0.04988
 Rotational constants (GHZ):           4.07897     1.13444     1.03938
 Zero-point vibrational energy     420075.8 (Joules/Mol)
                                  100.40053 (Kcal/Mol)
 Warning -- explicit consideration of  10 degrees of freedom as
           vibrations may cause significant error
 Vibrational temperatures:    126.63   220.30   241.44   359.79   446.17
          (Kelvin)            516.38   587.92   685.41   709.69   884.72
                              896.79   950.44  1100.71  1170.12  1172.99
                             1248.15  1355.11  1358.63  1402.64  1436.27
                             1470.65  1520.12  1546.19  1560.18  1612.18
                             1640.96  1708.72  1715.65  1719.84  1763.57
                             1774.79  1819.39  1859.14  1859.46  1931.63
                             2102.63  2112.09  2142.52  2173.73  2194.94
                             2689.96  4254.58  4294.33  4383.92  4395.50
                             4400.61  4451.26  4509.36  4513.20  4533.91
                             5521.60

 Zero-point correction=                           0.159998 (Hartree/Particle)
 Thermal correction to Energy=                    0.168071
 Thermal correction to Enthalpy=                  0.169015
 Thermal correction to Gibbs Free Energy=         0.127422
 Sum of electronic and zero-point Energies=           -423.032162
 Sum of electronic and thermal Energies=              -423.024090
 Sum of electronic and thermal Enthalpies=            -423.023146
 Sum of electronic and thermal Free Energies=         -423.064738

                     E (Thermal)             CV                S
                      KCal/Mol        Cal/Mol-Kelvin    Cal/Mol-Kelvin
 Total                  105.466             31.556             87.539
 Electronic               0.000              0.000              0.000
 Translational            0.889              2.981             40.409
 Rotational               0.889              2.981             28.593
 Vibrational            103.688             25.595             18.538
 Vibration     1          0.601              1.958              3.704
 Vibration     2          0.619              1.899              2.633
 Vibration     3          0.625              1.882              2.460
 Vibration     4          0.663              1.763              1.730
 Vibration     5          0.699              1.654              1.362
 Vibration     6          0.734              1.557              1.127
 Vibration     7          0.773              1.451              0.931
 Vibration     8          0.833              1.302              0.720
 Vibration     9          0.849              1.265              0.675
 Vibration    10          0.974              1.000              0.425

 Optimization completed.
    -- Stationary point found.
 Normal termination of Gaussian 09 at Tue Jan 28 09:59:45 2020.
