 Gaussian 09, Revision D.01,
 Gaussian 09:  ES64L-G09RevD.01 24-Apr-2013

 -----------------------------
 # b3lyp 6-31G(2df,p) opt Freq
 -----------------------------

 -----
 titel
 -----
 Symbolic Z-matrix:
 Charge =  0 Multiplicity = 1

 SCF Done:  E(RB3LYP) =  -423.179386235     A.U. after   14 cycles
 Optimization completed.
    -- Stationary point found.
 Normal termination of Gaussian 09 at Tue Jan 28 12:40:00 2020.

 ----------------------------------------------------------------------
 #N Geom=AllCheck Guess=TCheck SCRF=Check GenChk RB3LYP/6-31G(2df,p) Fr
 eq
 ----------------------------------------------------------------------

 Structure from the checkpoint file:  "/scratch/puck/g09_ba91a725-4e94-4e25-aeeb-ad75a5fb220c/Gau-29189.chk"
 -----
 titel
 -----
 Charge =  0 Multiplicity = 1

                         Standard orientation:
 ---------------------------------------------------------------------
 Center     Atomic      Atomic             Coordinates (Angstroms)
 Number     Number       Type             X           Y           Z
 ---------------------------------------------------------------------
      1          8           0        2.906078   -0.492711   -0.548783
      2          6           0        2.284204    0.440915    0.330779
      3          6           0        0.781005    0.359251    0.283256
      4          6           0        0.033447    1.422232   -0.055400
      5          6           0       -1.421793    1.506748   -0.103886
      6          6           0       -2.329235    0.519136   -0.075701
      7          6           0       -2.109500   -0.966017   -0.089327
      8          8           0       -0.799289   -1.410831   -0.335882
      9          6           0        0.176315   -0.987248    0.607655
     10          1           0        2.540873   -0.341624   -1.427573
     11          1           0        2.656663    0.173789    1.328392
     12          1           0        2.611324    1.471218    0.126113
     13          1           0        0.554736    2.352367   -0.276738
     14          1           0       -1.810003    2.522264   -0.147856
     15          1           0       -3.382325    0.797284   -0.071288
     16          1           0       -2.506530   -1.396821    0.849534
     17          1           0       -2.713696   -1.401149   -0.897075
     18          1           0       -0.255146   -0.972785    1.621953
     19          1           0        0.963135   -1.746315    0.587603
 ---------------------------------------------------------------------

 SCF Done:  E(RB3LYP) =  -423.179386235     A.U. after    1 cycles

 The electronic state is 1-A.
 Alpha  occ. eigenvalues --  -19.13941 -19.13648 -10.23486 -10.23056 -10.22793
 Alpha  occ. eigenvalues --  -10.18990 -10.18802 -10.18781 -10.18702  -1.03344
 Alpha  occ. eigenvalues --   -1.01566  -0.81490  -0.78663  -0.70620  -0.68274
 Alpha  occ. eigenvalues --   -0.64810  -0.56522  -0.52925  -0.51256  -0.49344
 Alpha  occ. eigenvalues --   -0.46387  -0.45547  -0.43816  -0.43314  -0.42713
 Alpha  occ. eigenvalues --   -0.38373  -0.37196  -0.35604  -0.33103  -0.32413
 Alpha  occ. eigenvalues --   -0.29678  -0.28131  -0.25248  -0.21982
 Alpha virt. eigenvalues --   -0.03333   0.07707   0.08713   0.09253   0.12070
 Alpha virt. eigenvalues --    0.12791   0.13920   0.15081   0.15880   0.16699
 Alpha virt. eigenvalues --    0.17395   0.18440   0.19757   0.21807   0.23962

 Mulliken charges:
               1
     1  O   -0.409381
     2  C   -0.159549
     3  C    0.247826
     4  C   -0.163716
     5  C   -0.067114
     6  C   -0.087496
     7  C   -0.135415
     8  O   -0.235429
     9  C   -0.196118
    10  H    0.285075
    11  H    0.113095
    12  H    0.092814
    13  H    0.082997
    14  H    0.088439
    15  H    0.094104
    16  H    0.098170
    17  H    0.122167
    18  H    0.102163
    19  H    0.127366
 Sum of Mulliken charges =   0.00000

 Dipole moment (field-independent basis, Debye):
    X=             -1.3950    Y=              1.3276    Z=              0.4048  Tot=              1.9679
 Quadrupole moment (field-independent basis, Debye-Ang):
   XX=            -53.7649   YY=            -53.5837   ZZ=            -51.6411
   XY=              2.7487   XZ=             -0.4385   YZ=             -1.8744

  Exact polarizability: 111.799   0.211  82.809   4.037  -3.721  55.683
 Approx polarizability: 163.121  -2.554 128.260   7.438  -5.649  88.393

                      1                      2                      3
                      A                      A                      A
 Frequencies --     57.3945                83.2645               175.1004
 Red. masses --      2.7110                 3.7190                 2.6919
 Frc consts  --      0.0053                 0.0152                 0.0486
 IR Inten    --      0.9594                 2.0071                 1.7608

                      4                      5                      6
                      A                      A                      A
 Frequencies --    239.7273               291.6386               316.8803
 Red. masses --      3.7601                 4.0949                 2.1686
 Frc consts  --      0.1273                 0.2052                 0.1283
 IR Inten    --      3.0520                15.2338                15.3822

                      7                      8                      9
                      A                      A                      A
 Frequencies --    379.2512               399.5671               429.4097
 Red. masses --      1.5744                 2.0928                 3.0968
 Frc consts  --      0.1334                 0.1969                 0.3364
 IR Inten    --     66.0156                 8.7828                35.1741

                     10                     11                     12
                      A                      A                      A
 Frequencies --    484.7537               571.8770               615.5827
 Red. masses --      2.8930                 3.2916                 3.4550
 Frc consts  --      0.4005                 0.6342                 0.7714
 IR Inten    --     10.0032                 0.7833                14.2728

                     13                     14                     15
                      A                      A                      A
 Frequencies --    725.3784               819.4516               843.7835
 Red. masses --      1.2932                 4.4195                 4.2387
 Frc consts  --      0.4009                 1.7485                 1.7780
 IR Inten    --     19.6656                 8.3594                 3.7469

                     16                     17                     18
                      A                      A                      A
 Frequencies --    896.8083               916.1462               946.3707
 Red. masses --      2.9902                 1.7946                 2.1622
 Frc consts  --      1.4169                 0.8875                 1.1410
 IR Inten    --      1.5713                 4.6995                 9.2035

                     19                     20                     21
                      A                      A                      A
 Frequencies --    992.4332               998.8259              1007.8806
 Red. masses --      2.0731                 2.0368                 1.2426
 Frc consts  --      1.2030                 1.1972                 0.7437
 IR Inten    --     27.7187                27.9944                 3.9024

                     22                     23                     24
                      A                      A                      A
 Frequencies --   1028.5353              1048.9679              1084.8619
 Red. masses --      3.2698                 2.2405                 2.6762
 Frc consts  --      2.0380                 1.4525                 1.8558
 IR Inten    --     48.4114                 9.9266                22.3825

                     25                     26                     27
                      A                      A                      A
 Frequencies --   1153.6823              1196.9692              1209.5523
 Red. masses --      2.8865                 1.4743                 1.9816
 Frc consts  --      2.2636                 1.2445                 1.7081
 IR Inten    --     16.2225                57.2400                30.1705

                     28                     29                     30
                      A                      A                      A
 Frequencies --   1251.8521              1273.3755              1331.9678
 Red. masses --      1.0550                 1.1745                 1.1736
 Frc consts  --      0.9741                 1.1220                 1.2268
 IR Inten    --      0.6862                 6.3389                 3.9645

                     31                     32                     33
                      A                      A                      A
 Frequencies --   1349.4450              1381.7353              1403.3449
 Red. masses --      1.3033                 1.2012                 1.4043
 Frc consts  --      1.3983                 1.3512                 1.6294
 IR Inten    --      2.3054                 3.8600                 1.5401

                     34                     35                     36
                      A                      A                      A
 Frequencies --   1413.2575              1423.0011              1443.2566
 Red. masses --      1.2969                 1.3398                 1.5882
 Frc consts  --      1.5262                 1.5985                 1.9492
 IR Inten    --     63.2107                31.7623                 0.5703

                     37                     38                     39
                      A                      A                      A
 Frequencies --   1469.8745              1481.0051              1499.4915
 Red. masses --      1.0754                 1.1021                 1.0882
 Frc consts  --      1.3690                 1.4242                 1.4416
 IR Inten    --      0.9768                 9.2234                 1.5860

                     40                     41                     42
                      A                      A                      A
 Frequencies --   1686.6331              1717.2191              2923.1139
 Red. masses --      8.3150                 5.8644                 1.0730
 Frc consts  --     13.9365                10.1889                 5.4020
 IR Inten    --      2.1278                 2.8479                60.6963

                     43                     44                     45
                      A                      A                      A
 Frequencies --   2970.4686              2990.9418              3030.9050
 Red. masses --      1.0696                 1.0632                 1.0851
 Frc consts  --      5.5604                 5.6039                 5.8731
 IR Inten    --     41.0483                59.2002                23.2386

                     46                     47                     48
                      A                      A                      A
 Frequencies --   3041.1544              3091.2969              3127.0331
 Red. masses --      1.0988                 1.0916                 1.0827
 Frc consts  --      5.9878                 6.1460                 6.2375
 IR Inten    --     30.1273                14.3572                 1.8353

                     49                     50                     51
                      A                      A                      A
 Frequencies --   3135.6480              3156.2635              3803.3241
 Red. masses --      1.0875                 1.0931                 1.0662
 Frc consts  --      6.3000                 6.4158                 9.0867
 IR Inten    --     28.7223                32.4160                17.0771

 - Thermochemistry -
 -------------------
 Temperature   298.150 Kelvin.  Pressure   1.00000 Atm.
 Atom     1 has atomic number  8 and mass  15.99491

 Molecular mass:   126.06808 amu.
 Principal axes and moments of inertia in atomic units:
                           1         2         3
     Eigenvalues --   579.385181538.633971960.42939
           X            0.99992   0.01239   0.00242
           Y           -0.01233   0.99967  -0.02250
           Z           -0.00270   0.02247   0.99974
 This molecule is an asymmetric top.
 Rotational symmetry number  1.
 Warning -- assumption of classical behavior for rotation
           may cause significant error
 Rotational temperatures (Kelvin)      0.14949     0.05629     0.04418
 Rotational constants (GHZ):           3.11492     1.17295     0.92058
 Zero-point vibrational energy     420545.4 (Joules/Mol)
                                  100.51276 (Kcal/Mol)
 Warning -- explicit consideration of  12 degrees of freedom as
           vibrations may cause significant error
 Vibrational temperatures:     82.58   119.80   251.93   344.91   419.60
          (Kelvin)            455.92   545.66   574.89   617.82   697.45
                              822.80   885.69  1043.66  1179.01  1214.01
                             1290.31  1318.13  1361.61  1427.89  1437.09
                             1450.11  1479.83  1509.23  1560.87  1659.89
                             1722.17  1740.27  1801.13  1832.10  1916.40
                             1941.55  1988.01  2019.10  2033.36  2047.38
                             2076.52  2114.82  2130.83  2157.43  2426.69
                             2470.69  4205.70  4273.84  4303.29  4360.79
                             4375.54  4447.68  4499.10  4511.49  4541.15
                             5472.13

 Zero-point correction=                           0.160177 (Hartree/Particle)
 Thermal correction to Energy=                    0.168761
 Thermal correction to Enthalpy=                  0.169705
 Thermal correction to Gibbs Free Energy=         0.126424
 Sum of electronic and zero-point Energies=           -423.019209
 Sum of electronic and thermal Energies=              -423.010625
 Sum of electronic and thermal Enthalpies=            -423.009681
 Sum of electronic and thermal Free Energies=         -423.052962

                     E (Thermal)             CV                S
                      KCal/Mol        Cal/Mol-Kelvin    Cal/Mol-Kelvin
 Total                  105.899             32.207             91.093
 Electronic               0.000              0.000              0.000
 Translational            0.889              2.981             40.409
 Rotational               0.889              2.981             28.948
 Vibrational            104.122             26.246             21.736
 Vibration     1          0.596              1.975              4.545
 Vibration     2          0.600              1.961              3.812
 Vibration     3          0.627              1.873              2.380
 Vibration     4          0.657              1.780              1.805
 Vibration     5          0.687              1.689              1.464
 Vibration     6          0.704              1.641              1.326
 Vibration     7          0.749              1.514              1.042
 Vibration     8          0.766              1.471              0.964
 Vibration     9          0.791              1.406              0.861
 Vibration    10          0.841              1.284              0.697
 Vibration    11          0.928              1.092              0.501
 Vibration    12          0.975              0.999              0.424

 Optimization completed.
    -- Stationary point found.
 Normal termination of Gaussian 09 at Tue Jan 28 13:21:44 2020.
