 Gaussian 09, Revision D.01,
 Gaussian 09:  ES64L-G09RevD.01 24-Apr-2013

 -----------------------------
 # b3lyp 6-31G(2df,p) opt Freq
 -----------------------------

 -----
 titel
 -----
 Symbolic Z-matrix:
 Charge =  0 Multiplicity = 1

 SCF Done:  E(RB3LYP) =  -423.148040203     A.U. after   14 cycles
 SCF Done:  E(RB3LYP) =  -423.148040501     A.U. after    7 cycles
 Optimization completed.
    -- Stationary point found.
 Normal termination of Gaussian 09 at Mon Jan 27 23:10:25 2020.

 ----------------------------------------------------------------------
 #N Geom=AllCheck Guess=TCheck SCRF=Check GenChk RB3LYP/6-31G(2df,p) Fr
 eq
 ----------------------------------------------------------------------

 Structure from the checkpoint file:  "/scratch/puck/g09_ed392c22-04d7-4d2c-8958-5779596a3594/Gau-179066.chk"
 -----
 titel
 -----
 Charge =  0 Multiplicity = 1

                         Standard orientation:
 ---------------------------------------------------------------------
 Center     Atomic      Atomic             Coordinates (Angstroms)
 Number     Number       Type             X           Y           Z
 ---------------------------------------------------------------------
      1          8           0        2.795966    0.000014   -0.073080
      2          6           0        1.491391    0.000025   -0.574739
      3          6           0        0.506376    0.986100    0.119480
      4          8           0        0.404928   -0.000052    1.209216
      5          6           0        0.506385   -0.986115    0.119401
      6          6           0       -0.800491   -0.788796   -0.654769
      7          6           0       -2.108506   -0.779619    0.182363
      8          6           0       -2.108529    0.779610    0.182366
      9          6           0       -0.800489    0.788834   -0.654720
     10          1           0        2.712150   -0.000028    0.889789
     11          1           0        1.554192    0.000069   -1.666246
     12          1           0        0.804631    1.979702    0.456504
     13          1           0        0.804646   -1.979742    0.456346
     14          1           0       -0.821985   -1.321249   -1.607177
     15          1           0       -2.961873   -1.225883   -0.333517
     16          1           0       -2.015892   -1.237066    1.169799
     17          1           0       -2.961879    1.225830   -0.333583
     18          1           0       -2.016010    1.237081    1.169800
     19          1           0       -0.821955    1.321349   -1.607095
 ---------------------------------------------------------------------

 SCF Done:  E(RB3LYP) =  -423.148040501     A.U. after    1 cycles

 The electronic state is 1-A.
 Alpha  occ. eigenvalues --  -19.14209 -19.13940 -10.23808 -10.23394 -10.23394
 Alpha  occ. eigenvalues --  -10.18841 -10.18824 -10.17899 -10.17881  -1.06208
 Alpha  occ. eigenvalues --   -1.01125  -0.84076  -0.74600  -0.71618  -0.64755
 Alpha  occ. eigenvalues --   -0.62376  -0.56802  -0.52965  -0.52698  -0.50952
 Alpha  occ. eigenvalues --   -0.47533  -0.43714  -0.42986  -0.41955  -0.38555
 Alpha  occ. eigenvalues --   -0.36568  -0.36255  -0.35706  -0.32622  -0.31475
 Alpha  occ. eigenvalues --   -0.31391  -0.29180  -0.25701  -0.25054
 Alpha virt. eigenvalues --    0.07825   0.09243   0.10247   0.10780   0.12353
 Alpha virt. eigenvalues --    0.12908   0.14700   0.15265   0.15961   0.16144
 Alpha virt. eigenvalues --    0.17104   0.18301   0.18860   0.20093   0.22803

 Mulliken charges:
               1
     1  O   -0.456631
     2  C    0.191979
     3  C    0.005637
     4  O   -0.324969
     5  C    0.005637
     6  C   -0.029360
     7  C   -0.225615
     8  C   -0.225616
     9  C   -0.029358
    10  H    0.287998
    11  H    0.084530
    12  H    0.081183
    13  H    0.081182
    14  H    0.072579
    15  H    0.096737
    16  H    0.107387
    17  H    0.096739
    18  H    0.107382
    19  H    0.072579
 Sum of Mulliken charges =   0.00000

 Dipole moment (field-independent basis, Debye):
    X=             -1.1987    Y=              0.0000    Z=             -0.7711  Tot=              1.4253
 Quadrupole moment (field-independent basis, Debye-Ang):
   XX=            -57.7810   YY=            -50.7181   ZZ=            -53.0005
   XY=             -0.0001   XZ=              3.0062   YZ=              0.0001

  Exact polarizability:  84.254   0.000  70.868   0.842   0.000  65.815
 Approx polarizability: 110.364   0.000 107.462   1.421   0.000 107.369

                      1                      2                      3
                      A                      A                      A
 Frequencies --    157.5927               185.9934               269.8610
 Red. masses --      2.0625                 4.0715                 3.7992
 Frc consts  --      0.0302                 0.0830                 0.1630
 IR Inten    --      0.0020                 3.2768                 0.0519

                      4                      5                      6
                      A                      A                      A
 Frequencies --    331.8651               406.4577               467.0421
 Red. masses --      4.7198                 2.2192                 5.2320
 Frc consts  --      0.3063                 0.2160                 0.6724
 IR Inten    --     13.7503                 0.3965                 2.6040

                      7                      8                      9
                      A                      A                      A
 Frequencies --    508.0571               634.4787               636.5739
 Red. masses --      1.1892                 4.1138                 3.2087
 Frc consts  --      0.1809                 0.9757                 0.7661
 IR Inten    --     81.6157                 0.1702                 5.4158

                     10                     11                     12
                      A                      A                      A
 Frequencies --    749.2997               764.2741               838.7584
 Red. masses --      1.2658                 2.5940                 2.5740
 Frc consts  --      0.4187                 0.8927                 1.0669
 IR Inten    --      5.4427                 0.4422                10.4675

                     13                     14                     15
                      A                      A                      A
 Frequencies --    846.8601               854.4929               858.9580
 Red. masses --      2.0103                 4.3159                 2.9254
 Frc consts  --      0.8494                 1.8567                 1.2717
 IR Inten    --      1.6377                32.0800                 6.9137

                     16                     17                     18
                      A                      A                      A
 Frequencies --    909.5588               929.7770               959.0251
 Red. masses --      4.2103                 2.2790                 3.1544
 Frc consts  --      2.0522                 1.1608                 1.7093
 IR Inten    --     23.2672                22.8762                 0.2331

                     19                     20                     21
                      A                      A                      A
 Frequencies --    959.0745               998.7995              1027.2502
 Red. masses --      2.8246                 1.8762                 3.1784
 Frc consts  --      1.5308                 1.1028                 1.9761
 IR Inten    --      0.0265                 0.4672                11.5945

                     22                     23                     24
                      A                      A                      A
 Frequencies --   1032.5658              1051.9889              1082.4992
 Red. masses --      1.9473                 1.6960                 1.7881
 Frc consts  --      1.2233                 1.1058                 1.2345
 IR Inten    --      8.1167                 7.0642                35.4173

                     25                     26                     27
                      A                      A                      A
 Frequencies --   1145.3470              1158.7495              1159.9058
 Red. masses --      2.1623                 1.4744                 1.6646
 Frc consts  --      1.6712                 1.1664                 1.3195
 IR Inten    --    100.8193                 1.5911                 0.6785

                     28                     29                     30
                      A                      A                      A
 Frequencies --   1204.7275              1216.5443              1232.6205
 Red. masses --      1.4217                 1.3334                 1.4684
 Frc consts  --      1.2158                 1.1627                 1.3145
 IR Inten    --      0.5372                 0.9207                14.6457

                     31                     32                     33
                      A                      A                      A
 Frequencies --   1247.0614              1250.2828              1262.5580
 Red. masses --      1.3254                 1.3031                 1.5348
 Frc consts  --      1.2144                 1.2001                 1.4414
 IR Inten    --      0.4848                 0.1922                 5.6149

                     34                     35                     36
                      A                      A                      A
 Frequencies --   1282.7697              1309.2239              1321.3347
 Red. masses --      1.4511                 1.6159                 1.8016
 Frc consts  --      1.4069                 1.6319                 1.8532
 IR Inten    --      0.3018                 0.0824                 0.0140

                     37                     38                     39
                      A                      A                      A
 Frequencies --   1323.3154              1328.9314              1443.3032
 Red. masses --      1.4482                 1.6959                 1.3128
 Frc consts  --      1.4942                 1.7646                 1.6112
 IR Inten    --     16.7834                 2.2678                96.6594

                     40                     41                     42
                      A                      A                      A
 Frequencies --   1464.3387              1485.3285              3061.4848
 Red. masses --      1.0841                 1.1216                 1.0576
 Frc consts  --      1.3696                 1.4579                 5.8404
 IR Inten    --      1.0646                 1.6211                30.8597

                     43                     44                     45
                      A                      A                      A
 Frequencies --   3067.2166              3082.9230              3089.4199
 Red. masses --      1.0599                 1.0869                 1.0882
 Frc consts  --      5.8748                 6.0864                 6.1193
 IR Inten    --     46.6920                25.3003                14.0102

                     46                     47                     48
                      A                      A                      A
 Frequencies --   3099.4273              3109.4043              3116.1711
 Red. masses --      1.0880                 1.1064                 1.0881
 Frc consts  --      6.1582                 6.3023                 6.2254
 IR Inten    --     32.2031                 0.1438                71.2231

                     49                     50                     51
                      A                      A                      A
 Frequencies --   3120.9387              3127.9690              3767.4905
 Red. masses --      1.0953                 1.1068                 1.0644
 Frc consts  --      6.2856                 6.3803                 8.9013
 IR Inten    --     13.7368                43.9918                22.6779

 - Thermochemistry -
 -------------------
 Temperature   298.150 Kelvin.  Pressure   1.00000 Atm.
 Atom     1 has atomic number  8 and mass  15.99491

 Molecular mass:   126.06808 amu.
 Principal axes and moments of inertia in atomic units:
                           1         2         3
     Eigenvalues --   433.690081327.636811396.68828
           X            1.00000   0.00000   0.00193
           Y            0.00000   1.00000   0.00000
           Z           -0.00193   0.00000   1.00000
 This molecule is an asymmetric top.
 Rotational symmetry number  1.
 Warning -- assumption of classical behavior for rotation
           may cause significant error
 Rotational temperatures (Kelvin)      0.19971     0.06524     0.06201
 Rotational constants (GHZ):           4.16136     1.35936     1.29216
 Zero-point vibrational energy     424314.8 (Joules/Mol)
                                  101.41367 (Kcal/Mol)
 Warning -- explicit consideration of   7 degrees of freedom as
           vibrations may cause significant error
 Vibrational temperatures:    226.74   267.60   388.27   477.48   584.80
          (Kelvin)            671.97   730.98   912.87   915.89  1078.07
                             1099.62  1206.78  1218.44  1229.42  1235.85
                             1308.65  1337.74  1379.82  1379.89  1437.05
                             1477.98  1485.63  1513.58  1557.47  1647.90
                             1667.18  1668.84  1733.33  1750.33  1773.46
                             1794.24  1798.88  1816.54  1845.62  1883.68
                             1901.10  1903.95  1912.03  2076.59  2106.85
                             2137.05  4404.79  4413.04  4435.63  4444.98
                             4459.38  4473.73  4483.47  4490.33  4500.44
                             5420.57

 Zero-point correction=                           0.161613 (Hartree/Particle)
 Thermal correction to Energy=                    0.168562
 Thermal correction to Enthalpy=                  0.169506
 Thermal correction to Gibbs Free Energy=         0.130556
 Sum of electronic and zero-point Energies=           -422.986428
 Sum of electronic and thermal Energies=              -422.979478
 Sum of electronic and thermal Enthalpies=            -422.978534
 Sum of electronic and thermal Free Energies=         -423.017484

                     E (Thermal)             CV                S
                      KCal/Mol        Cal/Mol-Kelvin    Cal/Mol-Kelvin
 Total                  105.774             28.979             81.978
 Electronic               0.000              0.000              0.000
 Translational            0.889              2.981             40.409
 Rotational               0.889              2.981             28.177
 Vibrational            103.997             23.017             13.392
 Vibration     1          0.621              1.894              2.578
 Vibration     2          0.632              1.859              2.267
 Vibration     3          0.674              1.729              1.597
 Vibration     4          0.714              1.612              1.251
 Vibration     5          0.771              1.456              0.939
 Vibration     6          0.824              1.323              0.746
 Vibration     7          0.863              1.232              0.638

 Optimization completed.
    -- Stationary point found.
 Normal termination of Gaussian 09 at Mon Jan 27 23:59:16 2020.
