 Gaussian 09, Revision D.01,
 Gaussian 09:  ES64L-G09RevD.01 24-Apr-2013

 -----------------------------
 # b3lyp 6-31G(2df,p) opt Freq
 -----------------------------

 -----
 titel
 -----
 Symbolic Z-matrix:
 Charge =  0 Multiplicity = 1

 SCF Done:  E(RB3LYP) =  -423.143431971     A.U. after   13 cycles
 Optimization completed.
    -- Stationary point found.
 Normal termination of Gaussian 09 at Tue Jan 28 02:58:40 2020.

 ----------------------------------------------------------------------
 #N Geom=AllCheck Guess=TCheck SCRF=Check GenChk RB3LYP/6-31G(2df,p) Fr
 eq
 ----------------------------------------------------------------------

 Structure from the checkpoint file:  "/scratch/puck/g09_63ea722b-bcbc-447b-b6b3-a90bd11d802c/Gau-29472.chk"
 -----
 titel
 -----
 Charge =  0 Multiplicity = 1

                         Standard orientation:
 ---------------------------------------------------------------------
 Center     Atomic      Atomic             Coordinates (Angstroms)
 Number     Number       Type             X           Y           Z
 ---------------------------------------------------------------------
      1          6           0        2.354553   -0.000033    0.835659
      2          6           0        1.530666    0.000034   -0.450045
      3          8           0        0.751229   -1.179683   -0.561766
      4          6           0       -0.567927   -1.051706   -0.098157
      5          6           0       -0.889737    0.000013    1.013603
      6          6           0       -2.342146   -0.000035    0.476451
      7          6           0       -1.475561   -0.000022   -0.804186
      8          6           0       -0.567973    1.051714   -0.098157
      9          8           0        0.751203    1.179739   -0.561690
     10          1           0        2.989817   -0.889801    0.863998
     11          1           0        2.988631    0.890543    0.864855
     12          1           0        1.714432   -0.000960    1.720836
     13          1           0        2.201224    0.000063   -1.316592
     14          1           0       -0.967235   -2.060799    0.026725
     15          1           0       -0.574541    0.000063    2.057386
     16          1           0       -2.926795   -0.903125    0.668334
     17          1           0       -2.926839    0.903029    0.668321
     18          1           0       -1.802072   -0.000043   -1.843903
     19          1           0       -0.967324    2.060795    0.026682
 ---------------------------------------------------------------------

 SCF Done:  E(RB3LYP) =  -423.143431971     A.U. after    1 cycles

 The electronic state is 1-A.
 Alpha  occ. eigenvalues --  -19.14414 -19.14413 -10.27864 -10.24295 -10.24295
 Alpha  occ. eigenvalues --  -10.20090 -10.19446 -10.19372 -10.17360  -1.07867
 Alpha  occ. eigenvalues --   -1.00370  -0.90949  -0.75220  -0.66959  -0.66566
 Alpha  occ. eigenvalues --   -0.63660  -0.61911  -0.52142  -0.51953  -0.50421
 Alpha  occ. eigenvalues --   -0.47119  -0.44985  -0.41913  -0.41281  -0.39172
 Alpha  occ. eigenvalues --   -0.38007  -0.37414  -0.36838  -0.35540  -0.32992
 Alpha  occ. eigenvalues --   -0.32039  -0.28828  -0.25705  -0.23930
 Alpha virt. eigenvalues --    0.10395   0.10725   0.11845   0.13155   0.13944
 Alpha virt. eigenvalues --    0.14013   0.14272   0.15455   0.16141   0.16617
 Alpha virt. eigenvalues --    0.18011   0.18116   0.18912   0.18973   0.21917

 Mulliken charges:
               1
     1  C   -0.400447
     2  C    0.211774
     3  O   -0.292561
     4  C    0.158499
     5  C   -0.149761
     6  C   -0.251077
     7  C   -0.121279
     8  C    0.158524
     9  O   -0.292568
    10  H    0.123265
    11  H    0.123275
    12  H    0.121738
    13  H    0.092977
    14  H    0.082055
    15  H    0.077001
    16  H    0.099743
    17  H    0.099743
    18  H    0.077044
    19  H    0.082055
 Sum of Mulliken charges =   0.00000

 Dipole moment (field-independent basis, Debye):
    X=             -0.7614    Y=              0.0000    Z=              0.9455  Tot=              1.2140
 Quadrupole moment (field-independent basis, Debye-Ang):
   XX=            -50.0662   YY=            -55.3621   ZZ=            -53.2503
   XY=              0.0000   XZ=              0.4116   YZ=             -0.0001

  Exact polarizability:  89.334   0.000  67.892  -0.856   0.000  66.582
 Approx polarizability: 116.539   0.000 107.109  -3.434   0.000 103.275

                      1                      2                      3
                      A                      A                      A
 Frequencies --    122.1745               208.2917               240.8833
 Red. masses --      3.6955                 1.1807                 2.0255
 Frc consts  --      0.0325                 0.0302                 0.0692
 IR Inten    --      2.7289                 0.0206                 0.8600

                      4                      5                      6
                      A                      A                      A
 Frequencies --    375.8989               388.0115               433.1591
 Red. masses --      3.2618                 3.3214                 2.6097
 Frc consts  --      0.2715                 0.2946                 0.2885
 IR Inten    --      0.0659                 0.6871                 0.0451

                      7                      8                      9
                      A                      A                      A
 Frequencies --    481.0117               568.3365               579.2310
 Red. masses --      5.0601                 6.4577                 3.2430
 Frc consts  --      0.6898                 1.2290                 0.6411
 IR Inten    --      6.7381                 6.2865                 3.5674

                     10                     11                     12
                      A                      A                      A
 Frequencies --    739.6373               779.7042               809.0540
 Red. masses --      8.3221                 2.9695                 3.0062
 Frc consts  --      2.6824                 1.0636                 1.1594
 IR Inten    --      3.0923                 4.3602                 0.7517

                     13                     14                     15
                      A                      A                      A
 Frequencies --    836.6971               851.9359               898.2695
 Red. masses --      2.2386                 2.3596                 1.9541
 Frc consts  --      0.9233                 1.0090                 0.9290
 IR Inten    --      1.0522                 3.4049                 6.1346

                     16                     17                     18
                      A                      A                      A
 Frequencies --    913.1950               926.2839               998.7084
 Red. masses --      1.9498                 1.8846                 1.7456
 Frc consts  --      0.9580                 0.9527                 1.0258
 IR Inten    --      6.9958                32.1016                 2.9525

                     19                     20                     21
                      A                      A                      A
 Frequencies --   1004.2776              1007.4055              1079.5113
 Red. masses --      1.0925                 4.1923                 1.4367
 Frc consts  --      0.6492                 2.5068                 0.9864
 IR Inten    --      0.9458                 1.6405                12.8152

                     22                     23                     24
                      A                      A                      A
 Frequencies --   1083.9209              1093.1468              1096.3392
 Red. masses --      3.5670                 1.5239                 1.8822
 Frc consts  --      2.4691                 1.0729                 1.3329
 IR Inten    --     19.3503                 2.3023                26.7690

                     25                     26                     27
                      A                      A                      A
 Frequencies --   1113.2137              1124.9667              1145.6794
 Red. masses --      2.3564                 3.9476                 2.6417
 Frc consts  --      1.7205                 2.9435                 2.0430
 IR Inten    --      0.0012                11.3985                39.5280

                     28                     29                     30
                      A                      A                      A
 Frequencies --   1172.6907              1205.2046              1226.3171
 Red. masses --      1.3575                 1.4506                 3.8468
 Frc consts  --      1.0999                 1.2414                 3.4085
 IR Inten    --      0.8168                 0.1762               263.0673

                     31                     32                     33
                      A                      A                      A
 Frequencies --   1252.8546              1255.9511              1259.8477
 Red. masses --      1.8460                 1.8994                 1.8626
 Frc consts  --      1.7072                 1.7653                 1.7419
 IR Inten    --     61.5130               103.4236                17.4212

                     34                     35                     36
                      A                      A                      A
 Frequencies --   1351.1037              1385.0561              1404.2154
 Red. masses --      1.1650                 1.1945                 1.2922
 Frc consts  --      1.2530                 1.3502                 1.5013
 IR Inten    --      2.7969                12.9453                43.5138

                     37                     38                     39
                      A                      A                      A
 Frequencies --   1410.0278              1419.2499              1486.2263
 Red. masses --      1.3316                 1.3092                 1.0508
 Frc consts  --      1.5598                 1.5538                 1.3675
 IR Inten    --     17.8727                23.9994                 4.1242

                     40                     41                     42
                      A                      A                      A
 Frequencies --   1487.7863              1516.2567              3044.9545
 Red. masses --      1.0600                 1.1310                 1.0821
 Frc consts  --      1.3824                 1.5321                 5.9112
 IR Inten    --      0.0655                 3.7762                45.1133

                     43                     44                     45
                      A                      A                      A
 Frequencies --   3049.1785              3058.5213              3087.9081
 Red. masses --      1.0398                 1.0543                 1.0865
 Frc consts  --      5.6957                 5.8106                 6.1038
 IR Inten    --     17.3241                38.9083                74.1646

                     46                     47                     48
                      A                      A                      A
 Frequencies --   3088.5190              3108.6608              3121.6947
 Red. masses --      1.0865                 1.0919                 1.1109
 Frc consts  --      6.1066                 6.2171                 6.3783
 IR Inten    --     12.4515                62.8776                29.2378

                     49                     50                     51
                      A                      A                      A
 Frequencies --   3122.6691              3124.5805              3136.7039
 Red. masses --      1.0953                 1.1024                 1.1011
 Frc consts  --      6.2926                 6.3410                 6.3831
 IR Inten    --     20.0384                17.1177                31.3259

 - Thermochemistry -
 -------------------
 Temperature   298.150 Kelvin.  Pressure   1.00000 Atm.
 Atom     1 has atomic number  6 and mass  12.00000

 Molecular mass:   126.06808 amu.
 Principal axes and moments of inertia in atomic units:
                           1         2         3
     Eigenvalues --   505.260421175.513531262.10994
           X            0.99987   0.00000   0.01585
           Y            0.00000   1.00000  -0.00001
           Z           -0.01585   0.00001   0.99987
 This molecule is an asymmetric top.
 Rotational symmetry number  1.
 Warning -- assumption of classical behavior for rotation
           may cause significant error
 Rotational temperatures (Kelvin)      0.17142     0.07368     0.06863
 Rotational constants (GHZ):           3.57190     1.53528     1.42994
 Zero-point vibrational energy     422731.1 (Joules/Mol)
                                  101.03516 (Kcal/Mol)
 Warning -- explicit consideration of   9 degrees of freedom as
           vibrations may cause significant error
 Vibrational temperatures:    175.78   299.68   346.58   540.83   558.26
          (Kelvin)            623.22   692.07   817.71   833.38  1064.17
                             1121.82  1164.05  1203.82  1225.74  1292.41
                             1313.88  1332.71  1436.92  1444.93  1449.43
                             1553.17  1559.52  1572.79  1577.39  1601.66
                             1618.57  1648.38  1687.24  1734.02  1764.39
                             1802.58  1807.03  1812.64  1943.93  1992.78
                             2020.35  2028.71  2041.98  2138.35  2140.59
                             2181.55  4381.00  4387.08  4400.52  4442.81
                             4443.68  4472.66  4491.42  4492.82  4495.57
                             4513.01

 Zero-point correction=                           0.161010 (Hartree/Particle)
 Thermal correction to Energy=                    0.168074
 Thermal correction to Enthalpy=                  0.169019
 Thermal correction to Gibbs Free Energy=         0.129801
 Sum of electronic and zero-point Energies=           -422.982422
 Sum of electronic and thermal Energies=              -422.975358
 Sum of electronic and thermal Enthalpies=            -422.974413
 Sum of electronic and thermal Free Energies=         -423.013631

                     E (Thermal)             CV                S
                      KCal/Mol        Cal/Mol-Kelvin    Cal/Mol-Kelvin
 Total                  105.468             29.018             82.540
 Electronic               0.000              0.000              0.000
 Translational            0.889              2.981             40.409
 Rotational               0.889              2.981             28.107
 Vibrational            103.691             23.056             14.025
 Vibration     1          0.610              1.931              3.066
 Vibration     2          0.642              1.828              2.059
 Vibration     3          0.658              1.778              1.796
 Vibration     4          0.747              1.521              1.056
 Vibration     5          0.756              1.496              1.008
 Vibration     6          0.794              1.398              0.848
 Vibration     7          0.837              1.292              0.707
 Vibration     8          0.924              1.100              0.507
 Vibration     9          0.936              1.076              0.487

 Optimization completed.
    -- Stationary point found.
 Normal termination of Gaussian 09 at Tue Jan 28 03:47:36 2020.
