 Gaussian 09, Revision D.01,
 Gaussian 09:  ES64L-G09RevD.01 24-Apr-2013

 -----------------------------
 # b3lyp 6-31G(2df,p) opt Freq
 -----------------------------

 -----
 titel
 -----
 Symbolic Z-matrix:
 Charge =  0 Multiplicity = 1

 SCF Done:  E(RB3LYP) =  -423.123286221     A.U. after   14 cycles
 Optimization completed.
    -- Stationary point found.
 Normal termination of Gaussian 09 at Tue Jan 28 00:02:20 2020.

 ----------------------------------------------------------------------
 #N Geom=AllCheck Guess=TCheck SCRF=Check GenChk RB3LYP/6-31G(2df,p) Fr
 eq
 ----------------------------------------------------------------------

 Structure from the checkpoint file:  "/scratch/puck/g09_65d1577b-9c75-43c0-abe7-75e2d12db7b0/Gau-104176.chk"
 -----
 titel
 -----
 Charge =  0 Multiplicity = 1

                         Standard orientation:
 ---------------------------------------------------------------------
 Center     Atomic      Atomic             Coordinates (Angstroms)
 Number     Number       Type             X           Y           Z
 ---------------------------------------------------------------------
      1          6           0        1.230620    2.101955   -0.011297
      2          6           0        0.273851    0.980986   -0.396443
      3          6           0       -1.022531    0.827109    0.467519
      4          6           0       -2.224382    0.267210   -0.304008
      5          8           0       -1.735187   -1.089305   -0.172646
      6          6           0       -0.677886   -0.675658    0.717902
      7          6           0        0.659996   -0.454210    0.021030
      8          6           0        1.971910   -0.969541    0.427628
      9          8           0        1.330572   -1.401627   -0.779069
     10          1           0        2.167582    2.031595   -0.573879
     11          1           0        0.790052    3.082086   -0.222795
     12          1           0        1.476060    2.067388    1.055815
     13          1           0        0.040881    1.036569   -1.465452
     14          1           0       -1.185490    1.560833    1.255240
     15          1           0       -3.190709    0.389255    0.202740
     16          1           0       -2.326111    0.575140   -1.351976
     17          1           0       -0.705279   -1.207137    1.673639
     18          1           0        2.861188   -0.356173    0.290967
     19          1           0        2.039277   -1.719206    1.215430
 ---------------------------------------------------------------------

 SCF Done:  E(RB3LYP) =  -423.123286221     A.U. after    1 cycles

 The electronic state is 1-A.
 Alpha  occ. eigenvalues --  -19.15302 -19.13444 -10.23894 -10.23529 -10.23504
 Alpha  occ. eigenvalues --  -10.23262 -10.19741 -10.19723 -10.18526  -1.07595
 Alpha  occ. eigenvalues --   -1.03958  -0.83155  -0.72627  -0.71174  -0.66360
 Alpha  occ. eigenvalues --   -0.62567  -0.58779  -0.52507  -0.51057  -0.49826
 Alpha  occ. eigenvalues --   -0.48532  -0.45372  -0.44073  -0.41955  -0.40957
 Alpha  occ. eigenvalues --   -0.39974  -0.37524  -0.34734  -0.33550  -0.32780
 Alpha  occ. eigenvalues --   -0.29490  -0.29034  -0.27094  -0.24138
 Alpha virt. eigenvalues --    0.05357   0.09145   0.09248   0.10620   0.11643
 Alpha virt. eigenvalues --    0.12896   0.13380   0.13989   0.15433   0.15770
 Alpha virt. eigenvalues --    0.16997   0.17428   0.19317   0.20182   0.20590

 Mulliken charges:
               1
     1  C   -0.421417
     2  C   -0.085543
     3  C   -0.093079
     4  C   -0.083402
     5  O   -0.287282
     6  C   -0.004823
     7  C    0.461640
     8  C   -0.266067
     9  O   -0.262118
    10  H    0.124601
    11  H    0.119221
    12  H    0.115361
    13  H    0.091040
    14  H    0.079124
    15  H    0.100382
    16  H    0.104644
    17  H    0.075584
    18  H    0.115677
    19  H    0.116457
 Sum of Mulliken charges =   0.00000

 Dipole moment (field-independent basis, Debye):
    X=              0.4585    Y=              2.6586    Z=              1.8068  Tot=              3.2470
 Quadrupole moment (field-independent basis, Debye-Ang):
   XX=            -51.4788   YY=            -56.0376   ZZ=            -52.6425
   XY=             -2.2977   XZ=              1.6975   YZ=             -3.8438

  Exact polarizability:  87.607  -3.403  73.799   3.008  -4.496  64.438
 Approx polarizability: 115.564  -5.521 105.976   4.639  -2.030 102.232

                      1                      2                      3
                      A                      A                      A
 Frequencies --     62.5059               183.2943               221.7966
 Red. masses --      3.4915                 4.8020                 2.7186
 Frc consts  --      0.0080                 0.0951                 0.0788
 IR Inten    --      1.9087                 0.6429                 1.2080

                      4                      5                      6
                      A                      A                      A
 Frequencies --    236.0196               246.0060               291.3860
 Red. masses --      1.6791                 1.5204                 2.4903
 Frc consts  --      0.0551                 0.0542                 0.1246
 IR Inten    --      0.5727                 0.0420                 0.8606

                      7                      8                      9
                      A                      A                      A
 Frequencies --    349.7857               430.5094               522.0893
 Red. masses --      2.9097                 3.6352                 3.7736
 Frc consts  --      0.2097                 0.3970                 0.6060
 IR Inten    --      3.0107                 2.4025                 1.1643

                     10                     11                     12
                      A                      A                      A
 Frequencies --    604.2475               763.4906               788.5662
 Red. masses --      4.3561                 3.1695                 1.9890
 Frc consts  --      0.9371                 1.0886                 0.7287
 IR Inten    --     19.4564                 1.3556                 2.7013

                     13                     14                     15
                      A                      A                      A
 Frequencies --    818.6078               870.1169               882.0591
 Red. masses --      1.8740                 1.9041                 3.7063
 Frc consts  --      0.7399                 0.8494                 1.6990
 IR Inten    --      7.2744                10.7558                 1.7504

                     16                     17                     18
                      A                      A                      A
 Frequencies --    909.1608               946.5317               972.2768
 Red. masses --      3.1760                 3.1442                 2.2964
 Frc consts  --      1.5467                 1.6597                 1.2790
 IR Inten    --     16.6692                34.3689                 8.6572

                     19                     20                     21
                      A                      A                      A
 Frequencies --    985.4553              1013.4102              1045.7822
 Red. masses --      1.3114                 5.2022                 2.8659
 Frc consts  --      0.7504                 3.1478                 1.8467
 IR Inten    --      0.2864                83.0282                 9.5103

                     22                     23                     24
                      A                      A                      A
 Frequencies --   1075.1791              1109.8650              1124.7951
 Red. masses --      2.2792                 1.9215                 1.3215
 Frc consts  --      1.5523                 1.3946                 0.9851
 IR Inten    --     15.8450                 2.2880                 2.8142

                     25                     26                     27
                      A                      A                      A
 Frequencies --   1138.8332              1149.1455              1158.3107
 Red. masses --      1.7622                 1.8547                 1.4183
 Frc consts  --      1.3465                 1.4430                 1.1212
 IR Inten    --      2.4833                 5.4489                 0.7106

                     28                     29                     30
                      A                      A                      A
 Frequencies --   1171.4243              1206.2933              1222.0878
 Red. masses --      1.3316                 1.7513                 1.9229
 Frc consts  --      1.0766                 1.5015                 1.6920
 IR Inten    --      2.5293                 0.4577                 0.9649

                     31                     32                     33
                      A                      A                      A
 Frequencies --   1256.1346              1282.3498              1286.7865
 Red. masses --      1.7170                 1.4876                 1.3425
 Frc consts  --      1.5962                 1.4413                 1.3097
 IR Inten    --      1.5460                 0.2597                12.6736

                     34                     35                     36
                      A                      A                      A
 Frequencies --   1354.4096              1362.4808              1405.3936
 Red. masses --      1.4648                 1.6414                 1.3127
 Frc consts  --      1.5831                 1.7953                 1.5276
 IR Inten    --      3.8305                 1.5576                 0.7877

                     37                     38                     39
                      A                      A                      A
 Frequencies --   1433.4345              1495.6955              1498.1238
 Red. masses --      2.2037                 1.0487                 1.0574
 Frc consts  --      2.6678                 1.3822                 1.3983
 IR Inten    --     14.7143                 3.4269                 4.4111

                     40                     41                     42
                      A                      A                      A
 Frequencies --   1520.6190              1530.8781              3006.4460
 Red. masses --      1.0995                 1.4770                 1.0561
 Frc consts  --      1.4979                 2.0394                 5.6243
 IR Inten    --      0.8486                 7.7430                88.7508

                     43                     44                     45
                      A                      A                      A
 Frequencies --   3027.8961              3045.3636              3053.9450
 Red. masses --      1.0349                 1.0863                 1.1079
 Frc consts  --      5.5901                 5.9357                 6.0881
 IR Inten    --     21.7356                 7.2574                47.7856

                     46                     47                     48
                      A                      A                      A
 Frequencies --   3065.9135              3080.0256              3097.5011
 Red. masses --      1.0886                 1.0501                 1.1013
 Frc consts  --      6.0292                 5.8694                 6.2256
 IR Inten    --     38.3438                24.5397                29.1749

                     49                     50                     51
                      A                      A                      A
 Frequencies --   3098.5087              3126.5862              3167.3543
 Red. masses --      1.1013                 1.0903                 1.1194
 Frc consts  --      6.2297                 6.2795                 6.6164
 IR Inten    --     23.0967                28.7385                22.1497

 - Thermochemistry -
 -------------------
 Temperature   298.150 Kelvin.  Pressure   1.00000 Atm.
 Atom     1 has atomic number  6 and mass  12.00000

 Molecular mass:   126.06808 amu.
 Principal axes and moments of inertia in atomic units:
                           1         2         3
     Eigenvalues --   732.358751064.522851543.11541
           X            0.99967   0.02176   0.01394
           Y           -0.02134   0.99934  -0.02951
           Z           -0.01457   0.02921   0.99947
 This molecule is an asymmetric top.
 Rotational symmetry number  1.
 Warning -- assumption of classical behavior for rotation
           may cause significant error
 Rotational temperatures (Kelvin)      0.11827     0.08136     0.05613
 Rotational constants (GHZ):           2.46429     1.69535     1.16954
 Zero-point vibrational energy     416867.9 (Joules/Mol)
                                   99.63383 (Kcal/Mol)
 Warning -- explicit consideration of  10 degrees of freedom as
           vibrations may cause significant error
 Vibrational temperatures:     89.93   263.72   319.12   339.58   353.95
          (Kelvin)            419.24   503.26   619.41   751.17   869.38
                             1098.49  1134.57  1177.79  1251.90  1269.08
                             1308.08  1361.85  1398.89  1417.85  1458.07
                             1504.65  1546.94  1596.85  1618.33  1638.52
                             1653.36  1666.55  1685.42  1735.58  1758.31
                             1807.30  1845.01  1851.40  1948.69  1960.30
                             2022.05  2062.39  2151.97  2155.46  2187.83
                             2202.59  4325.60  4356.46  4381.59  4393.94
                             4411.16  4431.46  4456.61  4458.06  4498.45
                             4557.11

 Zero-point correction=                           0.158777 (Hartree/Particle)
 Thermal correction to Energy=                    0.166850
 Thermal correction to Enthalpy=                  0.167795
 Thermal correction to Gibbs Free Energy=         0.125991
 Sum of electronic and zero-point Energies=           -422.964510
 Sum of electronic and thermal Energies=              -422.956436
 Sum of electronic and thermal Enthalpies=            -422.955492
 Sum of electronic and thermal Free Energies=         -422.997295

                     E (Thermal)             CV                S
                      KCal/Mol        Cal/Mol-Kelvin    Cal/Mol-Kelvin
 Total                  104.700             30.930             87.982
 Electronic               0.000              0.000              0.000
 Translational            0.889              2.981             40.409
 Rotational               0.889              2.981             28.577
 Vibrational            102.923             24.969             18.996
 Vibration     1          0.597              1.972              4.376
 Vibration     2          0.631              1.863              2.295
 Vibration     3          0.648              1.808              1.944
 Vibration     4          0.655              1.786              1.833
 Vibration     5          0.660              1.769              1.759
 Vibration     6          0.687              1.690              1.466
 Vibration     7          0.727              1.576              1.167
 Vibration     8          0.792              1.404              0.857
 Vibration     9          0.877              1.201              0.605
 Vibration    10          0.963              1.023              0.442

 Optimization completed.
    -- Stationary point found.
 Normal termination of Gaussian 09 at Tue Jan 28 00:49:01 2020.
