 Gaussian 09, Revision D.01,
 Gaussian 09:  ES64L-G09RevD.01 24-Apr-2013

 -----------------------------
 # b3lyp 6-31G(2df,p) opt Freq
 -----------------------------

 -----
 titel
 -----
 Symbolic Z-matrix:
 Charge =  0 Multiplicity = 1

 SCF Done:  E(RB3LYP) =  -423.201149958     A.U. after   14 cycles
 SCF Done:  E(RB3LYP) =  -423.201150079     A.U. after    7 cycles
 SCF Done:  E(RB3LYP) =  -423.201149697     A.U. after    7 cycles
 SCF Done:  E(RB3LYP) =  -423.201150152     A.U. after    7 cycles
 Optimization completed.
    -- Stationary point found.
 Normal termination of Gaussian 09 at Mon Jan 27 23:23:44 2020.

 ----------------------------------------------------------------------
 #N Geom=AllCheck Guess=TCheck SCRF=Check GenChk RB3LYP/6-31G(2df,p) Fr
 eq
 ----------------------------------------------------------------------

 Structure from the checkpoint file:  "/scratch/puck/g09_bb7bcd07-e7b1-4f79-92bc-6ac8608e8f9a/Gau-18436.chk"
 -----
 titel
 -----
 Charge =  0 Multiplicity = 1

                         Standard orientation:
 ---------------------------------------------------------------------
 Center     Atomic      Atomic             Coordinates (Angstroms)
 Number     Number       Type             X           Y           Z
 ---------------------------------------------------------------------
      1          6           0        1.198662    1.740139   -0.884423
      2          6           0        0.280458    1.201025    0.229194
      3          6           0       -1.145200    0.965964   -0.240741
      4          6           0       -2.076178    0.274555    0.721119
      5          6           0       -1.399116   -0.529710   -0.359681
      6          6           0       -0.155383   -1.275686    0.045635
      7          8           0        0.484646   -1.773195   -1.129223
      8          6           0        0.768197   -0.191629    0.655896
      9          8           0        1.767732   -0.434399    1.283780
     10          1           0        1.185612    1.069985   -1.749098
     11          1           0        0.867085    2.731147   -1.208907
     12          1           0        2.227373    1.819006   -0.523048
     13          1           0        0.336759    1.870640    1.095160
     14          1           0       -1.566051    1.651577   -0.967569
     15          1           0       -1.756086    0.143490    1.752256
     16          1           0       -3.140398    0.451006    0.613820
     17          1           0       -1.990445   -0.944067   -1.167027
     18          1           0       -0.336909   -2.083752    0.768089
     19          1           0        1.325400   -2.156227   -0.852111
 ---------------------------------------------------------------------

 SCF Done:  E(RB3LYP) =  -423.201150152     A.U. after    1 cycles

 The electronic state is 1-A.
 Alpha  occ. eigenvalues --  -19.14884 -19.13859 -10.26694 -10.23915 -10.19845
 Alpha  occ. eigenvalues --  -10.19769 -10.19634 -10.19490 -10.18314  -1.05192
 Alpha  occ. eigenvalues --   -1.02359  -0.88788  -0.77531  -0.72040  -0.65654
 Alpha  occ. eigenvalues --   -0.60552  -0.56676  -0.54852  -0.51253  -0.49837
 Alpha  occ. eigenvalues --   -0.46585  -0.44304  -0.43846  -0.41509  -0.40260
 Alpha  occ. eigenvalues --   -0.38958  -0.37699  -0.35927  -0.35648  -0.34568
 Alpha  occ. eigenvalues --   -0.29998  -0.29530  -0.28334  -0.23486
 Alpha virt. eigenvalues --   -0.02849   0.08310   0.09596   0.10699   0.11523
 Alpha virt. eigenvalues --    0.13269   0.15155   0.15753   0.16546   0.17582
 Alpha virt. eigenvalues --    0.17869   0.18361   0.19933   0.21166   0.22865

 Mulliken charges:
               1
     1  C   -0.408843
     2  C   -0.092263
     3  C   -0.030798
     4  C   -0.326535
     5  C   -0.038912
     6  C    0.037371
     7  O   -0.439648
     8  C    0.344140
     9  O   -0.332478
    10  H    0.136489
    11  H    0.117945
    12  H    0.133108
    13  H    0.098729
    14  H    0.088124
    15  H    0.115640
    16  H    0.119479
    17  H    0.099782
    18  H    0.084690
    19  H    0.293979
 Sum of Mulliken charges =   0.00000

 Dipole moment (field-independent basis, Debye):
    X=             -1.5230    Y=              0.6592    Z=             -0.4220  Tot=              1.7124
 Quadrupole moment (field-independent basis, Debye-Ang):
   XX=            -53.4450   YY=            -50.7287   ZZ=            -56.3505
   XY=             -1.0313   XZ=             -3.4123   YZ=             -1.0686

  Exact polarizability:  80.054  -0.464  76.222   0.213  -1.501  67.587
 Approx polarizability: 113.454  -3.473 108.248   5.430  -0.481 107.111

                      1                      2                      3
                      A                      A                      A
 Frequencies --     53.5953               171.2125               189.6865
 Red. masses --      5.1034                 3.0485                 4.2242
 Frc consts  --      0.0086                 0.0527                 0.0895
 IR Inten    --      3.8572                 2.8067                 2.1073

                      4                      5                      6
                      A                      A                      A
 Frequencies --    241.5139               255.8169               265.7927
 Red. masses --      1.2859                 2.0206                 3.2618
 Frc consts  --      0.0442                 0.0779                 0.1358
 IR Inten    --      0.3391                 0.5485                 8.2572

                      7                      8                      9
                      A                      A                      A
 Frequencies --    384.1461               391.0223               465.9524
 Red. masses --      1.1503                 3.5004                 3.5199
 Frc consts  --      0.1000                 0.3153                 0.4503
 IR Inten    --    123.2748                 3.3979                 1.4678

                     10                     11                     12
                      A                      A                      A
 Frequencies --    482.3998               619.1810               665.0872
 Red. masses --      3.8764                 5.3462                 4.5500
 Frc consts  --      0.5315                 1.2076                 1.1858
 IR Inten    --      4.1847                 2.4027                 5.9353

                     13                     14                     15
                      A                      A                      A
 Frequencies --    678.6831               802.3512               815.3149
 Red. masses --      3.4566                 1.8569                 1.7367
 Frc consts  --      0.9381                 0.7043                 0.6802
 IR Inten    --     11.5056                10.4948                 7.4114

                     16                     17                     18
                      A                      A                      A
 Frequencies --    831.8431               871.6616               934.3262
 Red. masses --      2.1814                 1.8504                 2.0029
 Frc consts  --      0.8894                 0.8283                 1.0302
 IR Inten    --      8.2003                 1.5327                 4.9390

                     19                     20                     21
                      A                      A                      A
 Frequencies --    982.1861              1029.5497              1033.7002
 Red. masses --      2.9379                 2.3472                 1.3971
 Frc consts  --      1.6699                 1.4659                 0.8796
 IR Inten    --      8.5144                 9.3400                 3.8936

                     22                     23                     24
                      A                      A                      A
 Frequencies --   1053.7016              1072.8081              1088.1429
 Red. masses --      2.2768                 1.5853                 1.5718
 Frc consts  --      1.4894                 1.0750                 1.0965
 IR Inten    --     48.1718                 5.2942                14.0679

                     25                     26                     27
                      A                      A                      A
 Frequencies --   1090.2262              1107.8716              1142.1204
 Red. masses --      2.5911                 1.2887                 1.6396
 Frc consts  --      1.8146                 0.9320                 1.2601
 IR Inten    --     27.8545                 0.8721                 3.4554

                     28                     29                     30
                      A                      A                      A
 Frequencies --   1173.9736              1193.7203              1223.2643
 Red. masses --      2.1802                 1.6881                 1.1780
 Frc consts  --      1.7703                 1.4173                 1.0386
 IR Inten    --     21.7432                 1.2793                40.0854

                     31                     32                     33
                      A                      A                      A
 Frequencies --   1280.7680              1304.0319              1316.2744
 Red. masses --      1.8129                 1.2753                 1.3847
 Frc consts  --      1.7521                 1.2777                 1.4135
 IR Inten    --      3.8711                 6.7339                 8.2203

                     34                     35                     36
                      A                      A                      A
 Frequencies --   1350.0982              1381.8290              1403.5821
 Red. masses --      1.6612                 1.8467                 1.2829
 Frc consts  --      1.7841                 2.0776                 1.4890
 IR Inten    --      6.9900                 6.7526                 1.2783

                     37                     38                     39
                      A                      A                      A
 Frequencies --   1420.6322              1491.0563              1494.9083
 Red. masses --      1.7679                 1.2420                 1.0498
 Frc consts  --      2.1022                 1.6269                 1.3822
 IR Inten    --      8.0472                 1.9824                 5.2342

                     40                     41                     42
                      A                      A                      A
 Frequencies --   1504.1533              1838.6823              3007.0503
 Red. masses --      1.0531                12.4453                 1.0840
 Frc consts  --      1.4037                24.7896                 5.7751
 IR Inten    --      3.5042               160.8206                46.5616

                     43                     44                     45
                      A                      A                      A
 Frequencies --   3039.6560              3042.7374              3113.7953
 Red. masses --      1.0343                 1.0829                 1.1025
 Frc consts  --      5.6303                 5.9068                 6.2980
 IR Inten    --     21.1708                14.8501                17.4176

                     46                     47                     48
                      A                      A                      A
 Frequencies --   3115.4449              3124.0160              3170.1915
 Red. masses --      1.0580                 1.1025                 1.0903
 Frc consts  --      6.0505                 6.3396                 6.4563
 IR Inten    --     12.0950                16.0308                11.8697

                     49                     50                     51
                      A                      A                      A
 Frequencies --   3188.8199              3209.3996              3796.3911
 Red. masses --      1.0935                 1.1107                 1.0660
 Frc consts  --      6.5511                 6.7406                 9.0525
 IR Inten    --      4.7570                12.5556                27.5273

 - Thermochemistry -
 -------------------
 Temperature   298.150 Kelvin.  Pressure   1.00000 Atm.
 Atom     1 has atomic number  6 and mass  12.00000

 Molecular mass:   126.06808 amu.
 Principal axes and moments of inertia in atomic units:
                           1         2         3
     Eigenvalues --   905.296611009.404491321.68712
           X            0.99169   0.11570  -0.05624
           Y           -0.11834   0.99190  -0.04613
           Z            0.05045   0.05240   0.99735
 This molecule is an asymmetric top.
 Rotational symmetry number  1.
 Warning -- assumption of classical behavior for rotation
           may cause significant error
 Rotational temperatures (Kelvin)      0.09567     0.08581     0.06553
 Rotational constants (GHZ):           1.99354     1.78793     1.36548
 Zero-point vibrational energy     418121.0 (Joules/Mol)
                                   99.93331 (Kcal/Mol)
 Warning -- explicit consideration of  11 degrees of freedom as
           vibrations may cause significant error
 Vibrational temperatures:     77.11   246.34   272.92   347.48   368.06
          (Kelvin)            382.42   552.70   562.59   670.40   694.06
                              890.86   956.91   976.47  1154.40  1173.05
                             1196.84  1254.13  1344.29  1413.14  1481.29
                             1487.26  1516.04  1543.53  1565.59  1568.59
                             1593.98  1643.25  1689.08  1717.50  1760.00
                             1842.74  1876.21  1893.82  1942.49  1988.14
                             2019.44  2043.97  2145.29  2150.84  2164.14
                             2645.45  4326.47  4373.38  4377.82  4480.05
                             4482.42  4494.76  4561.19  4587.99  4617.60
                             5462.15

 Zero-point correction=                           0.159254 (Hartree/Particle)
 Thermal correction to Energy=                    0.167790
 Thermal correction to Enthalpy=                  0.168735
 Thermal correction to Gibbs Free Energy=         0.126050
 Sum of electronic and zero-point Energies=           -423.041896
 Sum of electronic and thermal Energies=              -423.033360
 Sum of electronic and thermal Enthalpies=            -423.032416
 Sum of electronic and thermal Free Energies=         -423.075100

                     E (Thermal)             CV                S
                      KCal/Mol        Cal/Mol-Kelvin    Cal/Mol-Kelvin
 Total                  105.290             32.736             89.837
 Electronic               0.000              0.000              0.000
 Translational            0.889              2.981             40.409
 Rotational               0.889              2.981             28.581
 Vibrational            103.513             26.774             20.848
 Vibration     1          0.596              1.976              4.680
 Vibration     2          0.626              1.878              2.422
 Vibration     3          0.633              1.854              2.231
 Vibration     4          0.658              1.777              1.792
 Vibration     5          0.666              1.753              1.690
 Vibration     6          0.672              1.736              1.623
 Vibration     7          0.753              1.504              1.023
 Vibration     8          0.759              1.489              0.996
 Vibration     9          0.823              1.326              0.749
 Vibration    10          0.839              1.289              0.704
 Vibration    11          0.979              0.991              0.418

 Optimization completed.
    -- Stationary point found.
 Normal termination of Gaussian 09 at Tue Jan 28 00:12:09 2020.
