 Gaussian 09, Revision D.01,
 Gaussian 09:  ES64L-G09RevD.01 24-Apr-2013

 -----------------------------
 # b3lyp 6-31G(2df,p) opt Freq
 -----------------------------

 -----
 titel
 -----
 Symbolic Z-matrix:
 Charge =  0 Multiplicity = 1

 SCF Done:  E(RB3LYP) =  -423.159199176     A.U. after   13 cycles
 Optimization completed.
    -- Stationary point found.
 Normal termination of Gaussian 09 at Tue Jan 28 09:45:40 2020.

 ----------------------------------------------------------------------
 #N Geom=AllCheck Guess=TCheck SCRF=Check GenChk RB3LYP/6-31G(2df,p) Fr
 eq
 ----------------------------------------------------------------------

 Structure from the checkpoint file:  "/scratch/puck/g09_5126f4d7-112c-42ee-a1a5-31925e27c934/Gau-96252.chk"
 -----
 titel
 -----
 Charge =  0 Multiplicity = 1

                         Standard orientation:
 ---------------------------------------------------------------------
 Center     Atomic      Atomic             Coordinates (Angstroms)
 Number     Number       Type             X           Y           Z
 ---------------------------------------------------------------------
      1          6           0        2.316355    0.024010    0.700947
      2          8           0        1.617578   -0.515264   -0.411451
      3          6           0        0.236560   -0.423751   -0.381172
      4          6           0       -0.486866   -1.643450   -0.854487
      5          6           0       -0.630815   -1.207330    0.603851
      6          6           0       -1.809213   -0.335758    0.856493
      7          6           0       -1.765764    0.791485    0.136521
      8          6           0       -0.470946    0.931802   -0.632603
      9          8           0        0.275606    2.072982   -0.215772
     10          1           0        1.857972   -0.287509    1.649927
     11          1           0        3.332372   -0.376755    0.653851
     12          1           0        2.357153    1.116467    0.659892
     13          1           0       -1.353726   -1.544939   -1.500196
     14          1           0        0.150588   -2.499481   -1.049370
     15          1           0       -0.219485   -1.843279    1.379079
     16          1           0       -2.626793   -0.629979    1.505825
     17          1           0       -2.527793    1.561498    0.107615
     18          1           0       -0.628063    1.080479   -1.706690
     19          1           0        0.176436    2.139701    0.740542
 ---------------------------------------------------------------------

 SCF Done:  E(RB3LYP) =  -423.159199176     A.U. after    1 cycles

 The electronic state is 1-A.
 Alpha  occ. eigenvalues --  -19.14363 -19.13840 -10.23561 -10.23417 -10.21876
 Alpha  occ. eigenvalues --  -10.19429 -10.19359 -10.18715 -10.18087  -1.04082
 Alpha  occ. eigenvalues --   -1.01524  -0.87952  -0.76592  -0.70643  -0.67302
 Alpha  occ. eigenvalues --   -0.61218  -0.56718  -0.54878  -0.52751  -0.48170
 Alpha  occ. eigenvalues --   -0.46099  -0.44764  -0.43761  -0.43124  -0.41553
 Alpha  occ. eigenvalues --   -0.40563  -0.36053  -0.34522  -0.33649  -0.32441
 Alpha  occ. eigenvalues --   -0.29956  -0.27073  -0.25075  -0.23150
 Alpha virt. eigenvalues --    0.00110   0.08734   0.10072   0.12371   0.12592
 Alpha virt. eigenvalues --    0.13526   0.14454   0.15471   0.16394   0.17067
 Alpha virt. eigenvalues --    0.17768   0.18604   0.19900   0.20662   0.22903

 Mulliken charges:
               1
     1  C   -0.256025
     2  O   -0.287505
     3  C    0.397743
     4  C   -0.317046
     5  C   -0.171126
     6  C   -0.062424
     7  C   -0.157186
     8  C    0.021507
     9  O   -0.424679
    10  H    0.100580
    11  H    0.122531
    12  H    0.126155
    13  H    0.112374
    14  H    0.121192
    15  H    0.093181
    16  H    0.103459
    17  H    0.101596
    18  H    0.099427
    19  H    0.276248
 Sum of Mulliken charges =   0.00000

 Dipole moment (field-independent basis, Debye):
    X=             -1.0161    Y=             -0.5718    Z=              1.8386  Tot=              2.1771
 Quadrupole moment (field-independent basis, Debye-Ang):
   XX=            -51.6934   YY=            -54.6721   ZZ=            -51.2624
   XY=             -0.7746   XZ=              2.5293   YZ=              1.6429

  Exact polarizability:  81.627  -0.470  80.388  -0.910  -1.943  66.875
 Approx polarizability: 110.139   1.537 125.223  -4.483  -8.751 108.007

                      1                      2                      3
                      A                      A                      A
 Frequencies --     91.9811               120.2588               190.5242
 Red. masses --      1.8450                 2.5015                 1.8594
 Frc consts  --      0.0092                 0.0213                 0.0398
 IR Inten    --      1.4132                 0.5975                 4.3792

                      4                      5                      6
                      A                      A                      A
 Frequencies --    238.0630               259.2962               345.5157
 Red. masses --      3.2863                 3.8407                 3.2808
 Frc consts  --      0.1097                 0.1521                 0.2308
 IR Inten    --      7.1790                 1.6624                 0.5869

                      7                      8                      9
                      A                      A                      A
 Frequencies --    380.4686               395.2285               437.5985
 Red. masses --      1.2129                 2.0042                 3.8519
 Frc consts  --      0.1034                 0.1845                 0.4346
 IR Inten    --     71.4911                 8.9240                15.3483

                     10                     11                     12
                      A                      A                      A
 Frequencies --    531.1397               546.7031               622.8315
 Red. masses --      3.3317                 4.0751                 3.3749
 Frc consts  --      0.5538                 0.7176                 0.7713
 IR Inten    --      2.1454                 8.1603                 3.6768

                     13                     14                     15
                      A                      A                      A
 Frequencies --    742.9755               758.7885               801.0029
 Red. masses --      2.2888                 3.4400                 2.1098
 Frc consts  --      0.7444                 1.1670                 0.7976
 IR Inten    --      3.6726                10.5737                25.4496

                     16                     17                     18
                      A                      A                      A
 Frequencies --    854.6886               882.2901               932.4132
 Red. masses --      1.6919                 2.0634                 2.3860
 Frc consts  --      0.7282                 0.9463                 1.2222
 IR Inten    --     10.0218                29.4181                15.0807

                     19                     20                     21
                      A                      A                      A
 Frequencies --    963.3477               978.0600              1013.7449
 Red. masses --      1.4759                 2.3249                 2.7182
 Frc consts  --      0.8070                 1.3103                 1.6458
 IR Inten    --      5.4417                10.4786                21.2158

                     22                     23                     24
                      A                      A                      A
 Frequencies --   1036.1350              1060.4526              1063.6160
 Red. masses --      1.7096                 2.7300                 1.4740
 Frc consts  --      1.0813                 1.8088                 0.9825
 IR Inten    --     12.2591                25.6069                18.6478

                     25                     26                     27
                      A                      A                      A
 Frequencies --   1082.4682              1104.4562              1145.5347
 Red. masses --      1.5788                 3.0269                 1.2905
 Frc consts  --      1.0900                 2.1754                 0.9978
 IR Inten    --     23.8321                73.0127                 2.9292

                     28                     29                     30
                      A                      A                      A
 Frequencies --   1173.9121              1210.8395              1234.3197
 Red. masses --      1.2757                 1.4793                 1.4579
 Frc consts  --      1.0357                 1.2779                 1.3087
 IR Inten    --      0.1562                 6.9620                 7.7103

                     31                     32                     33
                      A                      A                      A
 Frequencies --   1242.2265              1273.5235              1304.8430
 Red. masses --      1.6588                 1.8450                 2.3521
 Frc consts  --      1.5081                 1.7630                 2.3595
 IR Inten    --      2.1762                72.6996                12.3461

                     34                     35                     36
                      A                      A                      A
 Frequencies --   1356.4018              1375.6907              1419.8973
 Red. masses --      1.9012                 2.0809                 1.2267
 Frc consts  --      2.0609                 2.3203                 1.4572
 IR Inten    --     38.1919                34.7542                63.6352

                     37                     38                     39
                      A                      A                      A
 Frequencies --   1462.2035              1481.8757              1484.4660
 Red. masses --      1.1672                 1.2700                 1.0959
 Frc consts  --      1.4704                 1.6431                 1.4228
 IR Inten    --      6.7168                10.3240                 1.2996

                     40                     41                     42
                      A                      A                      A
 Frequencies --   1519.8226              1652.9414              3004.2351
 Red. masses --      1.0469                 6.2123                 1.0401
 Frc consts  --      1.4247                10.0004                 5.5307
 IR Inten    --      6.2963                 5.6308                46.7077

                     43                     44                     45
                      A                      A                      A
 Frequencies --   3052.6664              3084.6493              3116.2886
 Red. masses --      1.0843                 1.0918                 1.1045
 Frc consts  --      5.9534                 6.1205                 6.3195
 IR Inten    --     25.3049                39.4387                24.8876

                     46                     47                     48
                      A                      A                      A
 Frequencies --   3123.8248              3178.1897              3187.2460
 Red. masses --      1.0536                 1.0880                 1.0888
 Frc consts  --      6.0575                 6.4750                 6.5168
 IR Inten    --     13.8543                 6.0826                12.4103

                     49                     50                     51
                      A                      A                      A
 Frequencies --   3211.4217              3220.1093              3799.5289
 Red. masses --      1.1027                 1.1171                 1.0661
 Frc consts  --      6.7005                 6.8245                 9.0682
 IR Inten    --     16.0262                 6.1560                16.0165

 - Thermochemistry -
 -------------------
 Temperature   298.150 Kelvin.  Pressure   1.00000 Atm.
 Atom     1 has atomic number  6 and mass  12.00000

 Molecular mass:   126.06808 amu.
 Principal axes and moments of inertia in atomic units:
                           1         2         3
     Eigenvalues --   782.507041013.465111420.78740
           X            0.99955   0.00458   0.02974
           Y           -0.00493   0.99992   0.01182
           Z           -0.02968  -0.01196   0.99949
 This molecule is an asymmetric top.
 Rotational symmetry number  1.
 Warning -- assumption of classical behavior for rotation
           may cause significant error
 Rotational temperatures (Kelvin)      0.11069     0.08546     0.06096
 Rotational constants (GHZ):           2.30636     1.78076     1.27024
 Zero-point vibrational energy     417201.9 (Joules/Mol)
                                   99.71364 (Kcal/Mol)
 Warning -- explicit consideration of  11 degrees of freedom as
           vibrations may cause significant error
 Vibrational temperatures:    132.34   173.03   274.12   342.52   373.07
          (Kelvin)            497.12   547.41   568.64   629.61   764.19
                              786.58   896.11  1068.97  1091.73  1152.46
                             1229.70  1269.42  1341.53  1386.04  1407.21
                             1458.55  1490.77  1525.75  1530.30  1557.43
                             1589.06  1648.17  1689.00  1742.13  1775.91
                             1787.28  1832.31  1877.38  1951.56  1979.31
                             2042.91  2103.78  2132.09  2135.81  2186.68
                             2378.21  4322.42  4392.10  4438.12  4483.64
                             4494.48  4572.70  4585.73  4620.51  4633.01
                             5466.67

 Zero-point correction=                           0.158904 (Hartree/Particle)
 Thermal correction to Energy=                    0.167410
 Thermal correction to Enthalpy=                  0.168354
 Thermal correction to Gibbs Free Energy=         0.126016
 Sum of electronic and zero-point Energies=           -423.000295
 Sum of electronic and thermal Energies=              -422.991789
 Sum of electronic and thermal Enthalpies=            -422.990845
 Sum of electronic and thermal Free Energies=         -423.033183

                     E (Thermal)             CV                S
                      KCal/Mol        Cal/Mol-Kelvin    Cal/Mol-Kelvin
 Total                  105.051             32.925             89.109
 Electronic               0.000              0.000              0.000
 Translational            0.889              2.981             40.409
 Rotational               0.889              2.981             28.512
 Vibrational            103.274             26.963             20.188
 Vibration     1          0.602              1.955              3.617
 Vibration     2          0.609              1.932              3.096
 Vibration     3          0.634              1.853              2.223
 Vibration     4          0.656              1.782              1.817
 Vibration     5          0.668              1.747              1.667
 Vibration     6          0.724              1.584              1.187
 Vibration     7          0.750              1.512              1.037
 Vibration     8          0.762              1.480              0.980
 Vibration     9          0.798              1.388              0.834
 Vibration    10          0.886              1.181              0.585
 Vibration    11          0.902              1.147              0.551

 Normal termination of Gaussian 09 at Tue Jan 28 10:30:17 2020.
