 Gaussian 09, Revision D.01,
 Gaussian 09:  ES64L-G09RevD.01 24-Apr-2013

 -----------------------------
 # b3lyp 6-31G(2df,p) opt Freq
 -----------------------------

 -----
 titel
 -----
 Symbolic Z-matrix:
 Charge =  0 Multiplicity = 1

 SCF Done:  E(RB3LYP) =  -423.141868662     A.U. after   13 cycles
 Optimization completed.
    -- Stationary point found.
 Normal termination of Gaussian 09 at Mon Jan 27 23:41:28 2020.

 ----------------------------------------------------------------------
 #N Geom=AllCheck Guess=TCheck SCRF=Check GenChk RB3LYP/6-31G(2df,p) Fr
 eq
 ----------------------------------------------------------------------

 Structure from the checkpoint file:  "/scratch/puck/g09_da88073d-22c2-4b95-99f3-a811186eafb3/Gau-103966.chk"
 -----
 titel
 -----
 Charge =  0 Multiplicity = 1

                         Standard orientation:
 ---------------------------------------------------------------------
 Center     Atomic      Atomic             Coordinates (Angstroms)
 Number     Number       Type             X           Y           Z
 ---------------------------------------------------------------------
      1          6           0        2.979562   -0.813110   -0.286676
      2          6           0        1.522477   -0.416961   -0.381595
      3          6           0        1.109167    0.956658    0.081149
      4          8           0       -0.054992    1.541610   -0.456486
      5          6           0       -1.202038    0.911315    0.058338
      6          6           0       -1.546253   -0.471944   -0.409554
      7          8           0       -2.905183   -0.785901   -0.318095
      8          6           0       -0.783838   -0.280725    0.894491
      9          6           0        0.727430   -0.250625    0.906278
     10          1           0        3.091192   -1.896615   -0.169694
     11          1           0        3.530328   -0.511734   -1.184248
     12          1           0        3.463375   -0.338558    0.574027
     13          1           0        1.000414   -0.811678   -1.246739
     14          1           0        1.857596    1.688678    0.369299
     15          1           0       -2.006281    1.590749    0.320222
     16          1           0       -1.030571   -0.873884   -1.279357
     17          1           0       -2.981179   -1.699154   -0.021387
     18          1           0       -1.302015   -0.524459    1.814453
     19          1           0        1.219499   -0.476669    1.845479
 ---------------------------------------------------------------------

 SCF Done:  E(RB3LYP) =  -423.141868662     A.U. after    1 cycles

 The electronic state is 1-A.
 Alpha  occ. eigenvalues --  -19.14667 -19.14571 -10.23291 -10.23025 -10.22894
 Alpha  occ. eigenvalues --  -10.19478 -10.19307 -10.19191 -10.18256  -1.05140
 Alpha  occ. eigenvalues --   -1.02773  -0.85740  -0.83031  -0.71642  -0.63619
 Alpha  occ. eigenvalues --   -0.61515  -0.57498  -0.56360  -0.52699  -0.49127
 Alpha  occ. eigenvalues --   -0.46371  -0.45897  -0.42973  -0.41837  -0.40063
 Alpha  occ. eigenvalues --   -0.39468  -0.38246  -0.36310  -0.34417  -0.31626
 Alpha  occ. eigenvalues --   -0.29303  -0.28008  -0.24241  -0.22972
 Alpha virt. eigenvalues --    0.07225   0.08925   0.09655   0.11646   0.12463
 Alpha virt. eigenvalues --    0.13457   0.15104   0.15788   0.16147   0.17149
 Alpha virt. eigenvalues --    0.17701   0.18558   0.19766   0.22849   0.23191

 Mulliken charges:
               1
     1  C   -0.423253
     2  C   -0.056324
     3  C    0.085432
     4  O   -0.259807
     5  C    0.077726
     6  C    0.032503
     7  O   -0.429069
     8  C   -0.150154
     9  C   -0.096822
    10  H    0.120247
    11  H    0.122589
    12  H    0.115319
    13  H    0.090686
    14  H    0.095741
    15  H    0.109975
    16  H    0.093939
    17  H    0.287728
    18  H    0.094582
    19  H    0.088961
 Sum of Mulliken charges =   0.00000

 Dipole moment (field-independent basis, Debye):
    X=              1.0663    Y=             -2.0180    Z=              1.3391  Tot=              2.6462
 Quadrupole moment (field-independent basis, Debye-Ang):
   XX=            -53.4697   YY=            -51.9473   ZZ=            -52.6438
   XY=              3.0426   XZ=             -1.8682   YZ=              1.3469

  Exact polarizability:  92.109  -0.043  68.596  -1.568   0.383  63.563
 Approx polarizability: 116.203   1.063 107.057  -0.747  -2.776 100.697

                      1                      2                      3
                      A                      A                      A
 Frequencies --    150.8058               188.4579               227.6155
 Red. masses --      3.9038                 1.1564                 2.7091
 Frc consts  --      0.0523                 0.0242                 0.0827
 IR Inten    --      0.2973                 1.7706                 1.4329

                      4                      5                      6
                      A                      A                      A
 Frequencies --    238.7868               277.4692               289.5083
 Red. masses --      1.9102                 1.7674                 2.9146
 Frc consts  --      0.0642                 0.0802                 0.1439
 IR Inten    --      5.0446                28.1403                 5.7071

                      7                      8                      9
                      A                      A                      A
 Frequencies --    332.3349               357.5895               441.1932
 Red. masses --      3.3860                 2.0634                 4.9648
 Frc consts  --      0.2203                 0.1555                 0.5694
 IR Inten    --     39.5264                34.1610                 3.4794

                     10                     11                     12
                      A                      A                      A
 Frequencies --    517.2460               707.1004               746.4752
 Red. masses --      4.4574                 4.9387                 4.3236
 Frc consts  --      0.7026                 1.4549                 1.4195
 IR Inten    --      1.4540                11.8212                 1.8213

                     13                     14                     15
                      A                      A                      A
 Frequencies --    816.7020               819.5605               852.0842
 Red. masses --      2.7563                 1.7715                 1.5951
 Frc consts  --      1.0832                 0.7011                 0.6824
 IR Inten    --     11.0842                11.3332                 3.0866

                     16                     17                     18
                      A                      A                      A
 Frequencies --    876.9152               904.3576               930.9058
 Red. masses --      2.2428                 2.4949                 3.3450
 Frc consts  --      1.0161                 1.2022                 1.7079
 IR Inten    --      1.6509                14.1189                 6.3686

                     19                     20                     21
                      A                      A                      A
 Frequencies --    994.7035              1017.0698              1032.0848
 Red. masses --      1.9936                 1.7841                 1.3085
 Frc consts  --      1.1622                 1.0874                 0.8212
 IR Inten    --      2.7233                12.5675                16.8840

                     22                     23                     24
                      A                      A                      A
 Frequencies --   1044.9301              1050.4623              1080.0275
 Red. masses --      1.4617                 1.8338                 1.4637
 Frc consts  --      0.9403                 1.1922                 1.0059
 IR Inten    --     13.4910                17.0363                 2.9020

                     25                     26                     27
                      A                      A                      A
 Frequencies --   1087.7053              1123.9914              1126.7209
 Red. masses --      1.5905                 2.7497                 1.7579
 Frc consts  --      1.1086                 2.0468                 1.3149
 IR Inten    --      1.4552               102.4604                 0.4890

                     28                     29                     30
                      A                      A                      A
 Frequencies --   1155.2878              1167.1666              1189.0436
 Red. masses --      2.1839                 3.4744                 2.3281
 Frc consts  --      1.7174                 2.7886                 1.9393
 IR Inten    --     66.6161                 9.3567                39.1564

                     31                     32                     33
                      A                      A                      A
 Frequencies --   1213.5300              1273.0475              1285.8240
 Red. masses --      1.8200                 1.4636                 1.3516
 Frc consts  --      1.5792                 1.3975                 1.3166
 IR Inten    --      9.0471                23.9462                15.1414

                     34                     35                     36
                      A                      A                      A
 Frequencies --   1293.4006              1310.4804              1350.4758
 Red. masses --      1.3051                 1.2893                 1.4511
 Frc consts  --      1.2863                 1.3045                 1.5592
 IR Inten    --     13.2866                12.6607                 9.8483

                     37                     38                     39
                      A                      A                      A
 Frequencies --   1416.4022              1431.4297              1452.2321
 Red. masses --      1.2678                 2.2485                 2.1359
 Frc consts  --      1.4986                 2.7145                 2.6540
 IR Inten    --      1.7312                 8.1838                 2.4105

                     40                     41                     42
                      A                      A                      A
 Frequencies --   1493.8553              1501.5794              3026.7692
 Red. masses --      1.0460                 1.0646                 1.0350
 Frc consts  --      1.3753                 1.4142                 5.5864
 IR Inten    --      2.5053                 5.6329                36.1782

                     43                     44                     45
                      A                      A                      A
 Frequencies --   3091.5621              3093.8134              3119.1305
 Red. masses --      1.1009                 1.1010                 1.0880
 Frc consts  --      6.1995                 6.2090                 6.2368
 IR Inten    --     22.2424                22.1227                19.7605

                     46                     47                     48
                      A                      A                      A
 Frequencies --   3153.2236              3165.1234              3170.2072
 Red. masses --      1.0898                 1.0895                 1.0900
 Frc consts  --      6.3845                 6.4306                 6.4543
 IR Inten    --     21.2687                 7.8258                13.6554

                     49                     50                     51
                      A                      A                      A
 Frequencies --   3171.5733              3186.8709              3799.7182
 Red. masses --      1.0882                 1.0930                 1.0662
 Frc consts  --      6.4493                 6.5401                 9.0699
 IR Inten    --     22.7773                14.4183                20.6662

 - Thermochemistry -
 -------------------
 Temperature   298.150 Kelvin.  Pressure   1.00000 Atm.
 Atom     1 has atomic number  6 and mass  12.00000

 Molecular mass:   126.06808 amu.
 Principal axes and moments of inertia in atomic units:
                           1         2         3
     Eigenvalues --   494.873371574.185331775.18549
           X            0.99990  -0.01226  -0.00758
           Y            0.01254   0.99917   0.03873
           Z            0.00710  -0.03882   0.99922
 This molecule is an asymmetric top.
 Rotational symmetry number  1.
 Warning -- assumption of classical behavior for rotation
           may cause significant error
 Rotational temperatures (Kelvin)      0.17502     0.05502     0.04879
 Rotational constants (GHZ):           3.64687     1.14646     1.01665
 Zero-point vibrational energy     417165.0 (Joules/Mol)
                                   99.70484 (Kcal/Mol)
 Warning -- explicit consideration of  10 degrees of freedom as
           vibrations may cause significant error
 Vibrational temperatures:    216.98   271.15   327.49   343.56   399.22
          (Kelvin)            416.54   478.16   514.49   634.78   744.20
                             1017.36  1074.01  1175.05  1179.16  1225.96
                             1261.68  1301.17  1339.36  1431.15  1463.33
                             1484.94  1503.42  1511.38  1553.92  1564.96
                             1617.17  1621.10  1662.20  1679.29  1710.77
                             1746.00  1831.63  1850.01  1860.91  1885.49
                             1943.03  2037.88  2059.51  2089.44  2149.32
                             2160.44  4354.84  4448.06  4451.30  4487.73
                             4536.78  4553.90  4561.22  4563.18  4585.19
                             5466.94

 Zero-point correction=                           0.158890 (Hartree/Particle)
 Thermal correction to Energy=                    0.167062
 Thermal correction to Enthalpy=                  0.168007
 Thermal correction to Gibbs Free Energy=         0.126595
 Sum of electronic and zero-point Energies=           -422.982979
 Sum of electronic and thermal Energies=              -422.974806
 Sum of electronic and thermal Enthalpies=            -422.973862
 Sum of electronic and thermal Free Energies=         -423.015274

                     E (Thermal)             CV                S
                      KCal/Mol        Cal/Mol-Kelvin    Cal/Mol-Kelvin
 Total                  104.833             32.217             87.158
 Electronic               0.000              0.000              0.000
 Translational            0.889              2.981             40.409
 Rotational               0.889              2.981             28.716
 Vibrational            103.056             26.255             18.034
 Vibration     1          0.618              1.902              2.662
 Vibration     2          0.633              1.856              2.243
 Vibration     3          0.651              1.799              1.898
 Vibration     4          0.657              1.781              1.812
 Vibration     5          0.678              1.715              1.549
 Vibration     6          0.686              1.693              1.477
 Vibration     7          0.714              1.611              1.249
 Vibration     8          0.733              1.560              1.133
 Vibration     9          0.801              1.380              0.823
 Vibration    10          0.872              1.212              0.616

 Normal termination of Gaussian 09 at Tue Jan 28 00:24:32 2020.
