 Gaussian 09, Revision D.01,
 Gaussian 09:  ES64L-G09RevD.01 24-Apr-2013

 -----------------------------
 # b3lyp 6-31G(2df,p) opt Freq
 -----------------------------

 -----
 titel
 -----
 Symbolic Z-matrix:
 Charge =  0 Multiplicity = 1

 SCF Done:  E(RB3LYP) =  -423.131430517     A.U. after   14 cycles
 Optimization completed.
    -- Stationary point found.
 Normal termination of Gaussian 09 at Tue Jan 28 14:26:48 2020.

 ----------------------------------------------------------------------
 #N Geom=AllCheck Guess=TCheck SCRF=Check GenChk RB3LYP/6-31G(2df,p) Fr
 eq
 ----------------------------------------------------------------------

 Structure from the checkpoint file:  "/scratch/puck/g09_4c887884-9f3c-4c55-be15-f46c04ded3c4/Gau-121933.chk"
 -----
 titel
 -----
 Charge =  0 Multiplicity = 1

                         Standard orientation:
 ---------------------------------------------------------------------
 Center     Atomic      Atomic             Coordinates (Angstroms)
 Number     Number       Type             X           Y           Z
 ---------------------------------------------------------------------
      1          6           0       -4.605415   -0.480535   -0.214646
      2          6           0       -3.216377   -0.143939    0.056137
      3          6           0       -2.064942    0.135927    0.272176
      4          6           0       -0.698248    0.477205    0.556600
      5          8           0        0.041695    1.183845   -0.459458
      6          6           0        0.436856   -0.153678   -0.149736
      7          6           0        1.791416   -0.330455    0.489233
      8          6           0        2.930833   -0.163333   -0.524050
      9          8           0        4.207874   -0.387574    0.049410
     10          1           0       -5.255610   -0.177923    0.613333
     11          1           0       -4.961731    0.025497   -1.118578
     12          1           0       -4.734071   -1.558178   -0.364211
     13          1           0       -0.509110    0.846956    1.564623
     14          1           0        0.182195   -0.874055   -0.929259
     15          1           0        1.907468    0.405304    1.294984
     16          1           0        1.860512   -1.327624    0.940405
     17          1           0        2.830108   -0.906513   -1.322876
     18          1           0        2.863144    0.829509   -0.992510
     19          1           0        4.375800    0.319695    0.680183
 ---------------------------------------------------------------------

 SCF Done:  E(RB3LYP) =  -423.131430517     A.U. after    1 cycles

 The electronic state is 1-A.
 Alpha  occ. eigenvalues --  -19.15369 -19.13549 -10.25615 -10.24346 -10.22888
 Alpha  occ. eigenvalues --  -10.20882 -10.19005 -10.18466 -10.17408  -1.07336
 Alpha  occ. eigenvalues --   -1.01654  -0.78429  -0.77447  -0.73036  -0.66893
 Alpha  occ. eigenvalues --   -0.64346  -0.59633  -0.53062  -0.50788  -0.48408
 Alpha  occ. eigenvalues --   -0.46507  -0.44516  -0.43165  -0.43130  -0.41580
 Alpha  occ. eigenvalues --   -0.41458  -0.38260  -0.36864  -0.33610  -0.32320
 Alpha  occ. eigenvalues --   -0.27625  -0.27203  -0.26209  -0.24392
 Alpha virt. eigenvalues --    0.02771   0.04498   0.07600   0.10688   0.10947
 Alpha virt. eigenvalues --    0.11720   0.12115   0.14906   0.15654   0.15853
 Alpha virt. eigenvalues --    0.16324   0.18283   0.19245   0.21066   0.21992

 Mulliken charges:
               1
     1  C   -0.501505
     2  C    0.136525
     3  C    0.054537
     4  C   -0.176591
     5  O   -0.245935
     6  C    0.070117
     7  C   -0.244109
     8  C   -0.056844
     9  O   -0.417568
    10  H    0.152315
    11  H    0.155916
    12  H    0.151155
    13  H    0.109103
    14  H    0.100434
    15  H    0.094343
    16  H    0.114276
    17  H    0.112748
    18  H    0.108562
    19  H    0.282522
 Sum of Mulliken charges =   0.00000

 Dipole moment (field-independent basis, Debye):
    X=             -1.5509    Y=             -0.4961    Z=              1.1660  Tot=              2.0028
 Quadrupole moment (field-independent basis, Debye-Ang):
   XX=            -48.4308   YY=            -54.8197   ZZ=            -51.5311
   XY=              6.6885   XZ=              3.7469   YZ=              3.0067

  Exact polarizability: 127.857   5.045  61.149   3.584   3.689  62.337
 Approx polarizability: 161.704  10.525  96.476   6.054   4.512  93.570

                      1                      2                      3
                      A                      A                      A
 Frequencies --     29.6881                50.5679                72.3321
 Red. masses --      1.0404                 4.8846                 3.1717
 Frc consts  --      0.0005                 0.0074                 0.0098
 IR Inten    --      0.0772                 1.1507                 1.1591

                      4                      5                      6
                      A                      A                      A
 Frequencies --    105.6315               117.9947               164.9787
 Red. masses --      2.3812                 3.6166                 4.4604
 Frc consts  --      0.0157                 0.0297                 0.0715
 IR Inten    --      5.4861                 5.4143                 1.6854

                      7                      8                      9
                      A                      A                      A
 Frequencies --    266.8792               300.2143               318.8359
 Red. masses --      4.0475                 1.2025                 3.3199
 Frc consts  --      0.1699                 0.0639                 0.1988
 IR Inten    --      4.3092                91.0163                19.2459

                     10                     11                     12
                      A                      A                      A
 Frequencies --    331.9245               386.2803               436.0107
 Red. masses --      3.3810                 4.7238                 4.0307
 Frc consts  --      0.2195                 0.4153                 0.4515
 IR Inten    --      3.5191                10.3534                 1.2634

                     13                     14                     15
                      A                      A                      A
 Frequencies --    513.6826               587.8346               763.2008
 Red. masses --      6.6900                 3.7470                 2.6952
 Frc consts  --      1.0401                 0.7628                 0.9250
 IR Inten    --      2.3429                12.2689                 7.1479

                     16                     17                     18
                      A                      A                      A
 Frequencies --    790.7337               832.9972               908.6270
 Red. masses --      1.8707                 3.0307                 5.1445
 Frc consts  --      0.6891                 1.2390                 2.5025
 IR Inten    --      4.4030                25.8897                44.4874

                     19                     20                     21
                      A                      A                      A
 Frequencies --    990.1488              1032.1229              1050.5018
 Red. masses --      2.2476                 3.2357                 1.4094
 Frc consts  --      1.2983                 2.0309                 0.9164
 IR Inten    --      8.1573                11.2268                 0.8755

                     22                     23                     24
                      A                      A                      A
 Frequencies --   1054.1955              1070.5505              1080.1179
 Red. masses --      1.4323                 2.0810                 2.3400
 Frc consts  --      0.9378                 1.4052                 1.6084
 IR Inten    --      1.0122                88.1842                59.1469

                     25                     26                     27
                      A                      A                      A
 Frequencies --   1112.0141              1141.1226              1181.1554
 Red. masses --      1.3925                 1.4732                 3.6567
 Frc consts  --      1.0146                 1.1303                 3.0058
 IR Inten    --      5.4759                 1.7951                 7.9587

                     28                     29                     30
                      A                      A                      A
 Frequencies --   1201.5695              1271.4899              1295.0427
 Red. masses --      1.4565                 1.4770                 1.3196
 Frc consts  --      1.2389                 1.4069                 1.3040
 IR Inten    --      2.9492                 2.7302                 0.9796

                     31                     32                     33
                      A                      A                      A
 Frequencies --   1316.7354              1365.0730              1401.0783
 Red. masses --      1.1829                 1.2316                 1.3002
 Frc consts  --      1.2083                 1.3522                 1.5037
 IR Inten    --     16.0576                30.9722                 5.7713

                     34                     35                     36
                      A                      A                      A
 Frequencies --   1413.6033              1422.6112              1468.2916
 Red. masses --      1.2479                 1.2787                 1.4703
 Frc consts  --      1.4692                 1.5247                 1.8675
 IR Inten    --      8.3305                48.6333                 6.3718

                     37                     38                     39
                      A                      A                      A
 Frequencies --   1475.6586              1477.3244              1477.6551
 Red. masses --      1.0417                 1.0461                 1.6366
 Frc consts  --      1.3365                 1.3451                 2.1054
 IR Inten    --      6.3346                 4.1931                 9.7232

                     40                     41                     42
                      A                      A                      A
 Frequencies --   1512.3258              2371.4299              3000.3981
 Red. masses --      1.0926                11.8481                 1.0661
 Frc consts  --      1.4723                39.2573                 5.6546
 IR Inten    --      0.5075                12.8739                34.2879

                     43                     44                     45
                      A                      A                      A
 Frequencies --   3026.1855              3028.8280              3061.2432
 Red. masses --      1.0603                 1.0348                 1.0946
 Frc consts  --      5.7209                 5.5929                 6.0435
 IR Inten    --     21.9613                27.8835                 7.8985

                     46                     47                     48
                      A                      A                      A
 Frequencies --   3080.2696              3090.0813              3092.3848
 Red. masses --      1.1010                 1.1003                 1.1001
 Frc consts  --      6.1547                 6.1902                 6.1981
 IR Inten    --     23.2628                 8.4338                 8.1414

                     49                     50                     51
                      A                      A                      A
 Frequencies --   3099.4780              3107.4839              3816.8028
 Red. masses --      1.0903                 1.0857                 1.0662
 Frc consts  --      6.1712                 6.1771                 9.1514
 IR Inten    --     16.2383                47.3292                19.5062

 - Thermochemistry -
 -------------------
 Temperature   298.150 Kelvin.  Pressure   1.00000 Atm.
 Atom     1 has atomic number  6 and mass  12.00000

 Molecular mass:   126.06808 amu.
 Principal axes and moments of inertia in atomic units:
                           1         2         3
     Eigenvalues --   236.039703595.008113648.60952
           X            0.99996   0.00677   0.00500
           Y           -0.00750   0.98635   0.16448
           Z           -0.00382  -0.16451   0.98637
 This molecule is an asymmetric top.
 Rotational symmetry number  1.
 Rotational temperatures (Kelvin)      0.36695     0.02409     0.02374
 Rotational constants (GHZ):           7.64592     0.50201     0.49464
 Zero-point vibrational energy     410100.1 (Joules/Mol)
                                   98.01628 (Kcal/Mol)
 Warning -- explicit consideration of  14 degrees of freedom as
           vibrations may cause significant error
 Vibrational temperatures:     42.71    72.76   104.07   151.98   169.77
          (Kelvin)            237.37   383.98   431.94   458.73   477.56
                              555.77   627.32   739.07   845.76  1098.07
                             1137.69  1198.50  1307.31  1424.60  1484.99
                             1511.44  1516.75  1540.28  1554.05  1599.94
                             1641.82  1699.42  1728.79  1829.39  1863.28
                             1894.49  1964.03  2015.84  2033.86  2046.82
                             2112.54  2123.14  2125.54  2126.01  2175.90
                             3411.95  4316.90  4354.00  4357.80  4404.44
                             4431.82  4445.93  4449.25  4459.45  4470.97
                             5491.52

 Zero-point correction=                           0.156199 (Hartree/Particle)
 Thermal correction to Energy=                    0.166865
 Thermal correction to Enthalpy=                  0.167810
 Thermal correction to Gibbs Free Energy=         0.118473
 Sum of electronic and zero-point Energies=           -422.975232
 Sum of electronic and thermal Energies=              -422.964565
 Sum of electronic and thermal Enthalpies=            -422.963621
 Sum of electronic and thermal Free Energies=         -423.012958

                     E (Thermal)             CV                S
                      KCal/Mol        Cal/Mol-Kelvin    Cal/Mol-Kelvin
 Total                  104.710             36.145            103.838
 Electronic               0.000              0.000              0.000
 Translational            0.889              2.981             40.409
 Rotational               0.889              2.981             29.517
 Vibrational            102.932             30.183             33.913
 Vibration     1          0.593              1.984              5.850
 Vibration     2          0.595              1.977              4.795
 Vibration     3          0.598              1.967              4.089
 Vibration     4          0.605              1.945              3.348
 Vibration     5          0.608              1.934              3.133
 Vibration     6          0.623              1.885              2.492
 Vibration     7          0.672              1.734              1.616
 Vibration     8          0.693              1.673              1.416
 Vibration     9          0.705              1.638              1.316
 Vibration    10          0.714              1.612              1.251
 Vibration    11          0.755              1.499              1.014
 Vibration    12          0.796              1.392              0.839
 Vibration    13          0.869              1.220              0.625
 Vibration    14          0.945              1.058              0.471

 Optimization completed.
    -- Stationary point found.
 Normal termination of Gaussian 09 at Tue Jan 28 14:55:49 2020.
