 Gaussian 09, Revision D.01,
 Gaussian 09:  ES64L-G09RevD.01 24-Apr-2013

 -----------------------------
 # b3lyp 6-31G(2df,p) opt Freq
 -----------------------------

 -----
 titel
 -----
 Symbolic Z-matrix:
 Charge =  0 Multiplicity = 1

 SCF Done:  E(RB3LYP) =  -423.150663164     A.U. after   13 cycles
 Optimization completed.
    -- Stationary point found.
 Normal termination of Gaussian 09 at Tue Jan 28 09:18:51 2020.

 ----------------------------------------------------------------------
 #N Geom=AllCheck Guess=TCheck SCRF=Check GenChk RB3LYP/6-31G(2df,p) Fr
 eq
 ----------------------------------------------------------------------

 Structure from the checkpoint file:  "/scratch/puck/g09_2b931bd5-e94e-4f07-a527-834eecce195b/Gau-28612.chk"
 -----
 titel
 -----
 Charge =  0 Multiplicity = 1

                         Standard orientation:
 ---------------------------------------------------------------------
 Center     Atomic      Atomic             Coordinates (Angstroms)
 Number     Number       Type             X           Y           Z
 ---------------------------------------------------------------------
      1          8           0        2.621894    0.607602   -0.136228
      2          6           0        1.916494   -0.625814   -0.047089
      3          6           0        0.434620   -0.447106    0.057328
      4          6           0       -0.678744   -1.234489    0.744049
      5          6           0       -1.553917   -1.171084   -0.509630
      6          6           0       -0.586226   -0.070096   -1.054603
      7          8           0       -1.045797    1.242486   -0.772042
      8          6           0       -1.142195    1.338370    0.657497
      9          6           0       -0.318636    0.173898    1.195765
     10          1           0        2.228484    1.118265   -0.851368
     11          1           0        2.161127   -1.279585   -0.900394
     12          1           0        2.296753   -1.120919    0.853332
     13          1           0       -0.581547   -2.078107    1.418269
     14          1           0       -1.487156   -2.092779   -1.094290
     15          1           0       -2.605305   -0.883160   -0.407591
     16          1           0       -0.297881   -0.118770   -2.105012
     17          1           0       -0.733106    2.305642    0.969968
     18          1           0       -2.194851    1.294961    0.968522
     19          1           0        0.176324    0.271672    2.154820
 ---------------------------------------------------------------------

 SCF Done:  E(RB3LYP) =  -423.150663164     A.U. after    1 cycles

 The electronic state is 1-A.
 Alpha  occ. eigenvalues --  -19.13645 -19.13196 -10.23606 -10.23161 -10.22734
 Alpha  occ. eigenvalues --  -10.20016 -10.19575 -10.19279 -10.18557  -1.03919
 Alpha  occ. eigenvalues --   -1.01234  -0.89170  -0.75337  -0.71390  -0.66205
 Alpha  occ. eigenvalues --   -0.62992  -0.57249  -0.53554  -0.52575  -0.48549
 Alpha  occ. eigenvalues --   -0.46732  -0.45558  -0.43073  -0.41767  -0.40917
 Alpha  occ. eigenvalues --   -0.39462  -0.37743  -0.36433  -0.33550  -0.30080
 Alpha  occ. eigenvalues --   -0.29402  -0.27429  -0.25828  -0.23960
 Alpha virt. eigenvalues --    0.06755   0.09309   0.10163   0.11256   0.13053
 Alpha virt. eigenvalues --    0.13515   0.14482   0.14630   0.15853   0.16419
 Alpha virt. eigenvalues --    0.17727   0.18417   0.18558   0.20303   0.22144

 Mulliken charges:
               1
     1  O   -0.413939
     2  C   -0.209128
     3  C    0.328587
     4  C   -0.142531
     5  C   -0.250843
     6  C    0.014564
     7  O   -0.266495
     8  C   -0.106580
     9  C   -0.115700
    10  H    0.287632
    11  H    0.087539
    12  H    0.110099
    13  H    0.087340
    14  H    0.103210
    15  H    0.098930
    16  H    0.080519
    17  H    0.109954
    18  H    0.099394
    19  H    0.097448
 Sum of Mulliken charges =   0.00000

 Dipole moment (field-independent basis, Debye):
    X=             -0.6943    Y=             -1.3397    Z=              0.2389  Tot=              1.5278
 Quadrupole moment (field-independent basis, Debye-Ang):
   XX=            -59.4017   YY=            -52.5127   ZZ=            -50.1973
   XY=             -0.3021   XZ=             -2.7659   YZ=              1.0865

  Exact polarizability:  76.947   0.230  74.783  -0.530   2.647  70.119
 Approx polarizability: 106.306   1.503 110.933  -1.590   1.304 107.898

                      1                      2                      3
                      A                      A                      A
 Frequencies --     80.6208               106.3839               218.1688
 Red. masses --      3.0549                 4.7375                 1.7695
 Frc consts  --      0.0117                 0.0316                 0.0496
 IR Inten    --      1.3338                 3.6705                43.5441

                      4                      5                      6
                      A                      A                      A
 Frequencies --    253.0483               308.0755               361.8483
 Red. masses --      1.8041                 1.5122                 3.3609
 Frc consts  --      0.0681                 0.0846                 0.2593
 IR Inten    --     16.4704                54.9927                14.2172

                      7                      8                      9
                      A                      A                      A
 Frequencies --    419.9774               477.7513               600.6202
 Red. masses --      3.2005                 2.6329                 3.7586
 Frc consts  --      0.3326                 0.3541                 0.7989
 IR Inten    --      2.9000                 3.3181                 3.2186

                     10                     11                     12
                      A                      A                      A
 Frequencies --    681.6818               739.6734               767.2097
 Red. masses --      4.7562                 3.7213                 3.3243
 Frc consts  --      1.3022                 1.1996                 1.1529
 IR Inten    --      5.1262                 1.8680                 3.1620

                     13                     14                     15
                      A                      A                      A
 Frequencies --    830.8352               872.4693               900.8364
 Red. masses --      2.2559                 2.4016                 1.9719
 Frc consts  --      0.9175                 1.0771                 0.9428
 IR Inten    --     10.1583                10.4225                 7.0981

                     16                     17                     18
                      A                      A                      A
 Frequencies --    931.2027               942.5402               957.2408
 Red. masses --      1.9625                 3.0760                 1.6941
 Frc consts  --      1.0026                 1.6100                 0.9146
 IR Inten    --      8.9655                 7.7288                 0.1429

                     19                     20                     21
                      A                      A                      A
 Frequencies --    989.5469              1012.4084              1035.3156
 Red. masses --      3.2040                 1.5349                 2.1638
 Frc consts  --      1.8485                 0.9269                 1.3665
 IR Inten    --     13.5495                35.0271                49.2533

                     22                     23                     24
                      A                      A                      A
 Frequencies --   1051.8974              1071.6408              1085.8429
 Red. masses --      2.5931                 2.5297                 2.0869
 Frc consts  --      1.6905                 1.7117                 1.4498
 IR Inten    --     25.0068                43.3169                31.0730

                     25                     26                     27
                      A                      A                      A
 Frequencies --   1112.3649              1143.7755              1157.2614
 Red. masses --      2.5893                 1.4017                 1.5394
 Frc consts  --      1.8876                 1.0804                 1.2147
 IR Inten    --      2.2144                12.4263                22.6768

                     28                     29                     30
                      A                      A                      A
 Frequencies --   1186.5989              1221.3622              1229.0664
 Red. masses --      1.5470                 1.1281                 2.1833
 Frc consts  --      1.2833                 0.9915                 1.9432
 IR Inten    --      6.0481                 1.0297                15.4140

                     31                     32                     33
                      A                      A                      A
 Frequencies --   1254.3769              1288.0211              1306.8205
 Red. masses --      1.3766                 1.4482                 1.7504
 Frc consts  --      1.2762                 1.4155                 1.7612
 IR Inten    --      8.5140                 1.4461                 7.0966

                     34                     35                     36
                      A                      A                      A
 Frequencies --   1335.1254              1365.8163              1379.8915
 Red. masses --      1.4511                 1.2605                 1.4192
 Frc consts  --      1.5240                 1.3854                 1.5921
 IR Inten    --      2.9570                 8.8259                 4.5085

                     37                     38                     39
                      A                      A                      A
 Frequencies --   1417.1001              1458.5262              1491.6043
 Red. masses --      1.2739                 2.9857                 1.1962
 Frc consts  --      1.5073                 3.7422                 1.5681
 IR Inten    --     57.3236                15.9863                 0.7206

                     40                     41                     42
                      A                      A                      A
 Frequencies --   1502.1666              1527.2370              2967.5663
 Red. masses --      1.0878                 1.0883                 1.0713
 Frc consts  --      1.4463                 1.4956                 5.5585
 IR Inten    --      0.5766                 0.4949                69.5529

                     43                     44                     45
                      A                      A                      A
 Frequencies --   3007.4097              3045.0161              3058.7621
 Red. masses --      1.0643                 1.0580                 1.1002
 Frc consts  --      5.6716                 5.7798                 6.0649
 IR Inten    --     65.0134                44.7673                42.1308

                     46                     47                     48
                      A                      A                      A
 Frequencies --   3063.0966              3098.6323              3115.6014
 Red. masses --      1.0906                 1.1068                 1.0907
 Frc consts  --      6.0292                 6.2613                 6.2381
 IR Inten    --     24.8659                17.6292                38.8693

                     49                     50                     51
                      A                      A                      A
 Frequencies --   3173.4516              3191.5503              3815.3556
 Red. masses --      1.0913                 1.0915                 1.0663
 Frc consts  --      6.4751                 6.5507                 9.1455
 IR Inten    --     16.0753                10.4059                17.0181

 - Thermochemistry -
 -------------------
 Temperature   298.150 Kelvin.  Pressure   1.00000 Atm.
 Atom     1 has atomic number  8 and mass  15.99491

 Molecular mass:   126.06808 amu.
 Principal axes and moments of inertia in atomic units:
                           1         2         3
     Eigenvalues --   668.550491182.254491337.96823
           X            0.99994  -0.00354  -0.01005
           Y            0.00428   0.99723   0.07422
           Z            0.00975  -0.07426   0.99719
 This molecule is an asymmetric top.
 Rotational symmetry number  1.
 Warning -- assumption of classical behavior for rotation
           may cause significant error
 Rotational temperatures (Kelvin)      0.12955     0.07326     0.06474
 Rotational constants (GHZ):           2.69948     1.52653     1.34887
 Zero-point vibrational energy     422343.9 (Joules/Mol)
                                  100.94262 (Kcal/Mol)
 Warning -- explicit consideration of   9 degrees of freedom as
           vibrations may cause significant error
 Vibrational temperatures:    116.00   153.06   313.90   364.08   443.25
          (Kelvin)            520.62   604.25   687.38   864.16   980.79
                             1064.22  1103.84  1195.39  1255.29  1296.10
                             1339.79  1356.10  1377.25  1423.74  1456.63
                             1489.59  1513.44  1541.85  1562.28  1600.44
                             1645.64  1665.04  1707.25  1757.27  1768.35
                             1804.77  1853.17  1880.22  1920.95  1965.10
                             1985.35  2038.89  2098.49  2146.08  2161.28
                             2197.35  4269.66  4326.99  4381.09  4400.87
                             4407.11  4458.24  4482.65  4565.88  4591.92
                             5489.44

 Zero-point correction=                           0.160862 (Hartree/Particle)
 Thermal correction to Energy=                    0.168674
 Thermal correction to Enthalpy=                  0.169618
 Thermal correction to Gibbs Free Energy=         0.128316
 Sum of electronic and zero-point Energies=           -422.989801
 Sum of electronic and thermal Energies=              -422.981989
 Sum of electronic and thermal Enthalpies=            -422.981045
 Sum of electronic and thermal Free Energies=         -423.022347

                     E (Thermal)             CV                S
                      KCal/Mol        Cal/Mol-Kelvin    Cal/Mol-Kelvin
 Total                  105.844             30.296             86.928
 Electronic               0.000              0.000              0.000
 Translational            0.889              2.981             40.409
 Rotational               0.889              2.981             28.449
 Vibrational            104.067             24.335             18.070
 Vibration     1          0.600              1.962              3.876
 Vibration     2          0.605              1.944              3.334
 Vibration     3          0.646              1.813              1.974
 Vibration     4          0.664              1.758              1.709
 Vibration     5          0.698              1.658              1.373
 Vibration     6          0.736              1.551              1.114
 Vibration     7          0.783              1.427              0.892
 Vibration     8          0.834              1.299              0.716
 Vibration     9          0.959              1.030              0.449

 Optimization completed.
    -- Stationary point found.
 Normal termination of Gaussian 09 at Tue Jan 28 10:07:24 2020.
