 Gaussian 09, Revision D.01,
 Gaussian 09:  ES64L-G09RevD.01 24-Apr-2013

 -----------------------------
 # b3lyp 6-31G(2df,p) opt Freq
 -----------------------------

 -----
 titel
 -----
 Symbolic Z-matrix:
 Charge =  0 Multiplicity = 1

 SCF Done:  E(RB3LYP) =  -423.146049974     A.U. after   13 cycles
 Optimization completed.
    -- Stationary point found.
 Normal termination of Gaussian 09 at Tue Jan 28 09:58:30 2020.

 ----------------------------------------------------------------------
 #N Geom=AllCheck Guess=TCheck SCRF=Check GenChk RB3LYP/6-31G(2df,p) Fr
 eq
 ----------------------------------------------------------------------

 Structure from the checkpoint file:  "/scratch/puck/g09_7c0676fc-a883-4b42-9cb6-39fe5b038a80/Gau-21552.chk"
 -----
 titel
 -----
 Charge =  0 Multiplicity = 1

                         Standard orientation:
 ---------------------------------------------------------------------
 Center     Atomic      Atomic             Coordinates (Angstroms)
 Number     Number       Type             X           Y           Z
 ---------------------------------------------------------------------
      1          8           0        2.629544    0.244091   -0.642054
      2          6           0        1.861101   -0.500958    0.292292
      3          6           0        0.381486   -0.171755    0.256286
      4          6           0       -0.585289   -1.161480    0.996103
      5          6           0       -1.505509   -1.114506   -0.221995
      6          6           0       -1.647811    0.324717   -0.675281
      7          8           0       -1.399331    1.361573    0.254643
      8          6           0       -0.019965    1.262875    0.618991
      9          6           0       -0.420536   -0.417385   -1.057123
     10          1           0        2.662350    1.158604   -0.346463
     11          1           0        2.004602   -1.551200    0.017252
     12          1           0        2.245820   -0.381576    1.318585
     13          1           0       -0.126430   -2.146741    1.119647
     14          1           0       -0.994874   -0.829432    1.956324
     15          1           0       -2.208816   -1.882386   -0.524562
     16          1           0       -2.418692    0.571100   -1.395222
     17          1           0        0.570456    2.005341    0.057212
     18          1           0        0.071225    1.475422    1.690280
     19          1           0       -0.028209   -0.593486   -2.049400
 ---------------------------------------------------------------------

 SCF Done:  E(RB3LYP) =  -423.146049974     A.U. after    1 cycles

 The electronic state is 1-A.
 Alpha  occ. eigenvalues --  -19.14051 -19.13734 -10.23264 -10.23167 -10.22808
 Alpha  occ. eigenvalues --  -10.19989 -10.19202 -10.18775 -10.18742  -1.04137
 Alpha  occ. eigenvalues --   -1.02048  -0.88459  -0.77368  -0.68955  -0.68148
 Alpha  occ. eigenvalues --   -0.60757  -0.57957  -0.53549  -0.52095  -0.49891
 Alpha  occ. eigenvalues --   -0.46681  -0.46110  -0.43726  -0.42551  -0.41170
 Alpha  occ. eigenvalues --   -0.39284  -0.36409  -0.33560  -0.33289  -0.32401
 Alpha  occ. eigenvalues --   -0.30484  -0.27405  -0.26385  -0.22886
 Alpha virt. eigenvalues --    0.06062   0.09891   0.10475   0.10931   0.12222
 Alpha virt. eigenvalues --    0.13120   0.14486   0.15718   0.15991   0.16959
 Alpha virt. eigenvalues --    0.18126   0.18475   0.19366   0.20471   0.23138

 Mulliken charges:
               1
     1  O   -0.416755
     2  C   -0.184268
     3  C    0.274671
     4  C   -0.284875
     5  C   -0.104389
     6  C    0.112973
     7  O   -0.270221
     8  C   -0.123534
     9  C   -0.159968
    10  H    0.286865
    11  H    0.113585
    12  H    0.090073
    13  H    0.101685
    14  H    0.099269
    15  H    0.083809
    16  H    0.102632
    17  H    0.077247
    18  H    0.104783
    19  H    0.096418
 Sum of Mulliken charges =   0.00000

 Dipole moment (field-independent basis, Debye):
    X=              0.4048    Y=             -0.4739    Z=              0.5468  Tot=              0.8291
 Quadrupole moment (field-independent basis, Debye-Ang):
   XX=            -56.7317   YY=            -52.1137   ZZ=            -52.3396
   XY=              5.0376   XZ=              5.3012   YZ=             -0.1260

  Exact polarizability:  78.109   3.958  73.018   3.063  -0.568  69.167
 Approx polarizability: 109.403   3.800 109.675  -0.330  -0.163 105.619

                      1                      2                      3
                      A                      A                      A
 Frequencies --     89.6129               165.6830               238.7695
 Red. masses --      2.9098                 5.4313                 1.9744
 Frc consts  --      0.0138                 0.0878                 0.0663
 IR Inten    --      2.3014                 4.7859                39.6919

                      4                      5                      6
                      A                      A                      A
 Frequencies --    264.1665               297.5061               362.8283
 Red. masses --      2.1652                 1.3367                 2.5779
 Frc consts  --      0.0890                 0.0697                 0.1999
 IR Inten    --     18.8650                80.0313                 0.6970

                      7                      8                      9
                      A                      A                      A
 Frequencies --    434.2151               502.3387               610.3526
 Red. masses --      2.7038                 3.2602                 4.0239
 Frc consts  --      0.3004                 0.4847                 0.8832
 IR Inten    --      1.9166                 2.5496                 9.5748

                     10                     11                     12
                      A                      A                      A
 Frequencies --    668.0747               724.9143               759.9964
 Red. masses --      3.9230                 5.4237                 1.9085
 Frc consts  --      1.0316                 1.6793                 0.6495
 IR Inten    --      1.8035                 3.7764                 4.8138

                     13                     14                     15
                      A                      A                      A
 Frequencies --    791.7625               846.4567               866.2510
 Red. masses --      2.0111                 2.7844                 1.9590
 Frc consts  --      0.7428                 1.1754                 0.8661
 IR Inten    --     12.7965                11.1244                 5.0181

                     16                     17                     18
                      A                      A                      A
 Frequencies --    933.4738               937.9370               965.5273
 Red. masses --      1.8919                 1.7704                 1.4796
 Frc consts  --      0.9713                 0.9177                 0.8127
 IR Inten    --     11.6254                12.4814                 6.4861

                     19                     20                     21
                      A                      A                      A
 Frequencies --    986.6797              1021.4747              1026.1936
 Red. masses --      2.2030                 2.3010                 1.5630
 Frc consts  --      1.2636                 1.4146                 0.9697
 IR Inten    --     26.8602                 8.2955                 9.5458

                     22                     23                     24
                      A                      A                      A
 Frequencies --   1037.5617              1068.3412              1070.8241
 Red. masses --      2.8227                 1.7274                 4.7110
 Frc consts  --      1.7903                 1.1616                 3.1827
 IR Inten    --     21.9982                13.9030                67.7319

                     25                     26                     27
                      A                      A                      A
 Frequencies --   1103.8768              1127.0264              1143.1438
 Red. masses --      2.0038                 2.1417                 2.0445
 Frc consts  --      1.4386                 1.6028                 1.5741
 IR Inten    --     52.6530                11.9780                 7.0942

                     28                     29                     30
                      A                      A                      A
 Frequencies --   1161.9392              1196.8168              1232.1767
 Red. masses --      1.4202                 1.6163                 1.2800
 Frc consts  --      1.1297                 1.3641                 1.1450
 IR Inten    --      9.1812                 2.3608                 0.8640

                     31                     32                     33
                      A                      A                      A
 Frequencies --   1247.7960              1281.0684              1291.7547
 Red. masses --      1.7053                 1.5928                 1.7864
 Frc consts  --      1.5644                 1.5402                 1.7563
 IR Inten    --      3.4047                19.8590                 5.7244

                     34                     35                     36
                      A                      A                      A
 Frequencies --   1314.3371              1377.8442              1384.5710
 Red. masses --      1.7986                 1.4504                 1.6881
 Frc consts  --      1.8306                 1.6224                 1.9067
 IR Inten    --      0.6738                 4.2495                 1.8494

                     37                     38                     39
                      A                      A                      A
 Frequencies --   1408.7667              1418.6259              1490.4540
 Red. masses --      1.9030                 1.2585                 1.1128
 Frc consts  --      2.2252                 1.4922                 1.4565
 IR Inten    --     11.6954                43.7969                 1.1574

                     40                     41                     42
                      A                      A                      A
 Frequencies --   1497.6369              1509.7812              2962.6079
 Red. masses --      1.0864                 1.0970                 1.0688
 Frc consts  --      1.4356                 1.4733                 5.5269
 IR Inten    --      1.4024                 0.8225                86.3193

                     43                     44                     45
                      A                      A                      A
 Frequencies --   2971.4712              3036.7804              3059.2675
 Red. masses --      1.0702                 1.0584                 1.0930
 Frc consts  --      5.5674                 5.7510                 6.0273
 IR Inten    --     53.8266                39.9499                40.7592

                     46                     47                     48
                      A                      A                      A
 Frequencies --   3069.9961              3092.5320              3169.8822
 Red. masses --      1.0927                 1.1064                 1.0909
 Frc consts  --      6.0676                 6.2343                 6.4583
 IR Inten    --     18.4273                30.0414                22.4674

                     49                     50                     51
                      A                      A                      A
 Frequencies --   3193.2271              3208.7620              3830.5697
 Red. masses --      1.0900                 1.0982                 1.0662
 Frc consts  --      6.5484                 6.6618                 9.2178
 IR Inten    --     14.9338                11.7695                18.2017

 - Thermochemistry -
 -------------------
 Temperature   298.150 Kelvin.  Pressure   1.00000 Atm.
 Atom     1 has atomic number  8 and mass  15.99491

 Molecular mass:   126.06808 amu.
 Principal axes and moments of inertia in atomic units:
                           1         2         3
     Eigenvalues --   602.892161219.483311382.23326
           X            0.99947   0.02478   0.02122
           Y           -0.02437   0.99952  -0.01918
           Z           -0.02168   0.01865   0.99959
 This molecule is an asymmetric top.
 Rotational symmetry number  1.
 Warning -- assumption of classical behavior for rotation
           may cause significant error
 Rotational temperatures (Kelvin)      0.14366     0.07103     0.06266
 Rotational constants (GHZ):           2.99347     1.47992     1.30567
 Zero-point vibrational energy     421406.4 (Joules/Mol)
                                  100.71855 (Kcal/Mol)
 Warning -- explicit consideration of   9 degrees of freedom as
           vibrations may cause significant error
 Vibrational temperatures:    128.93   238.38   343.54   380.08   428.04
          (Kelvin)            522.03   624.74   722.75   878.16   961.21
                             1042.99  1093.46  1139.17  1217.86  1246.34
                             1343.06  1349.48  1389.18  1419.61  1469.67
                             1476.46  1492.82  1537.10  1540.68  1588.23
                             1621.54  1644.73  1671.77  1721.95  1772.83
                             1795.30  1843.17  1858.54  1891.04  1982.41
                             1992.09  2026.90  2041.08  2144.43  2154.76
                             2172.24  4262.53  4275.28  4369.24  4401.60
                             4417.03  4449.46  4560.75  4594.34  4616.69
                             5511.33

 Zero-point correction=                           0.160505 (Hartree/Particle)
 Thermal correction to Energy=                    0.168174
 Thermal correction to Enthalpy=                  0.169118
 Thermal correction to Gibbs Free Energy=         0.128418
 Sum of electronic and zero-point Energies=           -422.985545
 Sum of electronic and thermal Energies=              -422.977876
 Sum of electronic and thermal Enthalpies=            -422.976932
 Sum of electronic and thermal Free Energies=         -423.017632

                     E (Thermal)             CV                S
                      KCal/Mol        Cal/Mol-Kelvin    Cal/Mol-Kelvin
 Total                  105.531             30.436             85.662
 Electronic               0.000              0.000              0.000
 Translational            0.889              2.981             40.409
 Rotational               0.889              2.981             28.410
 Vibrational            103.753             24.474             16.843
 Vibration     1          0.602              1.957              3.669
 Vibration     2          0.624              1.885              2.484
 Vibration     3          0.657              1.781              1.812
 Vibration     4          0.671              1.739              1.634
 Vibration     5          0.691              1.678              1.431
 Vibration     6          0.737              1.549              1.110
 Vibration     7          0.795              1.396              0.845
 Vibration     8          0.858              1.245              0.652
 Vibration     9          0.969              1.010              0.432

 Normal termination of Gaussian 09 at Tue Jan 28 10:44:53 2020.
