 Gaussian 09, Revision D.01,
 Gaussian 09:  ES64L-G09RevD.01 24-Apr-2013

 -----------------------------
 # b3lyp 6-31G(2df,p) opt Freq
 -----------------------------

 -----
 titel
 -----
 Symbolic Z-matrix:
 Charge =  0 Multiplicity = 1

 SCF Done:  E(RB3LYP) =  -423.119678848     A.U. after   13 cycles
 Optimization completed.
    -- Stationary point found.
 Normal termination of Gaussian 09 at Mon Jan 27 22:03:42 2020.

 ----------------------------------------------------------------------
 #N Geom=AllCheck Guess=TCheck SCRF=Check GenChk RB3LYP/6-31G(2df,p) Fr
 eq
 ----------------------------------------------------------------------

 Structure from the checkpoint file:  "/scratch/puck/g09_d9eedbd5-9967-4d26-9492-59d352f65429/Gau-72816.chk"
 -----
 titel
 -----
 Charge =  0 Multiplicity = 1

                         Standard orientation:
 ---------------------------------------------------------------------
 Center     Atomic      Atomic             Coordinates (Angstroms)
 Number     Number       Type             X           Y           Z
 ---------------------------------------------------------------------
      1          8           0       -1.637637   -1.850279    0.021613
      2          6           0       -1.371771   -0.543426    0.439672
      3          6           0       -1.208201    0.553323   -0.580707
      4          8           0       -1.708532    1.809143   -0.219201
      5          6           0       -0.004795   -0.012638    0.140039
      6          6           0        0.936866    0.687555    1.139414
      7          6           0        2.098660   -0.123829    0.539393
      8          6           0        2.212284    0.119219   -0.939544
      9          6           0        1.141591   -0.813658   -0.441344
     10          1           0       -2.550189   -1.884055   -0.285104
     11          1           0       -1.820915   -0.242969    1.387968
     12          1           0       -1.338889    0.267298   -1.626206
     13          1           0       -1.078779    2.476449   -0.511425
     14          1           0        1.021035    1.778122    1.065995
     15          1           0        0.713336    0.424357    2.176381
     16          1           0        2.909196   -0.559879    1.109705
     17          1           0        1.946958    1.085683   -1.363981
     18          1           0        3.056774   -0.360492   -1.424600
     19          1           0        1.083019   -1.854706   -0.729567
 ---------------------------------------------------------------------

 SCF Done:  E(RB3LYP) =  -423.119678848     A.U. after    1 cycles

 The electronic state is 1-A.
 Alpha  occ. eigenvalues --  -19.14271 -19.14248 -10.22736 -10.22503 -10.19137
 Alpha  occ. eigenvalues --  -10.19037 -10.18834 -10.18601 -10.18458  -1.03274
 Alpha  occ. eigenvalues --   -1.01920  -0.89658  -0.81834  -0.70552  -0.62209
 Alpha  occ. eigenvalues --   -0.59871  -0.57636  -0.53461  -0.52377  -0.51170
 Alpha  occ. eigenvalues --   -0.47363  -0.45181  -0.43358  -0.42367  -0.39011
 Alpha  occ. eigenvalues --   -0.37830  -0.35842  -0.33395  -0.32683  -0.30452
 Alpha  occ. eigenvalues --   -0.29441  -0.27493  -0.25044  -0.22825
 Alpha virt. eigenvalues --    0.06848   0.07946   0.10415   0.11240   0.11615
 Alpha virt. eigenvalues --    0.13047   0.14607   0.15276   0.15806   0.17332
 Alpha virt. eigenvalues --    0.17528   0.19278   0.21797   0.22132   0.23660

 Mulliken charges:
               1
     1  O   -0.421852
     2  C   -0.021156
     3  C   -0.045241
     4  O   -0.421752
     5  C    0.322080
     6  C   -0.321376
     7  C   -0.036430
     8  C   -0.281925
     9  C   -0.118530
    10  H    0.288611
    11  H    0.092505
    12  H    0.083800
    13  H    0.288148
    14  H    0.086493
    15  H    0.111528
    16  H    0.087697
    17  H    0.095487
    18  H    0.110762
    19  H    0.101152
 Sum of Mulliken charges =   0.00000

 Dipole moment (field-independent basis, Debye):
    X=              0.4245    Y=              0.5433    Z=             -0.6313  Tot=              0.9349
 Quadrupole moment (field-independent basis, Debye-Ang):
   XX=            -50.9356   YY=            -52.9789   ZZ=            -51.7800
   XY=              2.9855   XZ=              1.0283   YZ=             -0.4537

  Exact polarizability:  85.711   1.528  72.830  -0.577   1.333  69.004
 Approx polarizability: 114.456   2.643 108.923   0.771   1.300 103.898

                      1                      2                      3
                      A                      A                      A
 Frequencies --    112.9787               140.1362               177.7418
 Red. masses --      3.5799                 3.1991                 3.7617
 Frc consts  --      0.0269                 0.0370                 0.0700
 IR Inten    --      0.6228                 0.2918                 0.2182

                      4                      5                      6
                      A                      A                      A
 Frequencies --    227.7332               281.2644               299.3930
 Red. masses --      2.3149                 1.4177                 1.8963
 Frc consts  --      0.0707                 0.0661                 0.1001
 IR Inten    --     40.2199                35.7638                14.2796

                      7                      8                      9
                      A                      A                      A
 Frequencies --    328.3015               374.3485               437.9118
 Red. masses --      1.6476                 1.8957                 2.9625
 Frc consts  --      0.1046                 0.1565                 0.3347
 IR Inten    --    139.9022                 3.2461                 3.2655

                     10                     11                     12
                      A                      A                      A
 Frequencies --    507.7198               556.7492               587.1869
 Red. masses --      4.2341                 3.9654                 3.4621
 Frc consts  --      0.6431                 0.7242                 0.7033
 IR Inten    --      4.0093                10.5001                 0.9697

                     13                     14                     15
                      A                      A                      A
 Frequencies --    750.7974               784.6260               821.0799
 Red. masses --      2.2179                 1.7776                 2.5083
 Frc consts  --      0.7366                 0.6448                 0.9963
 IR Inten    --      2.0333                 4.6750                11.4465

                     16                     17                     18
                      A                      A                      A
 Frequencies --    870.5737               920.0801               950.3937
 Red. masses --      2.7025                 2.0827                 1.7177
 Frc consts  --      1.2068                 1.0388                 0.9141
 IR Inten    --      9.6679                 8.4787                 0.4473

                     19                     20                     21
                      A                      A                      A
 Frequencies --    957.8350               991.1204              1004.5399
 Red. masses --      1.7796                 1.7249                 1.8647
 Frc consts  --      0.9619                 0.9983                 1.1086
 IR Inten    --      2.0910                12.1755                 3.3632

                     22                     23                     24
                      A                      A                      A
 Frequencies --   1031.2791              1053.4420              1066.1442
 Red. masses --      1.4665                 1.4215                 1.2323
 Frc consts  --      0.9189                 0.9294                 0.8253
 IR Inten    --      8.5269                 1.6589                 0.3469

                     25                     26                     27
                      A                      A                      A
 Frequencies --   1081.9882              1093.6952              1128.0520
 Red. masses --      1.5341                 2.1353                 2.5027
 Frc consts  --      1.0581                 1.5049                 1.8764
 IR Inten    --      1.3099                29.0250                59.7196

                     28                     29                     30
                      A                      A                      A
 Frequencies --   1151.3600              1160.9732              1190.8052
 Red. masses --      2.3982                 2.0197                 1.6671
 Frc consts  --      1.8731                 1.6039                 1.3928
 IR Inten    --     23.3811                23.1245                 9.1393

                     31                     32                     33
                      A                      A                      A
 Frequencies --   1203.2656              1248.4685              1270.9895
 Red. masses --      1.9495                 1.5269                 1.6117
 Frc consts  --      1.6630                 1.4022                 1.5340
 IR Inten    --     15.8875                 3.4692                 1.5998

                     34                     35                     36
                      A                      A                      A
 Frequencies --   1284.9311              1296.3672              1321.3890
 Red. masses --      1.2059                 1.4287                 1.9489
 Frc consts  --      1.1731                 1.4146                 2.0050
 IR Inten    --     60.3887                53.2468                11.6235

                     37                     38                     39
                      A                      A                      A
 Frequencies --   1360.6363              1368.4758              1480.6687
 Red. masses --      2.0933                 1.3949                 1.1504
 Frc consts  --      2.2833                 1.5390                 1.4859
 IR Inten    --      1.5966                14.4065                 1.2429

                     40                     41                     42
                      A                      A                      A
 Frequencies --   1487.7016              1496.8639              3032.6152
 Red. masses --      2.6762                 1.2843                 1.0630
 Frc consts  --      3.4899                 1.6954                 5.7602
 IR Inten    --     13.4264                 4.2311                47.8420

                     43                     44                     45
                      A                      A                      A
 Frequencies --   3082.6984              3090.6736              3095.4209
 Red. masses --      1.0884                 1.0858                 1.1011
 Frc consts  --      6.0938                 6.1108                 6.2162
 IR Inten    --     14.1788                40.9927                18.3594

                     46                     47                     48
                      A                      A                      A
 Frequencies --   3099.9939              3185.1130              3193.0980
 Red. masses --      1.0576                 1.0970                 1.1035
 Frc consts  --      5.9884                 6.5569                 6.6289
 IR Inten    --     29.0527                10.8665                12.8195

                     49                     50                     51
                      A                      A                      A
 Frequencies --   3208.4627              3800.6573              3802.1712
 Red. masses --      1.0970                 1.0662                 1.0663
 Frc consts  --      6.6532                 9.0742                 9.0824
 IR Inten    --     18.6213                20.5130                15.7493

 - Thermochemistry -
 -------------------
 Temperature   298.150 Kelvin.  Pressure   1.00000 Atm.
 Atom     1 has atomic number  8 and mass  15.99491

 Molecular mass:   126.06808 amu.
 Principal axes and moments of inertia in atomic units:
                           1         2         3
     Eigenvalues --   723.410591287.943151611.88798
           X            0.99993   0.01103  -0.00393
           Y           -0.01098   0.99987   0.01172
           Z            0.00406  -0.01167   0.99992
 This molecule is an asymmetric top.
 Rotational symmetry number  1.
 Warning -- assumption of classical behavior for rotation
           may cause significant error
 Rotational temperatures (Kelvin)      0.11973     0.06725     0.05373
 Rotational constants (GHZ):           2.49477     1.40126     1.11964
 Zero-point vibrational energy     415408.7 (Joules/Mol)
                                   99.28506 (Kcal/Mol)
 Warning -- explicit consideration of  12 degrees of freedom as
           vibrations may cause significant error
 Vibrational temperatures:    162.55   201.62   255.73   327.66   404.68
          (Kelvin)            430.76   472.35   538.60   630.06   730.49
                              801.04   844.83  1080.23  1128.90  1181.35
                             1252.56  1323.79  1367.40  1378.11  1426.00
                             1445.31  1483.78  1515.67  1533.94  1556.74
                             1573.58  1623.01  1656.55  1670.38  1713.30
                             1731.23  1796.27  1828.67  1848.73  1865.18
                             1901.18  1957.65  1968.93  2130.35  2140.47
                             2153.65  4363.25  4435.31  4446.78  4453.61
                             4460.19  4582.66  4594.15  4616.26  5468.29
                             5470.47

 Zero-point correction=                           0.158221 (Hartree/Particle)
 Thermal correction to Energy=                    0.166825
 Thermal correction to Enthalpy=                  0.167769
 Thermal correction to Gibbs Free Energy=         0.125286
 Sum of electronic and zero-point Energies=           -422.961458
 Sum of electronic and thermal Energies=              -422.952854
 Sum of electronic and thermal Enthalpies=            -422.951910
 Sum of electronic and thermal Free Energies=         -422.994392

                     E (Thermal)             CV                S
                      KCal/Mol        Cal/Mol-Kelvin    Cal/Mol-Kelvin
 Total                  104.684             33.430             89.412
 Electronic               0.000              0.000              0.000
 Translational            0.889              2.981             40.409
 Rotational               0.889              2.981             28.798
 Vibrational            102.907             27.469             20.205
 Vibration     1          0.607              1.939              3.217
 Vibration     2          0.615              1.913              2.802
 Vibration     3          0.628              1.870              2.352
 Vibration     4          0.651              1.799              1.897
 Vibration     5          0.681              1.708              1.526
 Vibration     6          0.692              1.675              1.420
 Vibration     7          0.712              1.619              1.268
 Vibration     8          0.745              1.525              1.062
 Vibration     9          0.798              1.388              0.833
 Vibration    10          0.863              1.233              0.639
 Vibration    11          0.912              1.125              0.530
 Vibration    12          0.944              1.059              0.472

 Normal termination of Gaussian 09 at Mon Jan 27 22:48:12 2020.
