 Gaussian 09, Revision D.01,
 Gaussian 09:  ES64L-G09RevD.01 24-Apr-2013

 -----------------------------
 # b3lyp 6-31G(2df,p) opt Freq
 -----------------------------

 -----
 titel
 -----
 Symbolic Z-matrix:
 Charge =  0 Multiplicity = 1

 SCF Done:  E(RB3LYP) =  -423.148241467     A.U. after   13 cycles
 Optimization completed.
    -- Stationary point found.
 Normal termination of Gaussian 09 at Mon Jan 27 11:23:43 2020.

 ----------------------------------------------------------------------
 #N Geom=AllCheck Guess=TCheck SCRF=Check GenChk RB3LYP/6-31G(2df,p) Fr
 eq
 ----------------------------------------------------------------------

 Structure from the checkpoint file:  "/scratch/puck/g09_74362774-dc57-4ac2-a5a2-687898462d6a/Gau-22772.chk"
 -----
 titel
 -----
 Charge =  0 Multiplicity = 1

                         Standard orientation:
 ---------------------------------------------------------------------
 Center     Atomic      Atomic             Coordinates (Angstroms)
 Number     Number       Type             X           Y           Z
 ---------------------------------------------------------------------
      1          6           0        1.967213   -0.903395   -0.438178
      2          6           0        1.593976   -0.027839    0.735156
      3          8           0        1.401758    1.324100    0.302109
      4          6           0        0.277502    0.925954   -0.540713
      5          6           0       -1.066300    1.394577    0.022738
      6          6           0       -2.129435    0.303825   -0.190553
      7          6           0       -1.664304   -1.013919    0.430912
      8          8           0       -0.461448   -1.495679   -0.176330
      9          6           0        0.530522   -0.546457   -0.224838
     10          1           0        2.541776   -0.496490   -1.267224
     11          1           0        2.194200   -1.931673   -0.170421
     12          1           0        1.866250   -0.205463    1.768392
     13          1           0        0.425499    1.238902   -1.581407
     14          1           0       -0.933549    1.565199    1.096947
     15          1           0       -1.370838    2.346568   -0.422057
     16          1           0       -3.080805    0.602508    0.263042
     17          1           0       -2.315884    0.146769   -1.260322
     18          1           0       -1.503521   -0.881752    1.512715
     19          1           0       -2.400648   -1.808409    0.286957
 ---------------------------------------------------------------------

 SCF Done:  E(RB3LYP) =  -423.148241467     A.U. after    1 cycles

 The electronic state is 1-A.
 Alpha  occ. eigenvalues --  -19.15481 -19.13515 -10.23947 -10.23408 -10.23389
 Alpha  occ. eigenvalues --  -10.23265 -10.19118 -10.18639 -10.18582  -1.06106
 Alpha  occ. eigenvalues --   -1.03405  -0.82790  -0.79575  -0.72848  -0.64445
 Alpha  occ. eigenvalues --   -0.61217  -0.60043  -0.53714  -0.51533  -0.50048
 Alpha  occ. eigenvalues --   -0.47086  -0.45327  -0.43952  -0.42160  -0.39697
 Alpha  occ. eigenvalues --   -0.38561  -0.36820  -0.35915  -0.34686  -0.34367
 Alpha  occ. eigenvalues --   -0.32395  -0.27967  -0.25741  -0.21757
 Alpha virt. eigenvalues --    0.07650   0.09162   0.10745   0.12700   0.12861
 Alpha virt. eigenvalues --    0.13817   0.14363   0.15247   0.15915   0.16808
 Alpha virt. eigenvalues --    0.17768   0.17936   0.18838   0.19819   0.22517

 Mulliken charges:
               1
     1  C   -0.361830
     2  C   -0.006462
     3  O   -0.301595
     4  C    0.058752
     5  C   -0.230174
     6  C   -0.216345
     7  C   -0.075896
     8  O   -0.284327
     9  C    0.364190
    10  H    0.111969
    11  H    0.121484
    12  H    0.107029
    13  H    0.080827
    14  H    0.113827
    15  H    0.102124
    16  H    0.103422
    17  H    0.109297
    18  H    0.094380
    19  H    0.109327
 Sum of Mulliken charges =   0.00000

 Dipole moment (field-independent basis, Debye):
    X=             -1.5663    Y=             -0.3068    Z=              0.2094  Tot=              1.6097
 Quadrupole moment (field-independent basis, Debye-Ang):
   XX=            -51.0690   YY=            -56.9043   ZZ=            -51.1622
   XY=             -3.5558   XZ=             -0.5630   YZ=             -2.3989

  Exact polarizability:  86.315  -3.936  71.787  -0.400  -1.517  66.214
 Approx polarizability: 113.744  -1.212 106.560   2.499   1.507 104.487

                      1                      2                      3
                      A                      A                      A
 Frequencies --    144.4323               170.0900               308.9292
 Red. masses --      2.6993                 3.0463                 1.8571
 Frc consts  --      0.0332                 0.0519                 0.1044
 IR Inten    --      0.9894                 2.2833                 0.2568

                      4                      5                      6
                      A                      A                      A
 Frequencies --    386.2440               391.1138               443.7852
 Red. masses --      3.0380                 3.0937                 3.1764
 Frc consts  --      0.2670                 0.2788                 0.3686
 IR Inten    --      3.0231                 7.0821                 2.4490

                      7                      8                      9
                      A                      A                      A
 Frequencies --    464.7804               471.4817               568.6693
 Red. masses --      3.0358                 3.8722                 2.1659
 Frc consts  --      0.3864                 0.5072                 0.4127
 IR Inten    --      3.3673                 1.6018                 2.6857

                     10                     11                     12
                      A                      A                      A
 Frequencies --    645.9531               782.5722               818.3276
 Red. masses --      3.9436                 2.3196                 2.6716
 Frc consts  --      0.9695                 0.8370                 1.0541
 IR Inten    --      5.7600                 3.3791                 0.9193

                     13                     14                     15
                      A                      A                      A
 Frequencies --    850.4305               882.5545               909.2963
 Red. masses --      2.2199                 1.9948                 1.7932
 Frc consts  --      0.9459                 0.9154                 0.8735
 IR Inten    --      7.2130                 2.9663                 8.8584

                     16                     17                     18
                      A                      A                      A
 Frequencies --    914.7459               927.7719               970.5500
 Red. masses --      2.6005                 2.0631                 2.2249
 Frc consts  --      1.2821                 1.0463                 1.2348
 IR Inten    --      8.3636                 7.4859                17.3006

                     19                     20                     21
                      A                      A                      A
 Frequencies --    975.4485              1013.5277              1021.8464
 Red. masses --      1.9237                 1.8998                 2.5139
 Frc consts  --      1.0784                 1.1498                 1.5466
 IR Inten    --     22.7091                 9.3897                39.4461

                     22                     23                     24
                      A                      A                      A
 Frequencies --   1065.9518              1084.8960              1091.5936
 Red. masses --      2.2439                 2.7610                 1.6181
 Frc consts  --      1.5022                 1.9147                 1.1360
 IR Inten    --     16.2175                43.8228                15.9664

                     25                     26                     27
                      A                      A                      A
 Frequencies --   1124.0028              1133.3348              1199.3321
 Red. masses --      2.5345                 2.2900                 1.2952
 Frc consts  --      1.8866                 1.7330                 1.0976
 IR Inten    --     13.3072                18.5923                 3.4449

                     28                     29                     30
                      A                      A                      A
 Frequencies --   1207.3313              1218.3440              1271.2816
 Red. masses --      1.4604                 1.5050                 1.7323
 Frc consts  --      1.2543                 1.3162                 1.6495
 IR Inten    --      4.7231                 1.2717                33.4274

                     31                     32                     33
                      A                      A                      A
 Frequencies --   1291.7891              1313.6657              1347.2379
 Red. masses --      1.4715                 1.3720                 1.5929
 Frc consts  --      1.4468                 1.3950                 1.7035
 IR Inten    --     18.5107                12.6342                16.1260

                     34                     35                     36
                      A                      A                      A
 Frequencies --   1367.5965              1373.1348              1387.5940
 Red. masses --      1.4561                 1.6427                 1.6420
 Frc consts  --      1.6046                 1.8248                 1.8627
 IR Inten    --      2.4118                49.1617                20.0191

                     37                     38                     39
                      A                      A                      A
 Frequencies --   1422.4745              1477.7848              1478.9969
 Red. masses --      1.4283                 1.1256                 1.2893
 Frc consts  --      1.7028                 1.4482                 1.6616
 IR Inten    --     13.3175                10.5101                13.4161

                     40                     41                     42
                      A                      A                      A
 Frequencies --   1494.4821              1508.2418              2983.0368
 Red. masses --      1.1733                 1.2350                 1.0701
 Frc consts  --      1.5440                 1.6553                 5.6104
 IR Inten    --      9.0992                14.8851                45.6400

                     43                     44                     45
                      A                      A                      A
 Frequencies --   3031.4143              3033.3159              3044.5170
 Red. masses --      1.0639                 1.0823                 1.0610
 Frc consts  --      5.7604                 5.8674                 5.7942
 IR Inten    --     13.8289                46.0143                15.3900

                     46                     47                     48
                      A                      A                      A
 Frequencies --   3078.2542              3093.4372              3098.6238
 Red. masses --      1.1000                 1.1030                 1.0955
 Frc consts  --      6.1410                 6.2190                 6.1975
 IR Inten    --     32.7108                41.1656                35.8314

                     49                     50                     51
                      A                      A                      A
 Frequencies --   3104.1723              3188.3647              3202.1123
 Red. masses --      1.0549                 1.0962                 1.1124
 Frc consts  --      5.9890                 6.5656                 6.7202
 IR Inten    --     14.6959                10.4634                10.0833

 - Thermochemistry -
 -------------------
 Temperature   298.150 Kelvin.  Pressure   1.00000 Atm.
 Atom     1 has atomic number  6 and mass  12.00000

 Molecular mass:   126.06808 amu.
 Principal axes and moments of inertia in atomic units:
                           1         2         3
     Eigenvalues --   615.204851030.977401430.28819
           X            0.99836  -0.05650  -0.00928
           Y            0.05629   0.99818  -0.02168
           Z            0.01048   0.02113   0.99972
 This molecule is an asymmetric top.
 Rotational symmetry number  1.
 Warning -- assumption of classical behavior for rotation
           may cause significant error
 Rotational temperatures (Kelvin)      0.14079     0.08401     0.06056
 Rotational constants (GHZ):           2.93356     1.75051     1.26180
 Zero-point vibrational energy     423351.6 (Joules/Mol)
                                  101.18347 (Kcal/Mol)
 Warning -- explicit consideration of   9 degrees of freedom as
           vibrations may cause significant error
 Vibrational temperatures:    207.81   244.72   444.48   555.72   562.72
          (Kelvin)            638.51   668.71   678.36   818.19   929.38
                             1125.95  1177.39  1223.58  1269.80  1308.27
                             1316.11  1334.86  1396.40  1403.45  1458.24
                             1470.21  1533.66  1560.92  1570.56  1617.19
                             1630.61  1725.57  1737.08  1752.92  1829.09
                             1858.59  1890.07  1938.37  1967.66  1975.63
                             1996.44  2046.62  2126.20  2127.94  2150.22
                             2170.02  4291.92  4361.52  4364.26  4380.38
                             4428.92  4450.76  4458.22  4466.21  4587.34
                             4607.12

 Zero-point correction=                           0.161246 (Hartree/Particle)
 Thermal correction to Energy=                    0.168324
 Thermal correction to Enthalpy=                  0.169268
 Thermal correction to Gibbs Free Energy=         0.130012
 Sum of electronic and zero-point Energies=           -422.986995
 Sum of electronic and thermal Energies=              -422.979917
 Sum of electronic and thermal Enthalpies=            -422.978973
 Sum of electronic and thermal Free Energies=         -423.018229

                     E (Thermal)             CV                S
                      KCal/Mol        Cal/Mol-Kelvin    Cal/Mol-Kelvin
 Total                  105.625             29.145             82.621
 Electronic               0.000              0.000              0.000
 Translational            0.889              2.981             40.409
 Rotational               0.889              2.981             28.297
 Vibrational            103.847             23.184             13.916
 Vibration     1          0.616              1.909              2.744
 Vibration     2          0.625              1.879              2.434
 Vibration     3          0.698              1.657              1.368
 Vibration     4          0.755              1.500              1.015
 Vibration     5          0.759              1.489              0.996
 Vibration     6          0.803              1.375              0.815
 Vibration     7          0.822              1.328              0.752
 Vibration     8          0.828              1.313              0.733
 Vibration     9          0.925              1.099              0.507

 Optimization completed.
    -- Stationary point found.
 Normal termination of Gaussian 09 at Mon Jan 27 12:56:39 2020.
