 Gaussian 09, Revision D.01,
 Gaussian 09:  ES64L-G09RevD.01 24-Apr-2013

 -----------------------------
 # b3lyp 6-31G(2df,p) opt Freq
 -----------------------------

 -----
 titel
 -----
 Symbolic Z-matrix:
 Charge =  0 Multiplicity = 1

 SCF Done:  E(RB3LYP) =  -423.136983346     A.U. after   13 cycles
 Optimization completed.
    -- Stationary point found.
 Normal termination of Gaussian 09 at Mon Jan 27 12:05:29 2020.

 ----------------------------------------------------------------------
 #N Geom=AllCheck Guess=TCheck SCRF=Check GenChk RB3LYP/6-31G(2df,p) Fr
 eq
 ----------------------------------------------------------------------

 Structure from the checkpoint file:  "/scratch/puck/g09_bf1e4031-d1e5-42a2-94a1-145c03a45a0a/Gau-71338.chk"
 -----
 titel
 -----
 Charge =  0 Multiplicity = 1

                         Standard orientation:
 ---------------------------------------------------------------------
 Center     Atomic      Atomic             Coordinates (Angstroms)
 Number     Number       Type             X           Y           Z
 ---------------------------------------------------------------------
      1          6           0        2.463922    0.505512    0.504743
      2          8           0        2.338749   -0.723412   -0.212188
      3          6           0        1.428725    0.336390   -0.525139
      4          6           0       -0.006729    0.103908   -0.192807
      5          6           0       -0.493115   -0.597221    1.118657
      6          6           0       -1.786830   -0.717113    0.279305
      7          6           0       -0.885794   -0.950812   -0.953740
      8          8           0       -2.211536    0.649283    0.125539
      9          6           0       -0.971531    1.303241   -0.219017
     10          1           0        2.185557    0.461074    1.556392
     11          1           0        3.356140    1.089530    0.283286
     12          1           0        1.610404    0.793754   -1.500393
     13          1           0        0.015604   -1.546496    1.289235
     14          1           0       -0.550596   -0.003133    2.034235
     15          1           0       -2.638482   -1.339006    0.547793
     16          1           0       -0.413978   -1.933858   -0.978630
     17          1           0       -1.294651   -0.678994   -1.930011
     18          1           0       -1.052353    1.775658   -1.205759
     19          1           0       -0.727237    2.071071    0.525033
 ---------------------------------------------------------------------

 SCF Done:  E(RB3LYP) =  -423.136983346     A.U. after    1 cycles

 The electronic state is 1-A.
 Alpha  occ. eigenvalues --  -19.15388 -19.13373 -10.24261 -10.23761 -10.23681
 Alpha  occ. eigenvalues --  -10.22872 -10.20832 -10.18619 -10.18572  -1.07365
 Alpha  occ. eigenvalues --   -1.03983  -0.84085  -0.73941  -0.67537  -0.66979
 Alpha  occ. eigenvalues --   -0.64300  -0.57421  -0.55639  -0.52721  -0.49744
 Alpha  occ. eigenvalues --   -0.47831  -0.46429  -0.43041  -0.40334  -0.39692
 Alpha  occ. eigenvalues --   -0.38868  -0.36581  -0.36070  -0.34646  -0.33556
 Alpha  occ. eigenvalues --   -0.31006  -0.28890  -0.27055  -0.24156
 Alpha virt. eigenvalues --    0.08297   0.09219   0.09879   0.11247   0.11913
 Alpha virt. eigenvalues --    0.12363   0.13168   0.15314   0.15742   0.16454
 Alpha virt. eigenvalues --    0.17177   0.18562   0.19576   0.20293   0.20408

 Mulliken charges:
               1
     1  C   -0.179857
     2  O   -0.236083
     3  C   -0.070713
     4  C    0.306653
     5  C   -0.281618
     6  C    0.094670
     7  C   -0.274285
     8  O   -0.279690
     9  C   -0.115594
    10  H    0.115719
    11  H    0.116884
    12  H    0.090508
    13  H    0.117973
    14  H    0.098098
    15  H    0.082476
    16  H    0.115576
    17  H    0.099193
    18  H    0.099581
    19  H    0.100510
 Sum of Mulliken charges =   0.00000

 Dipole moment (field-independent basis, Debye):
    X=              0.7533    Y=              0.7544    Z=              0.1459  Tot=              1.0761
 Quadrupole moment (field-independent basis, Debye-Ang):
   XX=            -59.4013   YY=            -52.3233   ZZ=            -51.0143
   XY=              6.9966   XZ=              1.5824   YZ=             -1.0066

  Exact polarizability:  81.554   4.874  70.518   3.297  -0.542  71.006
 Approx polarizability: 110.958   1.925 108.924   4.591   0.207 107.751

                      1                      2                      3
                      A                      A                      A
 Frequencies --     65.5622               167.1363               176.7485
 Red. masses --      3.5792                 4.5097                 2.9685
 Frc consts  --      0.0091                 0.0742                 0.0546
 IR Inten    --      3.6325                 5.7349                 1.5391

                      4                      5                      6
                      A                      A                      A
 Frequencies --    329.2131               383.4908               439.1523
 Red. masses --      2.5988                 3.9683                 2.9378
 Frc consts  --      0.1659                 0.3438                 0.3338
 IR Inten    --      2.3603                 1.6406                 4.9416

                      7                      8                      9
                      A                      A                      A
 Frequencies --    484.2370               526.3512               628.5395
 Red. masses --      2.3641                 1.9541                 2.7224
 Frc consts  --      0.3266                 0.3190                 0.6337
 IR Inten    --      1.8148                 0.1547                 5.0656

                     10                     11                     12
                      A                      A                      A
 Frequencies --    670.0260               824.1074               854.1524
 Red. masses --      3.4970                 2.3228                 8.0468
 Frc consts  --      0.9250                 0.9294                 3.4590
 IR Inten    --      0.7318                 2.3910                18.9085

                     13                     14                     15
                      A                      A                      A
 Frequencies --    859.3744               888.0392               893.5035
 Red. masses --      3.7531                 1.9281                 2.9647
 Frc consts  --      1.6331                 0.8959                 1.3945
 IR Inten    --      1.4985                 5.3761                39.4985

                     16                     17                     18
                      A                      A                      A
 Frequencies --    915.6421               949.8922               955.8418
 Red. masses --      3.7606                 1.4985                 1.9284
 Frc consts  --      1.8576                 0.7966                 1.0380
 IR Inten    --     18.9580                 5.7287                 7.6363

                     19                     20                     21
                      A                      A                      A
 Frequencies --    990.6976              1009.2589              1015.5715
 Red. masses --      3.8695                 1.8080                 2.2165
 Frc consts  --      2.2376                 1.0850                 1.3469
 IR Inten    --     40.5314                 5.5990                14.8271

                     22                     23                     24
                      A                      A                      A
 Frequencies --   1032.1956              1093.8940              1116.5183
 Red. masses --      1.2210                 1.2135                 1.6744
 Frc consts  --      0.7665                 0.8555                 1.2298
 IR Inten    --      4.3906                 2.0079                 3.3913

                     25                     26                     27
                      A                      A                      A
 Frequencies --   1124.9404              1155.5426              1166.3365
 Red. masses --      1.6594                 1.4417                 1.5110
 Frc consts  --      1.2372                 1.1342                 1.2111
 IR Inten    --     10.4246                 0.6545                 0.9417

                     28                     29                     30
                      A                      A                      A
 Frequencies --   1172.6442              1199.4387              1212.1954
 Red. masses --      1.3799                 1.2313                 2.0281
 Frc consts  --      1.1179                 1.0437                 1.7559
 IR Inten    --      2.6229                 0.7969                10.7539

                     31                     32                     33
                      A                      A                      A
 Frequencies --   1227.2137              1238.4803              1262.7184
 Red. masses --      1.7050                 1.6793                 2.0045
 Frc consts  --      1.5130                 1.5176                 1.8831
 IR Inten    --      5.4500                 7.7737                 6.8790

                     34                     35                     36
                      A                      A                      A
 Frequencies --   1293.4717              1310.7277              1377.1911
 Red. masses --      1.5350                 1.5861                 1.5236
 Frc consts  --      1.5131                 1.6055                 1.7026
 IR Inten    --     10.1607                15.9803                 0.2528

                     37                     38                     39
                      A                      A                      A
 Frequencies --   1444.8814              1472.2636              1506.8383
 Red. masses --      2.0402                 1.1029                 1.1428
 Frc consts  --      2.5095                 1.4085                 1.5288
 IR Inten    --      8.3756                 2.4327                 3.0003

                     40                     41                     42
                      A                      A                      A
 Frequencies --   1526.1342              1530.8037              3015.9257
 Red. masses --      1.3795                 1.1172                 1.0552
 Frc consts  --      1.8930                 1.5425                 5.6552
 IR Inten    --      3.3106                 0.7367                58.5931

                     43                     44                     45
                      A                      A                      A
 Frequencies --   3056.0326              3066.1988              3071.0627
 Red. masses --      1.1089                 1.0586                 1.0596
 Frc consts  --      6.1015                 5.8641                 5.8878
 IR Inten    --     18.1647                54.5219                 1.7672

                     46                     47                     48
                      A                      A                      A
 Frequencies --   3081.8372              3087.0669              3140.2080
 Red. masses --      1.0698                 1.0663                 1.1096
 Frc consts  --      5.9866                 5.9872                 6.4465
 IR Inten    --     35.5245                25.0838                10.3240

                     49                     50                     51
                      A                      A                      A
 Frequencies --   3143.9176              3147.9826              3172.3626
 Red. masses --      1.0976                 1.1014                 1.1196
 Frc consts  --      6.3919                 6.4307                 6.6385
 IR Inten    --     32.0536                33.6142                25.8640

 - Thermochemistry -
 -------------------
 Temperature   298.150 Kelvin.  Pressure   1.00000 Atm.
 Atom     1 has atomic number  6 and mass  12.00000

 Molecular mass:   126.06808 amu.
 Principal axes and moments of inertia in atomic units:
                           1         2         3
     Eigenvalues --   470.385001455.113171549.98080
           X            0.99956   0.02815   0.00981
           Y           -0.02790   0.99930  -0.02477
           Z           -0.01050   0.02448   0.99965
 This molecule is an asymmetric top.
 Rotational symmetry number  1.
 Warning -- assumption of classical behavior for rotation
           may cause significant error
 Rotational temperatures (Kelvin)      0.18413     0.05952     0.05588
 Rotational constants (GHZ):           3.83673     1.24028     1.16436
 Zero-point vibrational energy     421525.5 (Joules/Mol)
                                  100.74701 (Kcal/Mol)
 Warning -- explicit consideration of   8 degrees of freedom as
           vibrations may cause significant error
 Vibrational temperatures:     94.33   240.47   254.30   473.66   551.76
          (Kelvin)            631.84   696.71   757.30   904.33   964.02
                             1185.71  1228.93  1236.45  1277.69  1285.55
                             1317.40  1366.68  1375.24  1425.39  1452.10
                             1461.18  1485.10  1573.87  1606.42  1618.54
                             1662.57  1678.10  1687.17  1725.72  1744.08
                             1765.68  1781.89  1816.77  1861.01  1885.84
                             1981.47  2078.86  2118.26  2168.00  2195.76
                             2202.48  4339.24  4396.94  4411.57  4418.57
                             4434.07  4441.60  4518.05  4523.39  4529.24
                             4564.32

 Zero-point correction=                           0.160551 (Hartree/Particle)
 Thermal correction to Energy=                    0.167944
 Thermal correction to Enthalpy=                  0.168888
 Thermal correction to Gibbs Free Energy=         0.128360
 Sum of electronic and zero-point Energies=           -422.976433
 Sum of electronic and thermal Energies=              -422.969039
 Sum of electronic and thermal Enthalpies=            -422.968095
 Sum of electronic and thermal Free Energies=         -423.008623

                     E (Thermal)             CV                S
                      KCal/Mol        Cal/Mol-Kelvin    Cal/Mol-Kelvin
 Total                  105.387             29.320             85.298
 Electronic               0.000              0.000              0.000
 Translational            0.889              2.981             40.409
 Rotational               0.889              2.981             28.452
 Vibrational            103.609             23.358             16.437
 Vibration     1          0.597              1.971              4.282
 Vibration     2          0.624              1.883              2.467
 Vibration     3          0.628              1.871              2.362
 Vibration     4          0.712              1.617              1.264
 Vibration     5          0.753              1.505              1.025
 Vibration     6          0.799              1.385              0.829
 Vibration     7          0.840              1.285              0.699
 Vibration     8          0.881              1.192              0.595

 Optimization completed.
    -- Stationary point found.
 Normal termination of Gaussian 09 at Mon Jan 27 12:50:13 2020.
