 Gaussian 09, Revision D.01,
 Gaussian 09:  ES64L-G09RevD.01 24-Apr-2013

 -----------------------------
 # b3lyp 6-31G(2df,p) opt Freq
 -----------------------------

 -----
 titel
 -----
 Symbolic Z-matrix:
 Charge =  0 Multiplicity = 1

 SCF Done:  E(RB3LYP) =  -423.229463508     A.U. after   14 cycles
 Optimization completed.
    -- Stationary point found.
 Normal termination of Gaussian 09 at Mon Jan 27 18:29:42 2020.

 ----------------------------------------------------------------------
 #N Geom=AllCheck Guess=TCheck SCRF=Check GenChk RB3LYP/6-31G(2df,p) Fr
 eq
 ----------------------------------------------------------------------

 Structure from the checkpoint file:  "/scratch/puck/g09_e66e7323-2d9a-48cc-a4a8-605eec125ff2/Gau-149948.chk"
 -----
 titel
 -----
 Charge =  0 Multiplicity = 1

                         Standard orientation:
 ---------------------------------------------------------------------
 Center     Atomic      Atomic             Coordinates (Angstroms)
 Number     Number       Type             X           Y           Z
 ---------------------------------------------------------------------
      1          8           0        2.280717   -0.875423    0.151393
      2          6           0        1.012179   -0.289427   -0.004230
      3          6           0        0.962981    0.981280   -0.890966
      4          6           0       -0.339526    1.693603   -0.416261
      5          6           0       -0.878360    0.754017    0.709009
      6          6           0        0.435505    0.235540    1.327186
      7          6           0       -1.381621   -0.492319   -0.019593
      8          8           0       -2.521966   -0.812293   -0.227403
      9          6           0       -0.113145   -1.245749   -0.463149
     10          1           0        2.583024   -1.178555   -0.711203
     11          1           0        1.851387    1.588542   -0.698373
     12          1           0        0.949189    0.739077   -1.958469
     13          1           0       -0.119221    2.676467    0.008532
     14          1           0       -1.070735    1.839779   -1.215286
     15          1           0       -1.622919    1.207789    1.361067
     16          1           0        1.051254    1.026849    1.763303
     17          1           0        0.296232   -0.558971    2.065808
     18          1           0       -0.044445   -2.197338    0.076352
     19          1           0       -0.131857   -1.463577   -1.535619
 ---------------------------------------------------------------------

 SCF Done:  E(RB3LYP) =  -423.229463508     A.U. after    1 cycles

 The electronic state is 1-A.
 Alpha  occ. eigenvalues --  -19.14558 -19.12822 -10.26552 -10.24592 -10.19759
 Alpha  occ. eigenvalues --  -10.19612 -10.18895 -10.18889 -10.18824  -1.03962
 Alpha  occ. eigenvalues --   -1.03084  -0.87475  -0.74804  -0.72352  -0.69515
 Alpha  occ. eigenvalues --   -0.60146  -0.57224  -0.52955  -0.51903  -0.48895
 Alpha  occ. eigenvalues --   -0.46948  -0.44068  -0.41878  -0.40819  -0.40024
 Alpha  occ. eigenvalues --   -0.38282  -0.38023  -0.37237  -0.35633  -0.34583
 Alpha  occ. eigenvalues --   -0.32952  -0.30975  -0.27349  -0.23515
 Alpha virt. eigenvalues --   -0.01239   0.06421   0.08047   0.11093   0.13599
 Alpha virt. eigenvalues --    0.14479   0.14775   0.15964   0.16440   0.16888
 Alpha virt. eigenvalues --    0.17563   0.18456   0.19709   0.21621   0.22310

 Mulliken charges:
               1
     1  O   -0.497404
     2  C    0.415183
     3  C   -0.264822
     4  C   -0.227866
     5  C   -0.122663
     6  C   -0.265658
     7  C    0.425808
     8  O   -0.330039
     9  C   -0.388690
    10  H    0.277745
    11  H    0.108465
    12  H    0.094077
    13  H    0.112614
    14  H    0.116771
    15  H    0.082996
    16  H    0.106511
    17  H    0.108456
    18  H    0.133390
    19  H    0.115127
 Sum of Mulliken charges =   0.00000

 Dipole moment (field-independent basis, Debye):
    X=              2.1864    Y=              1.0202    Z=             -0.8082  Tot=              2.5445
 Quadrupole moment (field-independent basis, Debye-Ang):
   XX=            -63.4088   YY=            -51.3019   ZZ=            -50.4445
   XY=             -3.1718   XZ=             -4.8356   YZ=              1.5739

  Exact polarizability:  79.771   0.348  74.115  -1.017   2.023  67.914
 Approx polarizability: 119.848   2.649 106.213   1.565   3.297 102.793

                      1                      2                      3
                      A                      A                      A
 Frequencies --    109.6870               223.3763               258.9975
 Red. masses --      4.0973                 2.0067                 1.1103
 Frc consts  --      0.0290                 0.0590                 0.0439
 IR Inten    --      5.7309                 0.6432                68.2216

                      4                      5                      6
                      A                      A                      A
 Frequencies --    301.8545               335.9027               410.6741
 Red. masses --      3.1880                 3.7552                 2.3550
 Frc consts  --      0.1711                 0.2496                 0.2340
 IR Inten    --     10.3168                25.9251                 7.0570

                      7                      8                      9
                      A                      A                      A
 Frequencies --    450.2755               480.5582               509.7848
 Red. masses --      2.4380                 3.6408                 3.3140
 Frc consts  --      0.2912                 0.4954                 0.5074
 IR Inten    --      1.2719                 4.3086                 3.7206

                     10                     11                     12
                      A                      A                      A
 Frequencies --    574.2535               614.0571               686.0140
 Red. masses --      4.1779                 2.9253                 3.8647
 Frc consts  --      0.8117                 0.6499                 1.0716
 IR Inten    --      4.3527                 3.3820                 2.5642

                     13                     14                     15
                      A                      A                      A
 Frequencies --    782.3572               797.8467               837.8711
 Red. masses --      2.7494                 2.5175                 1.5905
 Frc consts  --      0.9915                 0.9442                 0.6579
 IR Inten    --      2.3788                 3.9269                 0.1300

                     16                     17                     18
                      A                      A                      A
 Frequencies --    884.1862               915.6423               933.1210
 Red. masses --      2.8205                 1.8635                 1.9660
 Frc consts  --      1.2992                 0.9205                 1.0086
 IR Inten    --      0.1141                 0.5902                 2.2577

                     19                     20                     21
                      A                      A                      A
 Frequencies --    945.6246               982.6780               996.6029
 Red. masses --      2.0779                 2.2853                 2.2575
 Frc consts  --      1.0948                 1.3002                 1.3211
 IR Inten    --      8.3877                 5.0517                 4.8051

                     22                     23                     24
                      A                      A                      A
 Frequencies --   1035.7232              1058.5549              1082.7290
 Red. masses --      1.3653                 2.0653                 1.3995
 Frc consts  --      0.8629                 1.3635                 0.9666
 IR Inten    --      2.2364                20.8225                20.8978

                     25                     26                     27
                      A                      A                      A
 Frequencies --   1139.7780              1160.6561              1184.7964
 Red. masses --      2.0707                 1.6948                 1.5955
 Frc consts  --      1.5850                 1.3451                 1.3196
 IR Inten    --     66.8875                30.0802                 5.2156

                     28                     29                     30
                      A                      A                      A
 Frequencies --   1201.7652              1225.4794              1248.5086
 Red. masses --      1.5176                 1.3159                 2.0120
 Frc consts  --      1.2914                 1.1643                 1.8478
 IR Inten    --      1.4016                 5.1034                37.7583

                     31                     32                     33
                      A                      A                      A
 Frequencies --   1256.9368              1274.9740              1304.3186
 Red. masses --      1.4177                 1.7340                 1.5754
 Frc consts  --      1.3197                 1.6608                 1.5791
 IR Inten    --      9.1872                 6.2886                 7.8643

                     34                     35                     36
                      A                      A                      A
 Frequencies --   1310.6786              1340.3033              1392.2857
 Red. masses --      1.6806                 1.6957                 1.7879
 Frc consts  --      1.7010                 1.7947                 2.0419
 IR Inten    --     62.8537                29.0128                 5.0560

                     37                     38                     39
                      A                      A                      A
 Frequencies --   1448.9899              1492.6229              1495.6146
 Red. masses --      1.1003                 1.0782                 1.0998
 Frc consts  --      1.3611                 1.4153                 1.4494
 IR Inten    --      5.9774                 0.7362                 4.5062

                     40                     41                     42
                      A                      A                      A
 Frequencies --   1520.2235              1856.0525              3045.2605
 Red. masses --      1.1140                12.4045                 1.0593
 Frc consts  --      1.5168                25.1774                 5.7876
 IR Inten    --      1.6167               239.4901                 9.3122

                     43                     44                     45
                      A                      A                      A
 Frequencies --   3048.7297              3059.2045              3063.5317
 Red. masses --      1.0599                 1.0580                 1.0614
 Frc consts  --      5.8041                 5.8339                 5.8690
 IR Inten    --     32.5240                27.2661                19.1987

                     46                     47                     48
                      A                      A                      A
 Frequencies --   3091.1600              3095.4968              3110.4265
 Red. masses --      1.1048                 1.1038                 1.1068
 Frc consts  --      6.2201                 6.2314                 6.3088
 IR Inten    --      2.5375                 8.5752                16.0470

                     49                     50                     51
                      A                      A                      A
 Frequencies --   3113.1880              3134.0575              3809.3686
 Red. masses --      1.1070                 1.0893                 1.0661
 Frc consts  --      6.3215                 6.3038                 9.1146
 IR Inten    --     38.1170                19.0516                20.0835

 - Thermochemistry -
 -------------------
 Temperature   298.150 Kelvin.  Pressure   1.00000 Atm.
 Atom     1 has atomic number  8 and mass  15.99491

 Molecular mass:   126.06808 amu.
 Principal axes and moments of inertia in atomic units:
                           1         2         3
     Eigenvalues --   657.762881146.215111371.69636
           X            0.99973  -0.01679  -0.01623
           Y            0.01691   0.99983   0.00725
           Z            0.01611  -0.00752   0.99984
 This molecule is an asymmetric top.
 Rotational symmetry number  1.
 Warning -- assumption of classical behavior for rotation
           may cause significant error
 Rotational temperatures (Kelvin)      0.13168     0.07557     0.06314
 Rotational constants (GHZ):           2.74376     1.57452     1.31570
 Zero-point vibrational energy     422477.8 (Joules/Mol)
                                  100.97463 (Kcal/Mol)
 Warning -- explicit consideration of  11 degrees of freedom as
           vibrations may cause significant error
 Vibrational temperatures:    157.81   321.39   372.64   434.30   483.29
          (Kelvin)            590.87   647.85   691.42   733.47   826.22
                              883.49   987.02  1125.64  1147.92  1205.51
                             1272.15  1317.40  1342.55  1360.54  1413.85
                             1433.89  1490.17  1523.02  1557.80  1639.88
                             1669.92  1704.66  1729.07  1763.19  1796.32
                             1808.45  1834.40  1876.62  1885.77  1928.40
                             2003.19  2084.77  2147.55  2151.85  2187.26
                             2670.44  4381.45  4386.44  4401.51  4407.73
                             4447.48  4453.72  4475.20  4479.18  4509.20
                             5480.82

 Zero-point correction=                           0.160913 (Hartree/Particle)
 Thermal correction to Energy=                    0.168508
 Thermal correction to Enthalpy=                  0.169452
 Thermal correction to Gibbs Free Energy=         0.129223
 Sum of electronic and zero-point Energies=           -423.068550
 Sum of electronic and thermal Energies=              -423.060956
 Sum of electronic and thermal Enthalpies=            -423.060012
 Sum of electronic and thermal Free Energies=         -423.100240

                     E (Thermal)             CV                S
                      KCal/Mol        Cal/Mol-Kelvin    Cal/Mol-Kelvin
 Total                  105.740             31.012             84.668
 Electronic               0.000              0.000              0.000
 Translational            0.889              2.981             40.409
 Rotational               0.889              2.981             28.427
 Vibrational            103.963             25.050             15.833
 Vibration     1          0.606              1.941              3.274
 Vibration     2          0.649              1.805              1.932
 Vibration     3          0.668              1.748              1.669
 Vibration     4          0.694              1.670              1.407
 Vibration     5          0.717              1.604              1.232
 Vibration     6          0.775              1.447              0.924
 Vibration     7          0.809              1.360              0.795
 Vibration     8          0.837              1.293              0.709
 Vibration     9          0.865              1.228              0.634
 Vibration    10          0.931              1.087              0.496
 Vibration    11          0.973              1.002              0.426

 Optimization completed.
    -- Stationary point found.
 Normal termination of Gaussian 09 at Mon Jan 27 19:24:49 2020.
