 Gaussian 09, Revision D.01,
 Gaussian 09:  ES64L-G09RevD.01 24-Apr-2013

 -----------------------------
 # b3lyp 6-31G(2df,p) opt Freq
 -----------------------------

 -----
 titel
 -----
 Symbolic Z-matrix:
 Charge =  0 Multiplicity = 1

 SCF Done:  E(RB3LYP) =  -423.154613210     A.U. after   14 cycles
 Optimization completed.
    -- Stationary point found.
 Normal termination of Gaussian 09 at Mon Jan 27 23:03:52 2020.

 ----------------------------------------------------------------------
 #N Geom=AllCheck Guess=TCheck SCRF=Check GenChk RB3LYP/6-31G(2df,p) Fr
 eq
 ----------------------------------------------------------------------

 Structure from the checkpoint file:  "/scratch/puck/g09_b88c9321-22fc-4c01-a620-f29feb6da810/Gau-182271.chk"
 -----
 titel
 -----
 Charge =  0 Multiplicity = 1

                         Standard orientation:
 ---------------------------------------------------------------------
 Center     Atomic      Atomic             Coordinates (Angstroms)
 Number     Number       Type             X           Y           Z
 ---------------------------------------------------------------------
      1          6           0        2.608997   -0.645092    0.038785
      2          6           0        1.426916    0.295392   -0.021488
      3          8           0        1.555384    1.505291   -0.047175
      4          6           0        0.046908   -0.286166   -0.030070
      5          6           0       -0.561865   -1.561718   -0.681209
      6          6           0       -1.757109   -0.838853    0.013730
      7          6           0       -0.822686   -0.621166    1.238247
      8          6           0       -1.191249    0.481213   -0.577561
      9          8           0       -1.550677    1.683901    0.038890
     10          1           0        2.631897   -1.268859   -0.862395
     11          1           0        3.538327   -0.079906    0.119747
     12          1           0        2.508086   -1.327355    0.890348
     13          1           0       -0.568958   -1.597406   -1.774620
     14          1           0       -0.268996   -2.520563   -0.248798
     15          1           0       -2.797514   -1.163035    0.027533
     16          1           0       -1.057525    0.221910    1.885419
     17          1           0       -0.530308   -1.513574    1.797200
     18          1           0       -1.233730    0.557139   -1.673393
     19          1           0       -0.758411    2.236453    0.022635
 ---------------------------------------------------------------------

 SCF Done:  E(RB3LYP) =  -423.154613210     A.U. after    1 cycles

 The electronic state is 1-A.
 Alpha  occ. eigenvalues --  -19.13809 -19.13134 -10.27633 -10.23664 -10.21037
 Alpha  occ. eigenvalues --  -10.20667 -10.20076 -10.19661 -10.19483  -1.04669
 Alpha  occ. eigenvalues --   -1.02090  -0.91229  -0.75681  -0.67704  -0.66399
 Alpha  occ. eigenvalues --   -0.65781  -0.55947  -0.54651  -0.49920  -0.48572
 Alpha  occ. eigenvalues --   -0.47155  -0.44790  -0.44166  -0.41684  -0.40799
 Alpha  occ. eigenvalues --   -0.37927  -0.37152  -0.34736  -0.34358  -0.33283
 Alpha  occ. eigenvalues --   -0.32621  -0.29990  -0.26594  -0.24707
 Alpha virt. eigenvalues --   -0.02693   0.08728   0.10341   0.11118   0.12643
 Alpha virt. eigenvalues --    0.13940   0.14374   0.15027   0.15498   0.16207
 Alpha virt. eigenvalues --    0.16406   0.18066   0.18699   0.20047   0.21982

 Mulliken charges:
               1
     1  C   -0.490062
     2  C    0.250510
     3  O   -0.317014
     4  C    0.210394
     5  C   -0.292500
     6  C   -0.088688
     7  C   -0.256882
     8  C    0.150828
     9  O   -0.454492
    10  H    0.146695
    11  H    0.143647
    12  H    0.142616
    13  H    0.098938
    14  H    0.100242
    15  H    0.082060
    16  H    0.123180
    17  H    0.091143
    18  H    0.063984
    19  H    0.295399
 Sum of Mulliken charges =   0.00000

 Dipole moment (field-independent basis, Debye):
    X=              1.0062    Y=             -2.8419    Z=             -0.2199  Tot=              3.0228
 Quadrupole moment (field-independent basis, Debye-Ang):
   XX=            -55.1101   YY=            -55.4611   ZZ=            -51.7143
   XY=             -1.0416   XZ=              0.5852   YZ=             -0.2798

  Exact polarizability:  82.186   0.634  79.880  -0.108   0.107  66.418
 Approx polarizability: 110.920   2.978 126.961  -1.336  -0.095 102.054

                      1                      2                      3
                      A                      A                      A
 Frequencies --     38.0326               122.0175               129.3235
 Red. masses --      4.1447                 1.1632                 3.1955
 Frc consts  --      0.0035                 0.0102                 0.0315
 IR Inten    --      1.4836                 1.5838                 7.4534

                      4                      5                      6
                      A                      A                      A
 Frequencies --    185.4952               271.1539               331.8822
 Red. masses --      3.4320                 3.0375                 3.8796
 Frc consts  --      0.0696                 0.1316                 0.2518
 IR Inten    --      0.8851                 9.7381                 3.5512

                      7                      8                      9
                      A                      A                      A
 Frequencies --    400.1383               432.1815               475.6530
 Red. masses --      2.6145                 2.0059                 1.9472
 Frc consts  --      0.2466                 0.2207                 0.2596
 IR Inten    --     20.2099                61.4227                33.5734

                     10                     11                     12
                      A                      A                      A
 Frequencies --    522.1109               585.3039               616.6486
 Red. masses --      2.1378                 2.4584                 3.2128
 Frc consts  --      0.3434                 0.4962                 0.7198
 IR Inten    --      1.4515                 0.8412                11.6363

                     13                     14                     15
                      A                      A                      A
 Frequencies --    649.6557               795.3501               810.4253
 Red. masses --      3.2731                 2.8709                 3.0395
 Frc consts  --      0.8139                 1.0700                 1.1762
 IR Inten    --      3.0870                 4.1428                 2.8105

                     16                     17                     18
                      A                      A                      A
 Frequencies --    891.8680               913.3777               920.8688
 Red. masses --      2.9164                 2.8111                 1.9658
 Frc consts  --      1.3668                 1.3817                 0.9822
 IR Inten    --      4.8224                 5.2766                 1.7745

                     19                     20                     21
                      A                      A                      A
 Frequencies --    958.7017               990.0637              1019.6639
 Red. masses --      2.0451                 1.6229                 1.5717
 Frc consts  --      1.1075                 0.9373                 0.9628
 IR Inten    --      1.3730                10.9235                10.8619

                     22                     23                     24
                      A                      A                      A
 Frequencies --   1031.9574              1058.7995              1082.8356
 Red. masses --      1.2550                 1.6068                 1.6300
 Frc consts  --      0.7875                 1.0613                 1.1261
 IR Inten    --      3.0752                 5.7183                 5.5667

                     25                     26                     27
                      A                      A                      A
 Frequencies --   1129.5254              1138.9027              1156.4364
 Red. masses --      2.6979                 1.2931                 1.7473
 Frc consts  --      2.0280                 0.9882                 1.3768
 IR Inten    --     54.4189                 7.4562                 5.8504

                     28                     29                     30
                      A                      A                      A
 Frequencies --   1164.5017              1174.8113              1214.8087
 Red. masses --      1.7686                 3.1584                 1.5742
 Frc consts  --      1.4130                 2.5684                 1.3687
 IR Inten    --      4.6135                73.3160                 2.0244

                     31                     32                     33
                      A                      A                      A
 Frequencies --   1231.4836              1247.5495              1331.7415
 Red. masses --      1.5316                 1.8653                 2.5172
 Frc consts  --      1.3685                 1.7105                 2.6304
 IR Inten    --     42.1154                16.8379                42.1456

                     34                     35                     36
                      A                      A                      A
 Frequencies --   1356.8037              1385.6110              1415.9716
 Red. masses --      1.4529                 1.5431                 1.3012
 Frc consts  --      1.5758                 1.7455                 1.5371
 IR Inten    --     66.8751                68.4980                 0.7101

                     37                     38                     39
                      A                      A                      A
 Frequencies --   1458.7664              1470.3048              1487.1899
 Red. masses --      1.0572                 1.0494                 1.0952
 Frc consts  --      1.3254                 1.3367                 1.4272
 IR Inten    --     10.1587                 9.1044                 0.7629

                     40                     41                     42
                      A                      A                      A
 Frequencies --   1526.6895              1772.5357              3002.1798
 Red. masses --      1.1758                10.7131                 1.0841
 Frc consts  --      1.6147                19.8315                 5.7567
 IR Inten    --      7.4948               142.7037                62.6572

                     43                     44                     45
                      A                      A                      A
 Frequencies --   3035.3392              3054.4067              3068.8953
 Red. masses --      1.0366                 1.0553                 1.0592
 Frc consts  --      5.6267                 5.8007                 5.8773
 IR Inten    --      1.3197                41.6030                32.0104

                     46                     47                     48
                      A                      A                      A
 Frequencies --   3095.5427              3117.0824              3123.7598
 Red. masses --      1.0977                 1.0930                 1.1091
 Frc consts  --      6.1972                 6.2571                 6.3763
 IR Inten    --      5.8570                57.2501                31.1918

                     49                     50                     51
                      A                      A                      A
 Frequencies --   3151.6368              3162.5899              3772.2747
 Red. masses --      1.1023                 1.1058                 1.0656
 Frc consts  --      6.4511                 6.5165                 8.9340
 IR Inten    --     10.5810                13.8488                56.2864

 - Thermochemistry -
 -------------------
 Temperature   298.150 Kelvin.  Pressure   1.00000 Atm.
 Atom     1 has atomic number  6 and mass  12.00000

 Molecular mass:   126.06808 amu.
 Principal axes and moments of inertia in atomic units:
                           1         2         3
     Eigenvalues --   704.496141177.256641578.02560
           X            0.99955  -0.03001   0.00196
           Y            0.03001   0.99955   0.00117
           Z           -0.00200  -0.00111   1.00000
 This molecule is an asymmetric top.
 Rotational symmetry number  1.
 Warning -- assumption of classical behavior for rotation
           may cause significant error
 Rotational temperatures (Kelvin)      0.12294     0.07357     0.05489
 Rotational constants (GHZ):           2.56175     1.53301     1.14367
 Zero-point vibrational energy     415587.8 (Joules/Mol)
                                   99.32786 (Kcal/Mol)
 Warning -- explicit consideration of  12 degrees of freedom as
           vibrations may cause significant error
 Vibrational temperatures:     54.72   175.56   186.07   266.89   390.13
          (Kelvin)            477.50   575.71   621.81   684.36   751.20
                              842.12   887.22   934.71  1144.33  1166.02
                             1283.20  1314.15  1324.92  1379.36  1424.48
                             1467.07  1484.75  1523.37  1557.96  1625.13
                             1638.62  1663.85  1675.46  1690.29  1747.84
                             1771.83  1794.94  1916.08  1952.14  1993.58
                             2037.26  2098.84  2115.44  2139.73  2196.56
                             2550.28  4319.46  4367.17  4394.60  4415.45
                             4453.79  4484.78  4494.39  4534.50  4550.26
                             5427.46

 Zero-point correction=                           0.158289 (Hartree/Particle)
 Thermal correction to Energy=                    0.166990
 Thermal correction to Enthalpy=                  0.167934
 Thermal correction to Gibbs Free Energy=         0.124315
 Sum of electronic and zero-point Energies=           -422.996324
 Sum of electronic and thermal Energies=              -422.987623
 Sum of electronic and thermal Enthalpies=            -422.986679
 Sum of electronic and thermal Free Energies=         -423.030298

                     E (Thermal)             CV                S
                      KCal/Mol        Cal/Mol-Kelvin    Cal/Mol-Kelvin
 Total                  104.788             32.801             91.803
 Electronic               0.000              0.000              0.000
 Translational            0.889              2.981             40.409
 Rotational               0.889              2.981             28.661
 Vibrational            103.010             26.839             22.734
 Vibration     1          0.594              1.982              5.359
 Vibration     2          0.610              1.931              3.068
 Vibration     3          0.612              1.924              2.956
 Vibration     4          0.632              1.860              2.272
 Vibration     5          0.675              1.726              1.589
 Vibration     6          0.714              1.612              1.251
 Vibration     7          0.766              1.470              0.962
 Vibration     8          0.793              1.400              0.852
 Vibration     9          0.832              1.304              0.722
 Vibration    10          0.877              1.201              0.605
 Vibration    11          0.942              1.063              0.476
 Vibration    12          0.976              0.997              0.422

 Normal termination of Gaussian 09 at Mon Jan 27 23:50:29 2020.
