 Gaussian 09, Revision D.01,
 Gaussian 09:  ES64L-G09RevD.01 24-Apr-2013

 -----------------------------
 # b3lyp 6-31G(2df,p) opt Freq
 -----------------------------

 -----
 titel
 -----
 Symbolic Z-matrix:
 Charge =  0 Multiplicity = 1

 SCF Done:  E(RB3LYP) =  -423.158701997     A.U. after   14 cycles
 Optimization completed.
    -- Stationary point found.
 Normal termination of Gaussian 09 at Mon Jan 27 22:00:49 2020.

 ----------------------------------------------------------------------
 #N Geom=AllCheck Guess=TCheck SCRF=Check GenChk RB3LYP/6-31G(2df,p) Fr
 eq
 ----------------------------------------------------------------------

 Structure from the checkpoint file:  "/scratch/puck/g09_37859214-aafd-4697-a247-50f17ead5f30/Gau-179208.chk"
 -----
 titel
 -----
 Charge =  0 Multiplicity = 1

                         Standard orientation:
 ---------------------------------------------------------------------
 Center     Atomic      Atomic             Coordinates (Angstroms)
 Number     Number       Type             X           Y           Z
 ---------------------------------------------------------------------
      1          6           0       -0.225325    2.207193   -0.005787
      2          6           0       -0.009436    0.759514    0.403354
      3          6           0        0.923796   -0.106648   -0.499654
      4          8           0       -0.114028   -1.083880   -0.706119
      5          6           0       -1.056802   -0.289244    0.022241
      6          6           0       -2.154857   -0.910484    0.812808
      7          6           0       -2.461262   -0.116683   -0.452978
      8          6           0        2.133112   -0.684643    0.199322
      9          8           0        3.223787   -0.175592    0.181582
     10          1           0        0.689672    2.790048    0.139358
     11          1           0       -0.515109    2.280794   -1.058417
     12          1           0       -1.013658    2.670980    0.596686
     13          1           0        0.269385    0.697838    1.460580
     14          1           0        1.229666    0.388636   -1.428904
     15          1           0       -2.249302   -1.989857    0.759880
     16          1           0       -2.413489   -0.477622    1.774182
     17          1           0       -2.753563   -0.677172   -1.334461
     18          1           0       -2.932249    0.856160   -0.355312
     19          1           0        1.915214   -1.618059    0.766860
 ---------------------------------------------------------------------

 SCF Done:  E(RB3LYP) =  -423.158701997     A.U. after    1 cycles

 The electronic state is 1-A.
 Alpha  occ. eigenvalues --  -19.14946 -19.14497 -10.27222 -10.24937 -10.24569
 Alpha  occ. eigenvalues --  -10.21321 -10.19179 -10.19151 -10.19128  -1.06136
 Alpha  occ. eigenvalues --   -1.04803  -0.85644  -0.79167  -0.71099  -0.65744
 Alpha  occ. eigenvalues --   -0.61423  -0.58302  -0.53995  -0.51198  -0.49983
 Alpha  occ. eigenvalues --   -0.47027  -0.46002  -0.43394  -0.42408  -0.41363
 Alpha  occ. eigenvalues --   -0.39637  -0.38229  -0.37834  -0.35788  -0.34736
 Alpha  occ. eigenvalues --   -0.31462  -0.29709  -0.26097  -0.23800
 Alpha virt. eigenvalues --   -0.03315   0.07760   0.08530   0.10356   0.11103
 Alpha virt. eigenvalues --    0.12252   0.13593   0.14533   0.14874   0.15720
 Alpha virt. eigenvalues --    0.16170   0.17370   0.18511   0.21904   0.22639

 Mulliken charges:
               1
     1  C   -0.412639
     2  C   -0.147514
     3  C    0.043701
     4  O   -0.321472
     5  C    0.464882
     6  C   -0.336149
     7  C   -0.335586
     8  C    0.129487
     9  O   -0.244642
    10  H    0.133402
    11  H    0.127426
    12  H    0.122674
    13  H    0.093519
    14  H    0.102119
    15  H    0.128359
    16  H    0.117337
    17  H    0.128934
    18  H    0.117786
    19  H    0.088376
 Sum of Mulliken charges =   0.00000

 Dipole moment (field-independent basis, Debye):
    X=             -2.6076    Y=              1.0216    Z=              0.6665  Tot=              2.8788
 Quadrupole moment (field-independent basis, Debye-Ang):
   XX=            -62.7292   YY=            -52.1012   ZZ=            -51.9641
   XY=             -1.1551   XZ=             -1.0623   YZ=             -0.9521

  Exact polarizability:  92.139   1.707  73.821  -0.457  -3.755  64.457
 Approx polarizability: 125.247   4.496 104.206  -1.401  -3.485  98.804

                      1                      2                      3
                      A                      A                      A
 Frequencies --     39.7381                63.1041               183.8424
 Red. masses --      4.9250                 4.0592                 2.4549
 Frc consts  --      0.0046                 0.0095                 0.0489
 IR Inten    --      0.1877                 8.3641                 1.1920

                      4                      5                      6
                      A                      A                      A
 Frequencies --    198.6369               213.9069               224.4677
 Red. masses --      2.1060                 2.1697                 1.2263
 Frc consts  --      0.0490                 0.0585                 0.0364
 IR Inten    --      1.8058                 0.7247                 1.1230

                      7                      8                      9
                      A                      A                      A
 Frequencies --    299.1991               365.0191               399.9419
 Red. masses --      2.6726                 3.1905                 3.0788
 Frc consts  --      0.1410                 0.2505                 0.2901
 IR Inten    --      4.6261                 2.9326                12.8079

                     10                     11                     12
                      A                      A                      A
 Frequencies --    443.8953               529.2484               617.0761
 Red. masses --      4.7720                 3.1129                 4.6276
 Frc consts  --      0.5540                 0.5137                 1.0382
 IR Inten    --      0.6776                 1.7064                 4.9202

                     13                     14                     15
                      A                      A                      A
 Frequencies --    753.9939               761.9675               851.5748
 Red. masses --      1.0742                 2.7575                 2.5946
 Frc consts  --      0.3598                 0.9433                 1.1086
 IR Inten    --      0.8879                 5.6303                13.1844

                     16                     17                     18
                      A                      A                      A
 Frequencies --    869.7505               885.9857               943.8519
 Red. masses --      1.3370                 2.1507                 2.4940
 Frc consts  --      0.5959                 0.9947                 1.3090
 IR Inten    --      2.3519                13.6424                24.1979

                     19                     20                     21
                      A                      A                      A
 Frequencies --    970.7533               979.2259              1036.0822
 Red. masses --      1.6174                 2.0290                 2.8506
 Frc consts  --      0.8980                 1.1463                 1.8029
 IR Inten    --      3.2443                 9.9370                50.6777

                     22                     23                     24
                      A                      A                      A
 Frequencies --   1048.2886              1068.6790              1075.6000
 Red. masses --      1.7920                 1.4954                 3.1629
 Frc consts  --      1.1603                 1.0062                 2.1559
 IR Inten    --     68.2809                 0.2524                16.2369

                     25                     26                     27
                      A                      A                      A
 Frequencies --   1088.3660              1118.3105              1148.3005
 Red. masses --      2.2983                 2.2179                 2.4950
 Frc consts  --      1.6040                 1.6342                 1.9383
 IR Inten    --     12.7372                 1.5219                 2.3060

                     28                     29                     30
                      A                      A                      A
 Frequencies --   1186.2400              1207.1841              1241.3656
 Red. masses --      1.2642                 1.6853                 1.5563
 Frc consts  --      1.0481                 1.4470                 1.4130
 IR Inten    --      0.2522                22.4215                32.8707

                     31                     32                     33
                      A                      A                      A
 Frequencies --   1268.2532              1313.2605              1350.7506
 Red. masses --      1.5309                 1.4502                 1.6045
 Frc consts  --      1.4508                 1.4736                 1.7248
 IR Inten    --      2.3196                 3.2336                15.2956

                     34                     35                     36
                      A                      A                      A
 Frequencies --   1392.4179              1406.9737              1411.3233
 Red. masses --      1.4473                 1.4636                 1.3124
 Frc consts  --      1.6533                 1.7070                 1.5402
 IR Inten    --      4.0081                 8.5895                 1.7681

                     37                     38                     39
                      A                      A                      A
 Frequencies --   1446.6116              1491.9620              1495.2684
 Red. masses --      1.0912                 1.1367                 1.0566
 Frc consts  --      1.3454                 1.4908                 1.3919
 IR Inten    --      2.5087                 2.0015                 5.8129

                     40                     41                     42
                      A                      A                      A
 Frequencies --   1502.0285              1829.8122              2881.2339
 Red. masses --      1.6058                10.6190                 1.0839
 Frc consts  --      2.1345                20.9481                 5.3016
 IR Inten    --     27.3457               159.3771                84.7223

                     43                     44                     45
                      A                      A                      A
 Frequencies --   3034.2065              3041.1741              3049.8669
 Red. masses --      1.0376                 1.0828                 1.0848
 Frc consts  --      5.6284                 5.9002                 5.9451
 IR Inten    --     14.1764                22.9906                20.1893

                     46                     47                     48
                      A                      A                      A
 Frequencies --   3102.6766              3112.8614              3126.6193
 Red. masses --      1.1008                 1.1022                 1.0513
 Frc consts  --      6.2436                 6.2926                 6.0554
 IR Inten    --     18.9046                20.1845                11.9190

                     49                     50                     51
                      A                      A                      A
 Frequencies --   3129.4050              3210.1760              3224.1674
 Red. masses --      1.0574                 1.1178                 1.1151
 Frc consts  --      6.1012                 6.7872                 6.8294
 IR Inten    --      4.0370                 0.1789                 8.3300

 - Thermochemistry -
 -------------------
 Temperature   298.150 Kelvin.  Pressure   1.00000 Atm.
 Atom     1 has atomic number  6 and mass  12.00000

 Molecular mass:   126.06808 amu.
 Principal axes and moments of inertia in atomic units:
                           1         2         3
     Eigenvalues --   595.030871584.831381921.30485
           X            0.99999   0.00090  -0.00326
           Y           -0.00100   0.99953  -0.03071
           Z            0.00323   0.03071   0.99952
 This molecule is an asymmetric top.
 Rotational symmetry number  1.
 Warning -- assumption of classical behavior for rotation
           may cause significant error
 Rotational temperatures (Kelvin)      0.14556     0.05465     0.04508
 Rotational constants (GHZ):           3.03302     1.13876     0.93933
 Zero-point vibrational energy     410526.3 (Joules/Mol)
                                   98.11815 (Kcal/Mol)
 Warning -- explicit consideration of  12 degrees of freedom as
           vibrations may cause significant error
 Vibrational temperatures:     57.17    90.79   264.51   285.79   307.76
          (Kelvin)            322.96   430.48   525.18   575.43   638.67
                              761.47   887.83  1084.83  1096.30  1225.22
                             1251.38  1274.73  1357.99  1396.70  1408.89
                             1490.69  1508.25  1537.59  1547.55  1565.91
                             1609.00  1652.15  1706.73  1736.87  1786.05
                             1824.73  1889.49  1943.43  2003.38  2024.32
                             2030.58  2081.35  2146.60  2151.36  2161.08
                             2632.69  4145.45  4365.54  4375.57  4388.07
                             4464.05  4478.71  4498.50  4502.51  4618.72
                             4638.85

 Zero-point correction=                           0.156361 (Hartree/Particle)
 Thermal correction to Energy=                    0.165574
 Thermal correction to Enthalpy=                  0.166518
 Thermal correction to Gibbs Free Energy=         0.121493
 Sum of electronic and zero-point Energies=           -423.002341
 Sum of electronic and thermal Energies=              -422.993128
 Sum of electronic and thermal Enthalpies=            -422.992184
 Sum of electronic and thermal Free Energies=         -423.037209

                     E (Thermal)             CV                S
                      KCal/Mol        Cal/Mol-Kelvin    Cal/Mol-Kelvin
 Total                  103.899             33.570             94.763
 Electronic               0.000              0.000              0.000
 Translational            0.889              2.981             40.409
 Rotational               0.889              2.981             28.984
 Vibrational            102.122             27.608             25.370
 Vibration     1          0.594              1.981              5.272
 Vibration     2          0.597              1.972              4.358
 Vibration     3          0.631              1.862              2.289
 Vibration     4          0.637              1.842              2.146
 Vibration     5          0.644              1.820              2.010
 Vibration     6          0.649              1.804              1.923
 Vibration     7          0.692              1.675              1.421
 Vibration     8          0.738              1.544              1.101
 Vibration     9          0.766              1.470              0.963
 Vibration    10          0.803              1.374              0.814
 Vibration    11          0.884              1.185              0.589
 Vibration    12          0.977              0.996              0.421

 Optimization completed.
    -- Stationary point found.
 Normal termination of Gaussian 09 at Mon Jan 27 22:44:13 2020.
