 Gaussian 09, Revision D.01,
 Gaussian 09:  ES64L-G09RevD.01 24-Apr-2013

 -----------------------------
 # b3lyp 6-31G(2df,p) opt Freq
 -----------------------------

 -----
 titel
 -----
 Symbolic Z-matrix:
 Charge =  0 Multiplicity = 1

 SCF Done:  E(RB3LYP) =  -423.200655899     A.U. after   14 cycles
 Optimization completed.
    -- Stationary point found.
 Normal termination of Gaussian 09 at Mon Jan 27 13:42:58 2020.

 ----------------------------------------------------------------------
 #N Geom=AllCheck Guess=TCheck SCRF=Check GenChk RB3LYP/6-31G(2df,p) Fr
 eq
 ----------------------------------------------------------------------

 Structure from the checkpoint file:  "/scratch/puck/g09_128136ec-cc06-440f-bbb5-181f1a29c5a1/Gau-39571.chk"
 -----
 titel
 -----
 Charge =  0 Multiplicity = 1

                         Standard orientation:
 ---------------------------------------------------------------------
 Center     Atomic      Atomic             Coordinates (Angstroms)
 Number     Number       Type             X           Y           Z
 ---------------------------------------------------------------------
      1          8           0        3.179143   -0.689821   -0.457438
      2          6           0        2.496509    0.299813   -0.407563
      3          6           0        1.577211    0.659705    0.751536
      4          6           0        0.146938    0.370095    0.354446
      5          6           0       -0.714225    1.311452   -0.035847
      6          6           0       -2.133260    0.985916   -0.418727
      7          6           0       -2.493145   -0.423731    0.056396
      8          8           0       -1.475918   -1.349207   -0.286393
      9          6           0       -0.261958   -1.086047    0.383530
     10          1           0        2.456590    1.019643   -1.256360
     11          1           0        1.877201    0.067460    1.622730
     12          1           0        1.695123    1.724707    0.979284
     13          1           0       -0.403190    2.353295   -0.074194
     14          1           0       -2.825650    1.714420    0.022025
     15          1           0       -2.258367    1.062324   -1.507642
     16          1           0       -2.652376   -0.419039    1.147653
     17          1           0       -3.409639   -0.785451   -0.417320
     18          1           0       -0.315300   -1.424755    1.435948
     19          1           0        0.501390   -1.703605   -0.104106
 ---------------------------------------------------------------------

 SCF Done:  E(RB3LYP) =  -423.200655899     A.U. after    1 cycles

 The electronic state is 1-A.
 Alpha  occ. eigenvalues --  -19.14438 -19.14107 -10.27635 -10.23369 -10.23085
 Alpha  occ. eigenvalues --  -10.20290 -10.20097 -10.19206 -10.19134  -1.05117
 Alpha  occ. eigenvalues --   -1.03732  -0.82746  -0.78157  -0.72813  -0.65615
 Alpha  occ. eigenvalues --   -0.63189  -0.57985  -0.52658  -0.50313  -0.48841
 Alpha  occ. eigenvalues --   -0.47462  -0.45702  -0.44244  -0.42899  -0.40740
 Alpha  occ. eigenvalues --   -0.39981  -0.39514  -0.38507  -0.36895  -0.35182
 Alpha  occ. eigenvalues --   -0.30734  -0.26948  -0.25462  -0.24056
 Alpha virt. eigenvalues --   -0.03224   0.02470   0.09164   0.10442   0.11602
 Alpha virt. eigenvalues --    0.12569   0.13624   0.13896   0.15238   0.16337
 Alpha virt. eigenvalues --    0.17471   0.17908   0.18936   0.21257   0.22516

 Mulliken charges:
               1
     1  O   -0.233270
     2  C    0.157786
     3  C   -0.365092
     4  C    0.263728
     5  C   -0.159811
     6  C   -0.250928
     7  C   -0.080203
     8  O   -0.241541
     9  C   -0.154931
    10  H    0.082693
    11  H    0.124114
    12  H    0.117239
    13  H    0.083918
    14  H    0.105584
    15  H    0.119303
    16  H    0.089729
    17  H    0.109189
    18  H    0.097110
    19  H    0.135383
 Sum of Mulliken charges =   0.00000

 Dipole moment (field-independent basis, Debye):
    X=             -1.6973    Y=              2.7290    Z=              1.0386  Tot=              3.3775
 Quadrupole moment (field-independent basis, Debye-Ang):
   XX=            -57.8025   YY=            -54.1510   ZZ=            -52.9898
   XY=              2.8836   XZ=              1.4979   YZ=             -2.0484

  Exact polarizability:  98.857  -9.684  77.632   3.461  -4.922  62.592
 Approx polarizability: 131.531 -24.522 124.255   7.160  -7.197  96.480

                      1                      2                      3
                      A                      A                      A
 Frequencies --     36.9349                60.1671               119.8690
 Red. masses --      6.4372                 4.0368                 2.5308
 Frc consts  --      0.0052                 0.0086                 0.0214
 IR Inten    --      5.3281                 1.2282                 2.8869

                      4                      5                      6
                      A                      A                      A
 Frequencies --    209.0587               266.9346               299.7492
 Red. masses --      2.0425                 2.6862                 2.9406
 Frc consts  --      0.0526                 0.1128                 0.1557
 IR Inten    --      1.7759                 6.7682                 0.7008

                      7                      8                      9
                      A                      A                      A
 Frequencies --    343.8057               439.3062               499.0074
 Red. masses --      2.0992                 3.1862                 3.2242
 Frc consts  --      0.1462                 0.3623                 0.4730
 IR Inten    --      1.9826                 0.7982                 3.8533

                     10                     11                     12
                      A                      A                      A
 Frequencies --    505.0613               529.9877               644.0501
 Red. masses --      2.5359                 4.1742                 2.1868
 Frc consts  --      0.3811                 0.6908                 0.5344
 IR Inten    --     13.0897                11.7720                 4.0690

                     13                     14                     15
                      A                      A                      A
 Frequencies --    801.2621               860.1476               863.5113
 Red. masses --      1.9723                 1.7998                 1.9071
 Frc consts  --      0.7461                 0.7845                 0.8378
 IR Inten    --      3.3325                 1.8919                 7.9375

                     16                     17                     18
                      A                      A                      A
 Frequencies --    902.4871               932.0752               956.0997
 Red. masses --      2.6583                 2.3048                 2.3096
 Frc consts  --      1.2757                 1.1797                 1.2439
 IR Inten    --      7.5194                16.0542                 6.1814

                     19                     20                     21
                      A                      A                      A
 Frequencies --   1012.8670              1031.7203              1057.3788
 Red. masses --      1.8970                 2.0167                 2.0827
 Frc consts  --      1.1466                 1.2648                 1.3720
 IR Inten    --     18.0209                 6.8715                19.7616

                     22                     23                     24
                      A                      A                      A
 Frequencies --   1074.8336              1094.1892              1139.0544
 Red. masses --      2.3099                 1.7775                 4.5211
 Frc consts  --      1.5722                 1.2539                 3.4561
 IR Inten    --      5.5720                 3.6104                94.5358

                     25                     26                     27
                      A                      A                      A
 Frequencies --   1157.2695              1205.5781              1229.3207
 Red. masses --      2.7884                 1.2564                 1.1881
 Frc consts  --      2.2003                 1.0759                 1.0578
 IR Inten    --     10.4244                 3.6018                 6.0535

                     28                     29                     30
                      A                      A                      A
 Frequencies --   1261.2608              1284.4307              1317.0802
 Red. masses --      1.2375                 1.4682                 1.2743
 Frc consts  --      1.1599                 1.4271                 1.3024
 IR Inten    --     14.1146                 5.4801                 2.2703

                     31                     32                     33
                      A                      A                      A
 Frequencies --   1352.3996              1365.2948              1400.9086
 Red. masses --      1.2758                 1.5452                 1.5180
 Frc consts  --      1.3748                 1.6970                 1.7552
 IR Inten    --      1.5227                 8.6401                 2.8429

                     34                     35                     36
                      A                      A                      A
 Frequencies --   1417.2471              1422.1053              1465.3210
 Red. masses --      1.1755                 1.3913                 1.0998
 Frc consts  --      1.3911                 1.6578                 1.3914
 IR Inten    --      5.5840                 6.8434                 6.0558

                     37                     38                     39
                      A                      A                      A
 Frequencies --   1469.7600              1485.9453              1501.4713
 Red. masses --      1.0914                 1.0815                 1.0992
 Frc consts  --      1.3891                 1.4070                 1.4601
 IR Inten    --      2.1239                 2.1063                 2.0768

                     40                     41                     42
                      A                      A                      A
 Frequencies --   1732.3580              1829.9099              2877.0018
 Red. masses --      7.1928                 9.9550                 1.0834
 Frc consts  --     12.7181                19.6403                 5.2834
 IR Inten    --      2.4337               189.3632                94.4067

                     43                     44                     45
                      A                      A                      A
 Frequencies --   2924.9541              2968.5574              3013.4583
 Red. masses --      1.0726                 1.0711                 1.0619
 Frc consts  --      5.4066                 5.5615                 5.6815
 IR Inten    --     54.5598                57.2565                29.2996

                     46                     47                     48
                      A                      A                      A
 Frequencies --   3036.8368              3049.1886              3059.4854
 Red. masses --      1.0567                 1.0980                 1.0866
 Frc consts  --      5.7418                 6.0146                 5.9926
 IR Inten    --     14.9403                31.6284                12.8984

                     49                     50                     51
                      A                      A                      A
 Frequencies --   3091.3056              3096.4718              3146.2923
 Red. masses --      1.0933                 1.1060                 1.0900
 Frc consts  --      6.1558                 6.2479                 6.3575
 IR Inten    --     39.4124                13.0023                20.0779

 - Thermochemistry -
 -------------------
 Temperature   298.150 Kelvin.  Pressure   1.00000 Atm.
 Atom     1 has atomic number  8 and mass  15.99491

 Molecular mass:   126.06808 amu.
 Principal axes and moments of inertia in atomic units:
                           1         2         3
     Eigenvalues --   509.232321829.027502125.45099
           X            0.99998   0.00188   0.00605
           Y           -0.00165   0.99927  -0.03808
           Z           -0.00612   0.03806   0.99926
 This molecule is an asymmetric top.
 Rotational symmetry number  1.
 Warning -- assumption of classical behavior for rotation
           may cause significant error
 Rotational temperatures (Kelvin)      0.17009     0.04736     0.04075
 Rotational constants (GHZ):           3.54404     0.98672     0.84911
 Zero-point vibrational energy     417740.6 (Joules/Mol)
                                   99.84239 (Kcal/Mol)
 Warning -- explicit consideration of  11 degrees of freedom as
           vibrations may cause significant error
 Vibrational temperatures:     53.14    86.57   172.46   300.79   384.06
          (Kelvin)            431.27   494.66   632.06   717.96   726.67
                              762.53   926.64  1152.84  1237.56  1242.40
                             1298.48  1341.05  1375.61  1457.29  1484.41
                             1521.33  1546.44  1574.29  1638.84  1665.05
                             1734.56  1768.72  1814.67  1848.01  1894.98
                             1945.80  1964.35  2015.59  2039.10  2046.09
                             2108.27  2114.65  2137.94  2160.28  2492.47
                             2632.83  4139.36  4208.35  4271.09  4335.69
                             4369.33  4387.10  4401.91  4447.69  4455.13
                             4526.81

 Zero-point correction=                           0.159109 (Hartree/Particle)
 Thermal correction to Energy=                    0.167841
 Thermal correction to Enthalpy=                  0.168785
 Thermal correction to Gibbs Free Energy=         0.124344
 Sum of electronic and zero-point Energies=           -423.041547
 Sum of electronic and thermal Energies=              -423.032815
 Sum of electronic and thermal Enthalpies=            -423.031871
 Sum of electronic and thermal Free Energies=         -423.076312

                     E (Thermal)             CV                S
                      KCal/Mol        Cal/Mol-Kelvin    Cal/Mol-Kelvin
 Total                  105.322             31.683             93.535
 Electronic               0.000              0.000              0.000
 Translational            0.889              2.981             40.409
 Rotational               0.889              2.981             29.072
 Vibrational            103.544             25.721             24.054
 Vibration     1          0.594              1.982              5.417
 Vibration     2          0.597              1.973              4.452
 Vibration     3          0.609              1.933              3.102
 Vibration     4          0.642              1.827              2.052
 Vibration     5          0.672              1.734              1.616
 Vibration     6          0.692              1.674              1.418
 Vibration     7          0.723              1.588              1.194
 Vibration     8          0.799              1.384              0.829
 Vibration     9          0.854              1.252              0.661
 Vibration    10          0.860              1.239              0.646
 Vibration    11          0.885              1.184              0.587

 Normal termination of Gaussian 09 at Mon Jan 27 14:22:37 2020.
