 Gaussian 09, Revision D.01,
 Gaussian 09:  ES64L-G09RevD.01 24-Apr-2013

 -----------------------------
 # b3lyp 6-31G(2df,p) opt Freq
 -----------------------------

 -----
 titel
 -----
 Symbolic Z-matrix:
 Charge =  0 Multiplicity = 1

 SCF Done:  E(RB3LYP) =  -423.124949866     A.U. after   14 cycles
 Optimization completed.
    -- Stationary point found.
 Normal termination of Gaussian 09 at Mon Jan 27 23:02:54 2020.

 ----------------------------------------------------------------------
 #N Geom=AllCheck Guess=TCheck SCRF=Check GenChk RB3LYP/6-31G(2df,p) Fr
 eq
 ----------------------------------------------------------------------

 Structure from the checkpoint file:  "/scratch/puck/g09_3f42a2e8-f48c-4573-8a64-f494ba7029a6/Gau-128737.chk"
 -----
 titel
 -----
 Charge =  0 Multiplicity = 1

                         Standard orientation:
 ---------------------------------------------------------------------
 Center     Atomic      Atomic             Coordinates (Angstroms)
 Number     Number       Type             X           Y           Z
 ---------------------------------------------------------------------
      1          6           0       -2.176490   -0.901633   -0.768771
      2          6           0       -1.174949   -0.733531    0.358526
      3          6           0        0.202908   -1.450769    0.436118
      4          8           0        0.624485   -0.436950    1.437611
      5          6           0       -0.010315    0.322939    0.339848
      6          6           0       -0.116538    1.804886    0.471224
      7          8           0       -0.417001    2.527896   -0.445636
      8          6           0        0.770393   -0.547995   -0.694796
      9          6           0        2.271147   -0.366481   -0.817389
     10          1           0       -2.735772   -1.833808   -0.634179
     11          1           0       -2.899567   -0.079927   -0.755506
     12          1           0       -1.721017   -0.926127   -1.760854
     13          1           0       -1.660522   -0.732307    1.337732
     14          1           0        0.428468   -2.492470    0.668891
     15          1           0        0.086229    2.190261    1.495005
     16          1           0        0.288282   -0.650649   -1.668172
     17          1           0        2.731194   -0.270137    0.167939
     18          1           0        2.719946   -1.223913   -1.330236
     19          1           0        2.505954    0.527011   -1.404984
 ---------------------------------------------------------------------

 SCF Done:  E(RB3LYP) =  -423.124949866     A.U. after    1 cycles

 The electronic state is 1-A.
 Alpha  occ. eigenvalues --  -19.14874 -19.14188 -10.27812 -10.25732 -10.25518
 Alpha  occ. eigenvalues --  -10.21273 -10.20790 -10.18881 -10.17843  -1.06828
 Alpha  occ. eigenvalues --   -1.05218  -0.81412  -0.75964  -0.70957  -0.69811
 Alpha  occ. eigenvalues --   -0.62324  -0.59545  -0.52139  -0.51454  -0.47595
 Alpha  occ. eigenvalues --   -0.45721  -0.44138  -0.43583  -0.42177  -0.39888
 Alpha  occ. eigenvalues --   -0.39394  -0.39139  -0.37598  -0.34404  -0.33619
 Alpha  occ. eigenvalues --   -0.32543  -0.31829  -0.25534  -0.24948
 Alpha virt. eigenvalues --   -0.04043   0.08031   0.10140   0.10612   0.11520
 Alpha virt. eigenvalues --    0.12193   0.13254   0.14242   0.15073   0.16313
 Alpha virt. eigenvalues --    0.17100   0.17402   0.18686   0.19364   0.20793

 Mulliken charges:
               1
     1  C   -0.443012
     2  C    0.005893
     3  C    0.009285
     4  O   -0.342868
     5  C    0.295999
     6  C    0.029606
     7  O   -0.253900
     8  C   -0.008237
     9  C   -0.438755
    10  H    0.126718
    11  H    0.137342
    12  H    0.129599
    13  H    0.092686
    14  H    0.095816
    15  H    0.096763
    16  H    0.083292
    17  H    0.138291
    18  H    0.117737
    19  H    0.127746
 Sum of Mulliken charges =   0.00000

 Dipole moment (field-independent basis, Debye):
    X=             -0.4669    Y=             -2.2500    Z=             -0.3580  Tot=              2.3256
 Quadrupole moment (field-independent basis, Debye-Ang):
   XX=            -51.6005   YY=            -56.3992   ZZ=            -55.4400
   XY=              1.9791   XZ=             -2.2412   YZ=              4.0868

  Exact polarizability:  79.258   0.423  81.185  -0.286  -0.153  70.283
 Approx polarizability: 105.384  -1.603 121.264   3.887  -5.809 114.552

                      1                      2                      3
                      A                      A                      A
 Frequencies --     49.0724               132.9120               153.2386
 Red. masses --      4.1735                 3.9637                 1.0534
 Frc consts  --      0.0059                 0.0413                 0.0146
 IR Inten    --      8.3430                 5.5764                 0.3804

                      4                      5                      6
                      A                      A                      A
 Frequencies --    168.1345               218.2683               233.5102
 Red. masses --      2.1280                 1.0771                 2.8485
 Frc consts  --      0.0354                 0.0302                 0.0915
 IR Inten    --      2.3508                 0.0214                 0.4901

                      7                      8                      9
                      A                      A                      A
 Frequencies --    279.6550               356.3042               380.0238
 Red. masses --      2.6442                 3.6442                 2.5506
 Frc consts  --      0.1218                 0.2726                 0.2170
 IR Inten    --      3.3264                 3.8571                 0.8677

                     10                     11                     12
                      A                      A                      A
 Frequencies --    459.4591               581.4953               625.3263
 Red. masses --      8.3997                 4.2443                 3.5400
 Frc consts  --      1.0447                 0.8456                 0.8156
 IR Inten    --      1.2907                 6.4653                 2.0333

                     13                     14                     15
                      A                      A                      A
 Frequencies --    689.0081               740.8040               775.3335
 Red. masses --      3.5800                 4.1565                 2.9001
 Frc consts  --      1.0013                 1.3440                 1.0272
 IR Inten    --     14.6604                15.7721                12.8960

                     16                     17                     18
                      A                      A                      A
 Frequencies --    804.7458               833.0122               910.8916
 Red. masses --      2.9413                 2.2783                 3.0964
 Frc consts  --      1.1223                 0.9314                 1.5137
 IR Inten    --     20.0632                10.9563                19.1924

                     19                     20                     21
                      A                      A                      A
 Frequencies --    985.2167              1009.9816              1026.4485
 Red. masses --      2.5592                 1.3303                 1.4147
 Frc consts  --      1.4636                 0.7995                 0.8782
 IR Inten    --      6.7507                 5.9352                 5.9207

                     22                     23                     24
                      A                      A                      A
 Frequencies --   1062.4468              1078.0317              1090.6504
 Red. masses --      1.6615                 1.6719                 1.8683
 Frc consts  --      1.1050                 1.1448                 1.3094
 IR Inten    --      7.8001                 5.7539                 1.3863

                     25                     26                     27
                      A                      A                      A
 Frequencies --   1127.2334              1161.0960              1177.0050
 Red. masses --      2.8686                 2.5199                 1.5794
 Frc consts  --      2.1476                 2.0016                 1.2892
 IR Inten    --      5.7133                 2.7185                 3.5997

                     28                     29                     30
                      A                      A                      A
 Frequencies --   1216.7123              1219.6036              1239.3912
 Red. masses --      1.7100                 1.5256                 1.6700
 Frc consts  --      1.4915                 1.3370                 1.5114
 IR Inten    --      0.2998                 4.4681                 2.0589

                     31                     32                     33
                      A                      A                      A
 Frequencies --   1278.3340              1376.3386              1399.2924
 Red. masses --      2.8950                 1.3477                 1.3094
 Frc consts  --      2.7873                 1.5042                 1.5106
 IR Inten    --      9.9367                 7.2444                16.6323

                     34                     35                     36
                      A                      A                      A
 Frequencies --   1401.0593              1414.2257              1424.1857
 Red. masses --      1.3120                 1.6097                 1.3359
 Frc consts  --      1.5174                 1.8968                 1.5965
 IR Inten    --      1.4084                18.6434                 5.6937

                     37                     38                     39
                      A                      A                      A
 Frequencies --   1491.4740              1492.8997              1498.9548
 Red. masses --      1.0459                 1.0579                 1.0547
 Frc consts  --      1.3708                 1.3892                 1.3963
 IR Inten    --      2.6211                 3.2194                 6.2126

                     40                     41                     42
                      A                      A                      A
 Frequencies --   1505.4473              1816.2692              2891.6999
 Red. masses --      1.0480                10.6992                 1.0837
 Frc consts  --      1.3993                20.7951                 5.3392
 IR Inten    --      3.1834               143.2796                96.0258

                     43                     44                     45
                      A                      A                      A
 Frequencies --   3039.5256              3041.6431              3083.7304
 Red. masses --      1.0373                 1.0380                 1.0852
 Frc consts  --      5.6461                 5.6580                 6.0799
 IR Inten    --     25.5030                16.3808                13.3520

                     46                     47                     48
                      A                      A                      A
 Frequencies --   3097.8268              3098.4313              3101.7793
 Red. masses --      1.0921                 1.0943                 1.0994
 Frc consts  --      6.1748                 6.1898                 6.2321
 IR Inten    --     19.2479                15.1349                16.1585

                     49                     50                     51
                      A                      A                      A
 Frequencies --   3110.4381              3129.5570              3138.2533
 Red. masses --      1.0934                 1.0978                 1.0988
 Frc consts  --      6.2326                 6.3346                 6.3760
 IR Inten    --     47.7827                22.6195                21.6785

 - Thermochemistry -
 -------------------
 Temperature   298.150 Kelvin.  Pressure   1.00000 Atm.
 Atom     1 has atomic number  6 and mass  12.00000

 Molecular mass:   126.06808 amu.
 Principal axes and moments of inertia in atomic units:
                           1         2         3
     Eigenvalues --   979.187951040.867651449.75611
           X           -0.25740   0.96618  -0.01560
           Y            0.96528   0.25783   0.04182
           Z           -0.04443   0.00429   0.99900
 This molecule is an asymmetric top.
 Rotational symmetry number  1.
 Warning -- assumption of classical behavior for rotation
           may cause significant error
 Rotational temperatures (Kelvin)      0.08845     0.08321     0.05974
 Rotational constants (GHZ):           1.84310     1.73388     1.24486
 Zero-point vibrational energy     410417.1 (Joules/Mol)
                                   98.09204 (Kcal/Mol)
 Warning -- explicit consideration of  11 degrees of freedom as
           vibrations may cause significant error
 Vibrational temperatures:     70.60   191.23   220.48   241.91   314.04
          (Kelvin)            335.97   402.36   512.64   546.77   661.06
                              836.64   899.70   991.33  1065.85  1115.53
                             1157.85  1198.52  1310.57  1417.51  1453.14
                             1476.83  1528.62  1551.05  1569.20  1621.84
                             1670.56  1693.45  1750.58  1754.74  1783.21
                             1839.24  1980.24  2013.27  2015.81  2034.75
                             2049.08  2145.90  2147.95  2156.66  2166.00
                             2613.20  4160.51  4373.19  4376.24  4436.79
                             4457.08  4457.95  4462.76  4475.22  4502.73
                             4515.24

 Zero-point correction=                           0.156320 (Hartree/Particle)
 Thermal correction to Energy=                    0.165522
 Thermal correction to Enthalpy=                  0.166467
 Thermal correction to Gibbs Free Energy=         0.122056
 Sum of electronic and zero-point Energies=           -422.968630
 Sum of electronic and thermal Energies=              -422.959428
 Sum of electronic and thermal Enthalpies=            -422.958483
 Sum of electronic and thermal Free Energies=         -423.002894

                     E (Thermal)             CV                S
                      KCal/Mol        Cal/Mol-Kelvin    Cal/Mol-Kelvin
 Total                  103.867             33.740             93.471
 Electronic               0.000              0.000              0.000
 Translational            0.889              2.981             40.409
 Rotational               0.889              2.981             28.782
 Vibrational            102.089             27.779             24.281
 Vibration     1          0.595              1.978              4.854
 Vibration     2          0.613              1.920              2.903
 Vibration     3          0.619              1.899              2.632
 Vibration     4          0.625              1.882              2.456
 Vibration     5          0.646              1.813              1.973
 Vibration     6          0.654              1.790              1.852
 Vibration     7          0.680              1.711              1.536
 Vibration     8          0.732              1.562              1.138
 Vibration     9          0.750              1.513              1.039
 Vibration    10          0.817              1.340              0.768
 Vibration    11          0.938              1.071              0.483

 Optimization completed.
    -- Stationary point found.
 Normal termination of Gaussian 09 at Mon Jan 27 23:43:40 2020.
