 Gaussian 09, Revision D.01,
 Gaussian 09:  ES64L-G09RevD.01 24-Apr-2013

 -----------------------------
 # b3lyp 6-31G(2df,p) opt Freq
 -----------------------------

 -----
 titel
 -----
 Symbolic Z-matrix:
 Charge =  0 Multiplicity = 1

 SCF Done:  E(RB3LYP) =  -423.183430893     A.U. after   13 cycles
 Optimization completed.
    -- Stationary point found.
 Normal termination of Gaussian 09 at Tue Jan 28 00:42:00 2020.

 ----------------------------------------------------------------------
 #N Geom=AllCheck Guess=TCheck SCRF=Check GenChk RB3LYP/6-31G(2df,p) Fr
 eq
 ----------------------------------------------------------------------

 Structure from the checkpoint file:  "/scratch/puck/g09_130450dc-767f-4e25-ab21-935e39206b8e/Gau-36711.chk"
 -----
 titel
 -----
 Charge =  0 Multiplicity = 1

                         Standard orientation:
 ---------------------------------------------------------------------
 Center     Atomic      Atomic             Coordinates (Angstroms)
 Number     Number       Type             X           Y           Z
 ---------------------------------------------------------------------
      1          8           0       -1.168851    1.788403   -0.502891
      2          6           0       -0.510719    0.963725    0.487856
      3          6           0        0.943994    1.329132    0.582525
      4          6           0        1.925433    0.613121    0.031213
      5          6           0        1.732631   -0.692297   -0.691625
      6          6           0        0.362443   -1.306888   -0.478104
      7          6           0       -0.119545   -1.586954    0.937456
      8          6           0       -0.758267   -0.495704    0.144179
      9          8           0       -2.071545   -0.733106   -0.264465
     10          1           0       -0.571258    1.842742   -1.258098
     11          1           0       -1.037616    1.208243    1.417768
     12          1           0        1.166906    2.271526    1.075263
     13          1           0        2.947391    0.980857    0.094131
     14          1           0        1.910271   -0.527044   -1.764987
     15          1           0        2.518500   -1.395732   -0.380100
     16          1           0        0.046818   -2.029811   -1.223398
     17          1           0       -0.718754   -2.477391    1.089816
     18          1           0        0.528975   -1.320525    1.766179
     19          1           0       -2.323886    0.059953   -0.758733
 ---------------------------------------------------------------------

 SCF Done:  E(RB3LYP) =  -423.183430893     A.U. after    1 cycles

 The electronic state is 1-A.
 Alpha  occ. eigenvalues --  -19.14836 -19.12778 -10.23817 -10.23161 -10.19731
 Alpha  occ. eigenvalues --  -10.19523 -10.18788 -10.18581 -10.17711  -1.03650
 Alpha  occ. eigenvalues --   -1.00622  -0.86121  -0.78913  -0.73755  -0.66569
 Alpha  occ. eigenvalues --   -0.59456  -0.58040  -0.53592  -0.53014  -0.47424
 Alpha  occ. eigenvalues --   -0.46735  -0.45347  -0.44460  -0.42806  -0.40484
 Alpha  occ. eigenvalues --   -0.38724  -0.36816  -0.34347  -0.33487  -0.32628
 Alpha  occ. eigenvalues --   -0.30021  -0.27719  -0.25712  -0.23180
 Alpha virt. eigenvalues --    0.00220   0.08115   0.09662   0.11375   0.11979
 Alpha virt. eigenvalues --    0.13452   0.15013   0.15221   0.16289   0.17041
 Alpha virt. eigenvalues --    0.17934   0.18932   0.21241   0.23062   0.24367

 Mulliken charges:
               1
     1  O   -0.442232
     2  C   -0.001021
     3  C   -0.105978
     4  C   -0.052686
     5  C   -0.286176
     6  C   -0.109009
     7  C   -0.344177
     8  C    0.417568
     9  O   -0.480386
    10  H    0.279956
    11  H    0.097430
    12  H    0.096569
    13  H    0.096325
    14  H    0.112786
    15  H    0.113431
    16  H    0.091100
    17  H    0.122131
    18  H    0.112792
    19  H    0.281578
 Sum of Mulliken charges =   0.00000

 Dipole moment (field-independent basis, Debye):
    X=              2.3888    Y=              0.5653    Z=             -0.7388  Tot=              2.5636
 Quadrupole moment (field-independent basis, Debye-Ang):
   XX=            -55.3298   YY=            -54.4579   ZZ=            -49.9693
   XY=             -0.1871   XZ=              0.0349   YZ=             -0.4470

  Exact polarizability:  84.547  -3.772  77.837  -3.581   3.176  66.162
 Approx polarizability: 126.035 -13.379 112.082  -7.990   5.746 104.829

                      1                      2                      3
                      A                      A                      A
 Frequencies --    107.6797               207.3224               254.8533
 Red. masses --      3.9354                 2.6995                 3.4847
 Frc consts  --      0.0269                 0.0684                 0.1333
 IR Inten    --      0.9774                 0.5946                 2.6301

                      4                      5                      6
                      A                      A                      A
 Frequencies --    299.8587               355.6007               377.4561
 Red. masses --      2.6012                 1.3049                 3.0385
 Frc consts  --      0.1378                 0.0972                 0.2551
 IR Inten    --      3.5342                41.4778                 9.6823

                      7                      8                      9
                      A                      A                      A
 Frequencies --    400.9681               430.2296               493.4446
 Red. masses --      2.7547                 4.6506                 2.7191
 Frc consts  --      0.2609                 0.5072                 0.3901
 IR Inten    --      6.3052                 1.6934                 3.2765

                     10                     11                     12
                      A                      A                      A
 Frequencies --    535.8065               541.6162               586.0053
 Red. masses --      3.9091                 1.2340                 2.5482
 Frc consts  --      0.6612                 0.2133                 0.5156
 IR Inten    --      7.7880               100.4925                16.1906

                     13                     14                     15
                      A                      A                      A
 Frequencies --    703.0180               738.1350               787.0241
 Red. masses --      4.0594                 1.5800                 1.9129
 Frc consts  --      1.1821                 0.5072                 0.6981
 IR Inten    --      5.5935                16.0521                 7.6392

                     16                     17                     18
                      A                      A                      A
 Frequencies --    849.0565               908.5843               912.3438
 Red. masses --      2.4394                 2.1322                 2.7606
 Frc consts  --      1.0361                 1.0371                 1.3538
 IR Inten    --      2.8603                15.6745                14.2958

                     19                     20                     21
                      A                      A                      A
 Frequencies --    931.2560               961.5013              1003.0654
 Red. masses --      1.8833                 2.5626                 1.7769
 Frc consts  --      0.9623                 1.3958                 1.0533
 IR Inten    --     15.2083                16.9474                38.5845

                     22                     23                     24
                      A                      A                      A
 Frequencies --   1012.2489              1030.2904              1045.0304
 Red. masses --      1.8445                 2.1571                 2.2191
 Frc consts  --      1.1136                 1.3491                 1.4278
 IR Inten    --     36.3896                 5.8869                24.3669

                     25                     26                     27
                      A                      A                      A
 Frequencies --   1066.4746              1101.7660              1129.4549
 Red. masses --      1.3879                 1.2974                 2.0013
 Frc consts  --      0.9300                 0.9279                 1.5042
 IR Inten    --      8.9026                 0.0843                12.9775

                     28                     29                     30
                      A                      A                      A
 Frequencies --   1196.4428              1234.7810              1244.8978
 Red. masses --      1.1596                 1.2035                 1.4380
 Frc consts  --      0.9780                 1.0811                 1.3130
 IR Inten    --      5.3022                 4.8973                24.6283

                     31                     32                     33
                      A                      A                      A
 Frequencies --   1256.6110              1268.2552              1336.8333
 Red. masses --      1.4870                 1.9678                 1.5200
 Frc consts  --      1.3834                 1.8648                 1.6005
 IR Inten    --     90.9842                28.2378                35.1883

                     34                     35                     36
                      A                      A                      A
 Frequencies --   1367.2545              1392.3471              1406.3436
 Red. masses --      1.7555                 1.7135                 1.2818
 Frc consts  --      1.9336                 1.9572                 1.4937
 IR Inten    --      1.1234                40.7024                19.9265

                     37                     38                     39
                      A                      A                      A
 Frequencies --   1426.2154              1435.9659              1475.2011
 Red. masses --      1.4963                 1.3109                 1.1040
 Frc consts  --      1.7932                 1.5926                 1.4155
 IR Inten    --     17.1147                45.1282                 3.2336

                     40                     41                     42
                      A                      A                      A
 Frequencies --   1503.1404              1716.7521              2994.1100
 Red. masses --      1.9451                 6.5790                 1.0606
 Frc consts  --      2.5894                11.4241                 5.6021
 IR Inten    --     16.3852                 3.9982                40.6212

                     43                     44                     45
                      A                      A                      A
 Frequencies --   3013.4854              3041.2978              3130.3978
 Red. masses --      1.0987                 1.0841                 1.0545
 Frc consts  --      5.8787                 5.9082                 6.0882
 IR Inten    --     22.6793                32.2308                 8.5989

                     46                     47                     48
                      A                      A                      A
 Frequencies --   3145.6209              3161.7356              3172.3644
 Red. masses --      1.0844                 1.0889                 1.0957
 Frc consts  --      6.3223                 6.4137                 6.4971
 IR Inten    --      9.6167                12.6388                24.7309

                     49                     50                     51
                      A                      A                      A
 Frequencies --   3222.7476              3735.1512              3792.4955
 Red. masses --      1.1161                 1.0645                 1.0660
 Frc consts  --      6.8295                 8.7498                 9.0336
 IR Inten    --      5.5626                59.2358                14.8291

 - Thermochemistry -
 -------------------
 Temperature   298.150 Kelvin.  Pressure   1.00000 Atm.
 Atom     1 has atomic number  8 and mass  15.99491

 Molecular mass:   126.06808 amu.
 Principal axes and moments of inertia in atomic units:
                           1         2         3
     Eigenvalues --   811.65575 953.729351437.76695
           X            0.99988  -0.01198  -0.00955
           Y            0.01204   0.99991   0.00583
           Z            0.00948  -0.00594   0.99994
 This molecule is an asymmetric top.
 Rotational symmetry number  1.
 Warning -- assumption of classical behavior for rotation
           may cause significant error
 Rotational temperatures (Kelvin)      0.10671     0.09082     0.06024
 Rotational constants (GHZ):           2.22353     1.89230     1.25524
 Zero-point vibrational energy     421328.0 (Joules/Mol)
                                  100.69980 (Kcal/Mol)
 Warning -- explicit consideration of  12 degrees of freedom as
           vibrations may cause significant error
 Vibrational temperatures:    154.93   298.29   366.68   431.43   511.63
          (Kelvin)            543.07   576.90   619.00   709.96   770.91
                              779.26   843.13  1011.48  1062.01  1132.35
                             1221.60  1307.25  1312.66  1339.87  1383.38
                             1443.19  1456.40  1482.36  1503.56  1534.42
                             1585.19  1625.03  1721.41  1776.57  1791.13
                             1807.98  1824.73  1923.40  1967.17  2003.27
                             2023.41  2052.00  2066.03  2122.48  2162.68
                             2470.02  4307.85  4335.73  4375.74  4503.94
                             4525.84  4549.03  4564.32  4636.81  5374.04
                             5456.55

 Zero-point correction=                           0.160475 (Hartree/Particle)
 Thermal correction to Energy=                    0.168437
 Thermal correction to Enthalpy=                  0.169381
 Thermal correction to Gibbs Free Energy=         0.128521
 Sum of electronic and zero-point Energies=           -423.022956
 Sum of electronic and thermal Energies=              -423.014994
 Sum of electronic and thermal Enthalpies=            -423.014049
 Sum of electronic and thermal Free Energies=         -423.054909

                     E (Thermal)             CV                S
                      KCal/Mol        Cal/Mol-Kelvin    Cal/Mol-Kelvin
 Total                  105.696             32.455             85.997
 Electronic               0.000              0.000              0.000
 Translational            0.889              2.981             40.409
 Rotational               0.889              2.981             28.500
 Vibrational            103.919             26.493             17.089
 Vibration     1          0.606              1.943              3.310
 Vibration     2          0.641              1.829              2.067
 Vibration     3          0.665              1.755              1.697
 Vibration     4          0.692              1.674              1.418
 Vibration     5          0.731              1.564              1.141
 Vibration     6          0.748              1.518              1.049
 Vibration     7          0.767              1.468              0.959
 Vibration     8          0.791              1.404              0.858
 Vibration     9          0.849              1.265              0.675
 Vibration    10          0.891              1.171              0.574
 Vibration    11          0.897              1.158              0.562
 Vibration    12          0.943              1.062              0.474

 Optimization completed.
    -- Stationary point found.
 Normal termination of Gaussian 09 at Tue Jan 28 02:58:53 2020.
