 Gaussian 09, Revision D.01,
 Gaussian 09:  ES64L-G09RevD.01 24-Apr-2013

 -----------------------------
 # b3lyp 6-31G(2df,p) opt Freq
 -----------------------------

 -----
 titel
 -----
 Symbolic Z-matrix:
 Charge =  0 Multiplicity = 1

 SCF Done:  E(RB3LYP) =  -423.131353869     A.U. after   14 cycles
 Optimization completed.
    -- Stationary point found.
 Normal termination of Gaussian 09 at Tue Jan 28 13:22:45 2020.

 ----------------------------------------------------------------------
 #N Geom=AllCheck Guess=TCheck SCRF=Check GenChk RB3LYP/6-31G(2df,p) Fr
 eq
 ----------------------------------------------------------------------

 Structure from the checkpoint file:  "/scratch/puck/g09_0e3ff14b-e081-4618-addc-7c1cd59dcb36/Gau-144556.chk"
 -----
 titel
 -----
 Charge =  0 Multiplicity = 1

                         Standard orientation:
 ---------------------------------------------------------------------
 Center     Atomic      Atomic             Coordinates (Angstroms)
 Number     Number       Type             X           Y           Z
 ---------------------------------------------------------------------
      1          6           0        2.078955   -1.305087   -0.521907
      2          6           0        1.012951   -0.332557   -0.029412
      3          6           0        0.193916   -0.780428    1.219898
      4          6           0       -1.022017   -0.754281    0.277963
      5          6           0       -2.052364    0.341388    0.501015
      6          8           0       -2.832888    0.527082   -0.661528
      7          8           0       -0.186502   -0.415255   -0.863603
      8          6           0        1.525435    1.033397    0.037360
      9          6           0        1.955375    2.154374    0.100533
     10          1           0        2.942923   -1.297045    0.149518
     11          1           0        1.667061   -2.316913   -0.564918
     12          1           0        2.414423   -1.019066   -1.522322
     13          1           0        0.474127   -1.765007    1.596237
     14          1           0        0.169494   -0.064211    2.041870
     15          1           0       -1.523625   -1.713815    0.107833
     16          1           0       -2.735014    0.061442    1.311792
     17          1           0       -1.536031    1.269422    0.795854
     18          1           0       -2.201403    0.662553   -1.379371
     19          1           0        2.329663    3.147192    0.151847
 ---------------------------------------------------------------------

 SCF Done:  E(RB3LYP) =  -423.131353870     A.U. after    1 cycles

 The electronic state is 1-A.
 Alpha  occ. eigenvalues --  -19.14316 -19.12877 -10.27029 -10.23707 -10.22419
 Alpha  occ. eigenvalues --  -10.19873 -10.18724 -10.18703 -10.18357  -1.04942
 Alpha  occ. eigenvalues --   -1.00914  -0.79680  -0.76005  -0.73507  -0.68915
 Alpha  occ. eigenvalues --   -0.63738  -0.57396  -0.52623  -0.51712  -0.49784
 Alpha  occ. eigenvalues --   -0.48090  -0.46076  -0.42565  -0.42278  -0.40111
 Alpha  occ. eigenvalues --   -0.39737  -0.37940  -0.35897  -0.32107  -0.31978
 Alpha  occ. eigenvalues --   -0.28545  -0.27645  -0.27124  -0.25079
 Alpha virt. eigenvalues --    0.02117   0.04433   0.08939   0.09987   0.11270
 Alpha virt. eigenvalues --    0.11966   0.12395   0.13976   0.14799   0.15530
 Alpha virt. eigenvalues --    0.16280   0.17172   0.17520   0.19027   0.22277

 Mulliken charges:
               1
     1  C   -0.435014
     2  C    0.228060
     3  C   -0.360990
     4  C    0.124876
     5  C   -0.067508
     6  O   -0.421298
     7  O   -0.334921
     8  C    0.343962
     9  C   -0.483621
    10  H    0.129087
    11  H    0.121722
    12  H    0.138446
    13  H    0.115389
    14  H    0.121945
    15  H    0.085919
    16  H    0.105883
    17  H    0.091957
    18  H    0.293238
    19  H    0.202869
 Sum of Mulliken charges =   0.00000

 Dipole moment (field-independent basis, Debye):
    X=              1.9708    Y=             -0.5551    Z=              1.5303  Tot=              2.5562
 Quadrupole moment (field-independent basis, Debye-Ang):
   XX=            -58.6748   YY=            -48.1343   ZZ=            -52.6015
   XY=              2.3147   XZ=             -2.0650   YZ=             -1.0005

  Exact polarizability:  83.812   8.291  85.792  -2.039   0.049  63.086
 Approx polarizability: 109.505  18.208 131.605   0.471   0.964  96.313

                      1                      2                      3
                      A                      A                      A
 Frequencies --     45.1815               113.7784               150.2049
 Red. masses --      5.4049                 3.0533                 3.1437
 Frc consts  --      0.0065                 0.0233                 0.0418
 IR Inten    --      0.1746                 3.7577                 0.8858

                      4                      5                      6
                      A                      A                      A
 Frequencies --    181.7302               217.1886               236.4009
 Red. masses --      3.2851                 2.8768                 1.1565
 Frc consts  --      0.0639                 0.0800                 0.0381
 IR Inten    --      0.9604                 1.0827                 1.6034

                      7                      8                      9
                      A                      A                      A
 Frequencies --    315.6682               343.6616               429.8665
 Red. masses --      2.8845                 2.5098                 2.5157
 Frc consts  --      0.1693                 0.1746                 0.2739
 IR Inten    --      1.2297                 3.5795                 6.4936

                     10                     11                     12
                      A                      A                      A
 Frequencies --    464.0246               501.2680               532.5113
 Red. masses --      1.2205                 3.6752                 4.8522
 Frc consts  --      0.1548                 0.5441                 0.8107
 IR Inten    --     80.8729                 0.5044                23.7334

                     13                     14                     15
                      A                      A                      A
 Frequencies --    549.2417               626.0601               633.3866
 Red. masses --      4.5374                 1.4961                 2.3688
 Frc consts  --      0.8065                 0.3455                 0.5599
 IR Inten    --      3.1665                27.5821                18.2684

                     16                     17                     18
                      A                      A                      A
 Frequencies --    666.8505               811.0498               848.5933
 Red. masses --      1.2573                 2.5141                 1.8496
 Frc consts  --      0.3294                 0.9744                 0.7848
 IR Inten    --     34.8553                 9.3443                 9.0683

                     19                     20                     21
                      A                      A                      A
 Frequencies --    885.5123               924.2041               938.6583
 Red. masses --      4.5622                 2.2641                 1.9900
 Frc consts  --      2.1077                 1.1394                 1.0331
 IR Inten    --     29.1762                46.7265                 9.4627

                     22                     23                     24
                      A                      A                      A
 Frequencies --    982.5437              1029.1587              1050.9799
 Red. masses --      1.6763                 2.3907                 2.2897
 Frc consts  --      0.9535                 1.4919                 1.4901
 IR Inten    --     14.0723                80.1220                61.3316

                     25                     26                     27
                      A                      A                      A
 Frequencies --   1088.2115              1123.7026              1162.9776
 Red. masses --      3.2212                 2.3563                 1.7718
 Frc consts  --      2.2474                 1.7530                 1.4119
 IR Inten    --     49.0353                26.1817                 4.2406

                     28                     29                     30
                      A                      A                      A
 Frequencies --   1191.8724              1226.8111              1258.9731
 Red. masses --      2.7480                 1.4229                 1.5462
 Frc consts  --      2.3000                 1.2618                 1.4440
 IR Inten    --     14.8825                15.9733                 9.4489

                     31                     32                     33
                      A                      A                      A
 Frequencies --   1266.0625              1301.9464              1349.2510
 Red. masses --      2.2886                 1.4823                 1.2860
 Frc consts  --      2.1614                 1.4804                 1.3794
 IR Inten    --     37.5113                 8.3288                 2.6445

                     34                     35                     36
                      A                      A                      A
 Frequencies --   1401.1309              1402.3922              1438.0199
 Red. masses --      1.2399                 1.2341                 1.3537
 Frc consts  --      1.4341                 1.4300                 1.6494
 IR Inten    --     12.1324                21.0354                56.2352

                     37                     38                     39
                      A                      A                      A
 Frequencies --   1477.9360              1484.8631              1490.8722
 Red. masses --      1.0511                 1.0811                 1.0805
 Frc consts  --      1.3528                 1.4044                 1.4150
 IR Inten    --      4.0800                 5.6197                 0.9612

                     40                     41                     42
                      A                      A                      A
 Frequencies --   1498.5461              2231.0091              2976.3154
 Red. masses --      1.0964                 5.9209                 1.0683
 Frc consts  --      1.4506                17.3636                 5.5759
 IR Inten    --      0.7657                 1.8040                36.5827

                     43                     44                     45
                      A                      A                      A
 Frequencies --   3041.3181              3042.8215              3068.1569
 Red. masses --      1.0806                 1.0376                 1.0951
 Frc consts  --      5.8890                 5.6603                 6.0739
 IR Inten    --     31.4127                15.5823                50.2380

                     46                     47                     48
                      A                      A                      A
 Frequencies --   3085.4707              3121.6121              3127.1264
 Red. masses --      1.0593                 1.1021                 1.1029
 Frc consts  --      5.9419                 6.3276                 6.3547
 IR Inten    --     18.6405                14.8192                13.3199

                     49                     50                     51
                      A                      A                      A
 Frequencies --   3144.5096              3499.7516              3779.2238
 Red. masses --      1.1094                 1.1622                 1.0654
 Frc consts  --      6.4633                 8.3870                 8.9650
 IR Inten    --     15.2390                64.5614                26.3959

 - Thermochemistry -
 -------------------
 Temperature   298.150 Kelvin.  Pressure   1.00000 Atm.
 Atom     1 has atomic number  6 and mass  12.00000

 Molecular mass:   126.06808 amu.
 Principal axes and moments of inertia in atomic units:
                           1         2         3
     Eigenvalues --   703.328901530.657031821.21082
           X            0.99969  -0.01998  -0.01464
           Y            0.02002   0.99980   0.00234
           Z            0.01459  -0.00263   0.99989
 This molecule is an asymmetric top.
 Rotational symmetry number  1.
 Warning -- assumption of classical behavior for rotation
           may cause significant error
 Rotational temperatures (Kelvin)      0.12315     0.05659     0.04756
 Rotational constants (GHZ):           2.56600     1.17906     0.99096
 Zero-point vibrational energy     411267.8 (Joules/Mol)
                                   98.29536 (Kcal/Mol)
 Warning -- explicit consideration of  13 degrees of freedom as
           vibrations may cause significant error
 Vibrational temperatures:     65.01   163.70   216.11   261.47   312.49
          (Kelvin)            340.13   454.18   494.45   618.48   667.63
                              721.21   766.16   790.24   900.76   911.30
                              959.45  1166.92  1220.93  1274.05  1329.72
                             1350.52  1413.66  1480.73  1512.12  1565.69
                             1616.76  1673.26  1714.84  1765.11  1811.38
                             1821.58  1873.21  1941.27  2015.91  2017.73
                             2068.99  2126.42  2136.38  2145.03  2156.07
                             3209.92  4282.25  4375.77  4377.94  4414.39
                             4439.30  4491.30  4499.23  4524.24  5035.36
                             5437.45

 Zero-point correction=                           0.156644 (Hartree/Particle)
 Thermal correction to Energy=                    0.166221
 Thermal correction to Enthalpy=                  0.167165
 Thermal correction to Gibbs Free Energy=         0.122005
 Sum of electronic and zero-point Energies=           -422.974710
 Sum of electronic and thermal Energies=              -422.965133
 Sum of electronic and thermal Enthalpies=            -422.964189
 Sum of electronic and thermal Free Energies=         -423.009349

                     E (Thermal)             CV                S
                      KCal/Mol        Cal/Mol-Kelvin    Cal/Mol-Kelvin
 Total                  104.305             35.733             95.047
 Electronic               0.000              0.000              0.000
 Translational            0.889              2.981             40.409
 Rotational               0.889              2.981             29.063
 Vibrational            102.528             29.771             25.576
 Vibration     1          0.595              1.979              5.018
 Vibration     2          0.607              1.938              3.203
 Vibration     3          0.618              1.902              2.670
 Vibration     4          0.630              1.865              2.311
 Vibration     5          0.646              1.815              1.982
 Vibration     6          0.655              1.785              1.830
 Vibration     7          0.703              1.644              1.332
 Vibration     8          0.722              1.588              1.195
 Vibration     9          0.791              1.405              0.859
 Vibration    10          0.822              1.330              0.754
 Vibration    11          0.857              1.247              0.655
 Vibration    12          0.887              1.178              0.582
 Vibration    13          0.905              1.141              0.546

 Optimization completed.
    -- Stationary point found.
 Normal termination of Gaussian 09 at Tue Jan 28 14:04:07 2020.
