 Gaussian 09, Revision D.01,
 Gaussian 09:  ES64L-G09RevD.01 24-Apr-2013

 -----------------------------
 # b3lyp 6-31G(2df,p) opt Freq
 -----------------------------

 -----
 titel
 -----
 Symbolic Z-matrix:
 Charge =  0 Multiplicity = 1

 SCF Done:  E(RB3LYP) =  -423.172218255     A.U. after   14 cycles
 Optimization completed.
    -- Stationary point found.
 Normal termination of Gaussian 09 at Tue Jan 28 12:40:01 2020.

 ----------------------------------------------------------------------
 #N Geom=AllCheck Guess=TCheck SCRF=Check GenChk RB3LYP/6-31G(2df,p) Fr
 eq
 ----------------------------------------------------------------------

 Structure from the checkpoint file:  "/scratch/puck/g09_584b9eae-08e0-4bff-afa6-72f7fe9ce4e9/Gau-30029.chk"
 -----
 titel
 -----
 Charge =  0 Multiplicity = 1

                         Standard orientation:
 ---------------------------------------------------------------------
 Center     Atomic      Atomic             Coordinates (Angstroms)
 Number     Number       Type             X           Y           Z
 ---------------------------------------------------------------------
      1          8           0        3.051599   -0.838884   -0.452110
      2          6           0        2.445230    0.035306    0.499114
      3          6           0        1.001446    0.292386    0.195308
      4          6           0        0.431063    1.481144   -0.021393
      5          6           0       -1.041314    1.380328   -0.325983
      6          6           0       -1.333645   -0.109192   -0.102011
      7          6           0       -2.576374   -0.763917   -0.517271
      8          8           0       -2.353808   -0.422406    0.853886
      9          6           0        0.004219   -0.837861    0.056772
     10          1           0        2.980486   -0.413640   -1.313323
     11          1           0        2.548220   -0.481659    1.460964
     12          1           0        2.990853    0.987618    0.577526
     13          1           0        0.957207    2.429843    0.009843
     14          1           0       -1.667910    1.990832    0.334551
     15          1           0       -1.264582    1.695224   -1.354812
     16          1           0       -3.350455   -0.187368   -1.024089
     17          1           0       -2.578776   -1.830915   -0.740323
     18          1           0       -0.022761   -1.495679    0.933632
     19          1           0        0.241638   -1.473103   -0.805395
 ---------------------------------------------------------------------

 SCF Done:  E(RB3LYP) =  -423.172218255     A.U. after    1 cycles

 The electronic state is 1-A.
 Alpha  occ. eigenvalues --  -19.14461 -19.13765 -10.24082 -10.23153 -10.22925
 Alpha  occ. eigenvalues --  -10.18943 -10.18783 -10.18560 -10.18553  -1.06565
 Alpha  occ. eigenvalues --   -1.01673  -0.84357  -0.73376  -0.70976  -0.66418
 Alpha  occ. eigenvalues --   -0.64453  -0.55975  -0.54026  -0.51186  -0.48573
 Alpha  occ. eigenvalues --   -0.46517  -0.45718  -0.43449  -0.42046  -0.40614
 Alpha  occ. eigenvalues --   -0.40062  -0.36477  -0.35866  -0.34641  -0.32846
 Alpha  occ. eigenvalues --   -0.29802  -0.27253  -0.26051  -0.24529
 Alpha virt. eigenvalues --    0.01274   0.07852   0.09366   0.10915   0.11375
 Alpha virt. eigenvalues --    0.12845   0.13533   0.13677   0.15062   0.17598
 Alpha virt. eigenvalues --    0.18090   0.18526   0.19200   0.20398   0.22467

 Mulliken charges:
               1
     1  O   -0.412862
     2  C   -0.173803
     3  C    0.297196
     4  C   -0.180747
     5  C   -0.338796
     6  C    0.425597
     7  C   -0.247864
     8  O   -0.266515
     9  C   -0.379022
    10  H    0.281376
    11  H    0.116634
    12  H    0.092081
    13  H    0.091520
    14  H    0.126253
    15  H    0.111149
    16  H    0.108131
    17  H    0.110076
    18  H    0.123706
    19  H    0.115890
 Sum of Mulliken charges =   0.00000

 Dipole moment (field-independent basis, Debye):
    X=              0.0980    Y=              1.2871    Z=             -1.9724  Tot=              2.3572
 Quadrupole moment (field-independent basis, Debye-Ang):
   XX=            -57.9535   YY=            -52.0658   ZZ=            -51.8704
   XY=              3.8222   XZ=              3.4348   YZ=              0.1236

  Exact polarizability:  92.731  -2.079  81.131   6.089  -1.030  60.114
 Approx polarizability: 117.490  -9.613 126.242   5.165  -3.230  97.531

                      1                      2                      3
                      A                      A                      A
 Frequencies --     53.0597                76.4813               155.4456
 Red. masses --      3.0591                 3.5975                 4.2796
 Frc consts  --      0.0051                 0.0124                 0.0609
 IR Inten    --      0.8272                 1.8297                 0.8126

                      4                      5                      6
                      A                      A                      A
 Frequencies --    250.1689               298.1838               337.4377
 Red. masses --      2.1559                 2.8428                 1.4288
 Frc consts  --      0.0795                 0.1489                 0.0959
 IR Inten    --      8.6947                 4.7812                63.7741

                      7                      8                      9
                      A                      A                      A
 Frequencies --    387.1045               397.6905               416.2006
 Red. masses --      2.0554                 2.2477                 2.2231
 Frc consts  --      0.1815                 0.2095                 0.2269
 IR Inten    --     41.9395                 8.3579                18.0406

                     10                     11                     12
                      A                      A                      A
 Frequencies --    468.6050               541.0636               677.9946
 Red. masses --      3.6134                 3.9546                 3.2420
 Frc consts  --      0.4675                 0.6821                 0.8781
 IR Inten    --      0.2800                 6.1886                 9.0525

                     13                     14                     15
                      A                      A                      A
 Frequencies --    785.7428               806.8482               844.1415
 Red. masses --      4.1082                 3.0895                 1.4642
 Frc consts  --      1.4944                 1.1850                 0.6147
 IR Inten    --     10.8930                 6.7110                25.8862

                     16                     17                     18
                      A                      A                      A
 Frequencies --    881.5289               902.9973               938.3079
 Red. masses --      3.3584                 1.6062                 1.5998
 Frc consts  --      1.5377                 0.7716                 0.8299
 IR Inten    --      0.2702                 5.0700                 2.7678

                     19                     20                     21
                      A                      A                      A
 Frequencies --    961.3541               975.1818               999.7014
 Red. masses --      4.4923                 1.5505                 1.9215
 Frc consts  --      2.4462                 0.8687                 1.1314
 IR Inten    --     36.3766                 1.5324                47.9588

                     22                     23                     24
                      A                      A                      A
 Frequencies --   1038.7292              1053.6430              1126.2865
 Red. masses --      2.2929                 3.5448                 1.2593
 Frc consts  --      1.4576                 2.3186                 0.9412
 IR Inten    --      9.4034                40.1488                 3.3380

                     25                     26                     27
                      A                      A                      A
 Frequencies --   1146.2707              1158.8631              1183.5593
 Red. masses --      1.2617                 1.2793                 1.9642
 Frc consts  --      0.9767                 1.0122                 1.6212
 IR Inten    --      5.3703                 1.0094                15.0605

                     28                     29                     30
                      A                      A                      A
 Frequencies --   1189.7312              1211.4343              1227.2044
 Red. masses --      1.2312                 1.2557                 2.1667
 Frc consts  --      1.0268                 1.0857                 1.9226
 IR Inten    --     13.2289                 3.6354                 0.8863

                     31                     32                     33
                      A                      A                      A
 Frequencies --   1272.8145              1295.3227              1341.6380
 Red. masses --      1.8345                 1.6136                 2.3110
 Frc consts  --      1.7510                 1.5951                 2.4509
 IR Inten    --      3.5036                 7.2883                 3.0537

                     34                     35                     36
                      A                      A                      A
 Frequencies --   1376.4120              1415.0334              1424.6635
 Red. masses --      1.3402                 1.2715                 2.5356
 Frc consts  --      1.4959                 1.5000                 3.0322
 IR Inten    --      0.3575                56.6964                25.6868

                     37                     38                     39
                      A                      A                      A
 Frequencies --   1470.7793              1477.0227              1496.2951
 Red. masses --      1.0833                 1.1070                 1.0899
 Frc consts  --      1.3807                 1.4229                 1.4377
 IR Inten    --      3.4297                 0.1317                 0.8803

                     40                     41                     42
                      A                      A                      A
 Frequencies --   1534.4863              1714.4865              2991.3170
 Red. masses --      1.4127                 7.1693                 1.0657
 Frc consts  --      1.9598                12.4164                 5.6182
 IR Inten    --      3.7592                 3.7194                58.8403

                     43                     44                     45
                      A                      A                      A
 Frequencies --   3012.0252              3030.1950              3053.4589
 Red. masses --      1.0664                 1.0605                 1.0964
 Frc consts  --      5.7004                 5.7375                 6.0231
 IR Inten    --     31.1192                15.6443                24.8240

                     46                     47                     48
                      A                      A                      A
 Frequencies --   3059.6591              3063.8110              3071.2978
 Red. masses --      1.0947                 1.1012                 1.0505
 Frc consts  --      6.0378                 6.0901                 5.8384
 IR Inten    --     11.3793                13.6408                31.3210

                     49                     50                     51
                      A                      A                      A
 Frequencies --   3154.6220              3184.3645              3807.9338
 Red. masses --      1.1191                 1.0932                 1.0662
 Frc consts  --      6.5619                 6.5313                 9.1090
 IR Inten    --     23.1829                15.9398                14.7350

 - Thermochemistry -
 -------------------
 Temperature   298.150 Kelvin.  Pressure   1.00000 Atm.
 Atom     1 has atomic number  8 and mass  15.99491

 Molecular mass:   126.06808 amu.
 Principal axes and moments of inertia in atomic units:
                           1         2         3
     Eigenvalues --   479.139331849.308452098.45229
           X            0.99984   0.00611   0.01707
           Y           -0.00615   0.99998   0.00232
           Z           -0.01706  -0.00242   0.99985
 This molecule is an asymmetric top.
 Rotational symmetry number  1.
 Warning -- assumption of classical behavior for rotation
           may cause significant error
 Rotational temperatures (Kelvin)      0.18077     0.04684     0.04128
 Rotational constants (GHZ):           3.76663     0.97590     0.86003
 Zero-point vibrational energy     417129.5 (Joules/Mol)
                                   99.69633 (Kcal/Mol)
 Warning -- explicit consideration of  11 degrees of freedom as
           vibrations may cause significant error
 Vibrational temperatures:     76.34   110.04   223.65   359.94   429.02
          (Kelvin)            485.50   556.96   572.19   598.82   674.22
                              778.47   975.48  1130.51  1160.87  1214.53
                             1268.32  1299.21  1350.01  1383.17  1403.07
                             1438.35  1494.50  1515.96  1620.47  1649.23
                             1667.34  1702.88  1711.76  1742.98  1765.67
                             1831.29  1863.68  1930.32  1980.35  2035.91
                             2049.77  2116.12  2125.10  2152.83  2207.78
                             2466.76  4303.83  4333.63  4359.77  4393.24
                             4402.16  4408.14  4418.91  4538.79  4581.58
                             5478.76

 Zero-point correction=                           0.158876 (Hartree/Particle)
 Thermal correction to Energy=                    0.167501
 Thermal correction to Enthalpy=                  0.168446
 Thermal correction to Gibbs Free Energy=         0.124933
 Sum of electronic and zero-point Energies=           -423.013342
 Sum of electronic and thermal Energies=              -423.004717
 Sum of electronic and thermal Enthalpies=            -423.003773
 Sum of electronic and thermal Free Energies=         -423.047286

                     E (Thermal)             CV                S
                      KCal/Mol        Cal/Mol-Kelvin    Cal/Mol-Kelvin
 Total                  105.109             32.471             91.581
 Electronic               0.000              0.000              0.000
 Translational            0.889              2.981             40.409
 Rotational               0.889              2.981             29.010
 Vibrational            103.331             26.509             22.162
 Vibration     1          0.596              1.976              4.700
 Vibration     2          0.599              1.965              3.979
 Vibration     3          0.620              1.897              2.604
 Vibration     4          0.663              1.762              1.729
 Vibration     5          0.691              1.677              1.427
 Vibration     6          0.718              1.601              1.224
 Vibration     7          0.756              1.498              1.011
 Vibration     8          0.764              1.475              0.971
 Vibration     9          0.779              1.435              0.905
 Vibration    10          0.826              1.320              0.741
 Vibration    11          0.896              1.159              0.563

 Optimization completed.
    -- Stationary point found.
 Normal termination of Gaussian 09 at Tue Jan 28 13:20:31 2020.
