 Gaussian 09, Revision D.01,
 Gaussian 09:  ES64L-G09RevD.01 24-Apr-2013

 -----------------------------
 # b3lyp 6-31G(2df,p) opt Freq
 -----------------------------

 -----
 titel
 -----
 Symbolic Z-matrix:
 Charge =  0 Multiplicity = 1

 SCF Done:  E(RB3LYP) =  -423.124520969     A.U. after   14 cycles
 Optimization completed.
    -- Stationary point found.
 Normal termination of Gaussian 09 at Tue Jan 28 12:40:01 2020.

 ----------------------------------------------------------------------
 #N Geom=AllCheck Guess=TCheck SCRF=Check GenChk RB3LYP/6-31G(2df,p) Fr
 eq
 ----------------------------------------------------------------------

 Structure from the checkpoint file:  "/scratch/puck/g09_1728f8f3-17d8-4e73-9ba9-e49ff8304cb8/Gau-106751.chk"
 -----
 titel
 -----
 Charge =  0 Multiplicity = 1

                         Standard orientation:
 ---------------------------------------------------------------------
 Center     Atomic      Atomic             Coordinates (Angstroms)
 Number     Number       Type             X           Y           Z
 ---------------------------------------------------------------------
      1          6           0       -1.846054   -0.867069    1.073327
      2          6           0       -0.872775   -0.072463    0.214661
      3          6           0       -1.359029    1.198118   -0.249095
      4          6           0       -1.792415    2.251249   -0.640184
      5          6           0        0.072272   -0.841955   -0.723142
      6          8           0        0.031036   -2.234572   -0.755610
      7          6           0        0.630581   -0.222438    0.509514
      8          6           0        1.598062    0.936764    0.425245
      9          8           0        2.878029    0.549707   -0.054294
     10          1           0       -1.452643   -1.867514    1.265328
     11          1           0       -2.020567   -0.365678    2.029967
     12          1           0       -2.811930   -0.967682    0.567966
     13          1           0       -2.170392    3.182008   -0.983623
     14          1           0        0.304707   -0.356817   -1.670095
     15          1           0       -0.664064   -2.501273   -1.367202
     16          1           0        0.830940   -0.935065    1.307681
     17          1           0        1.226460    1.682226   -0.282547
     18          1           0        1.670447    1.432330    1.405948
     19          1           0        3.230675   -0.116838    0.543867
 ---------------------------------------------------------------------

 SCF Done:  E(RB3LYP) =  -423.124520969     A.U. after    1 cycles

 The electronic state is 1-A.
 Alpha  occ. eigenvalues --  -19.15449 -19.13208 -10.24265 -10.22709 -10.21948
 Alpha  occ. eigenvalues --  -10.19603 -10.18323 -10.18088 -10.17077  -1.03959
 Alpha  occ. eigenvalues --   -1.01272  -0.87202  -0.74933  -0.72129  -0.68415
 Alpha  occ. eigenvalues --   -0.61577  -0.58992  -0.53249  -0.52053  -0.50088
 Alpha  occ. eigenvalues --   -0.47723  -0.45523  -0.42833  -0.41114  -0.39544
 Alpha  occ. eigenvalues --   -0.39288  -0.38364  -0.34335  -0.32848  -0.30161
 Alpha  occ. eigenvalues --   -0.29676  -0.27088  -0.25928  -0.23239
 Alpha virt. eigenvalues --    0.04703   0.04885   0.07250   0.08427   0.10863
 Alpha virt. eigenvalues --    0.12550   0.13105   0.13928   0.14675   0.16219
 Alpha virt. eigenvalues --    0.17195   0.18379   0.19633   0.20269   0.23219

 Mulliken charges:
               1
     1  C   -0.473688
     2  C    0.061020
     3  C    0.283148
     4  C   -0.456074
     5  C    0.068413
     6  O   -0.420050
     7  C   -0.112900
     8  C   -0.099934
     9  O   -0.411620
    10  H    0.132148
    11  H    0.127524
    12  H    0.122861
    13  H    0.191743
    14  H    0.105424
    15  H    0.291752
    16  H    0.094215
    17  H    0.121987
    18  H    0.091401
    19  H    0.282629
 Sum of Mulliken charges =   0.00000

 Dipole moment (field-independent basis, Debye):
    X=             -1.2062    Y=             -0.7982    Z=              0.4841  Tot=              1.5252
 Quadrupole moment (field-independent basis, Debye-Ang):
   XX=            -54.8468   YY=            -51.5176   ZZ=            -49.9190
   XY=             -0.8968   XZ=              5.7585   YZ=              0.3853

  Exact polarizability:  82.640  -9.187  89.895   3.046  -5.606  65.046
 Approx polarizability: 112.482 -21.250 138.281   6.637 -12.131  98.524

                      1                      2                      3
                      A                      A                      A
 Frequencies --     62.8133               116.8742               132.9533
 Red. masses --      2.9386                 4.4528                 3.4069
 Frc consts  --      0.0068                 0.0358                 0.0355
 IR Inten    --      2.3658                 0.0809                 0.2953

                      4                      5                      6
                      A                      A                      A
 Frequencies --    174.5111               187.6642               223.6398
 Red. masses --      2.8642                 1.3168                 2.0883
 Frc consts  --      0.0514                 0.0273                 0.0615
 IR Inten    --      0.7059                 2.2135                 9.3335

                      7                      8                      9
                      A                      A                      A
 Frequencies --    256.0762               303.0988               311.3306
 Red. masses --      1.9054                 2.6223                 1.5278
 Frc consts  --      0.0736                 0.1419                 0.0872
 IR Inten    --     29.3692                25.5101                51.4811

                     10                     11                     12
                      A                      A                      A
 Frequencies --    339.1479               381.2625               446.6143
 Red. masses --      1.2563                 4.6069                 4.2481
 Frc consts  --      0.0851                 0.3946                 0.4992
 IR Inten    --    120.7908                 6.7709                13.7217

                     13                     14                     15
                      A                      A                      A
 Frequencies --    530.4657               532.3973               575.9601
 Red. masses --      4.7082                 4.2278                 1.3600
 Frc consts  --      0.7806                 0.7060                 0.2658
 IR Inten    --     17.9365                 6.3443                41.1962

                     16                     17                     18
                      A                      A                      A
 Frequencies --    619.9101               645.5451               691.3670
 Red. masses --      3.2333                 1.2255                 4.0586
 Frc consts  --      0.7321                 0.3009                 1.1430
 IR Inten    --      5.7834                42.9818                 9.3020

                     19                     20                     21
                      A                      A                      A
 Frequencies --    817.5424               889.1529               961.4729
 Red. masses --      3.6211                 2.1523                 1.7106
 Frc consts  --      1.4260                 1.0026                 0.9317
 IR Inten    --     10.3420                 1.6149                18.8545

                     22                     23                     24
                      A                      A                      A
 Frequencies --   1005.3417              1020.5952              1058.7718
 Red. masses --      1.7718                 1.6907                 2.4639
 Frc consts  --      1.0551                 1.0376                 1.6274
 IR Inten    --     29.9954                14.9938                51.5012

                     25                     26                     27
                      A                      A                      A
 Frequencies --   1097.8921              1105.8671              1119.9822
 Red. masses --      1.4288                 2.0825                 2.8368
 Frc consts  --      1.0147                 1.5005                 2.0965
 IR Inten    --      9.8588                26.0359                32.2363

                     28                     29                     30
                      A                      A                      A
 Frequencies --   1151.8596              1198.6509              1259.2075
 Red. masses --      1.9148                 1.9867                 1.7280
 Frc consts  --      1.4968                 1.6818                 1.6143
 IR Inten    --     85.3205                15.4070                30.0443

                     31                     32                     33
                      A                      A                      A
 Frequencies --   1277.0391              1294.4933              1365.3937
 Red. masses --      2.4311                 1.2175                 1.2757
 Frc consts  --      2.3359                 1.2021                 1.4012
 IR Inten    --      5.6911                70.0911                 4.6449

                     34                     35                     36
                      A                      A                      A
 Frequencies --   1383.0565              1406.3919              1425.1059
 Red. masses --      1.3356                 1.2451                 1.2422
 Frc consts  --      1.5052                 1.4510                 1.4865
 IR Inten    --     15.7120                 0.4845                37.4727

                     37                     38                     39
                      A                      A                      A
 Frequencies --   1477.0396              1490.9274              1501.7969
 Red. masses --      2.0084                 1.0476                 1.0884
 Frc consts  --      2.5815                 1.3720                 1.4463
 IR Inten    --     11.8716                 3.3838                 6.0662

                     40                     41                     42
                      A                      A                      A
 Frequencies --   1509.6758              2225.7059              2984.1865
 Red. masses --      1.1292                 6.0518                 1.0718
 Frc consts  --      1.5163                17.6631                 5.6235
 IR Inten    --      3.8227                15.3781                58.7285

                     43                     44                     45
                      A                      A                      A
 Frequencies --   3040.7120              3096.8507              3104.0947
 Red. masses --      1.0354                 1.0902                 1.1016
 Frc consts  --      5.6406                 6.1600                 6.2539
 IR Inten    --     28.2511                 6.1251                18.2505

                     46                     47                     48
                      A                      A                      A
 Frequencies --   3117.0402              3129.3951              3134.6149
 Red. masses --      1.0890                 1.0932                 1.0948
 Frc consts  --      6.2342                 6.3078                 6.3379
 IR Inten    --     10.1304                 8.0733                20.8150

                     49                     50                     51
                      A                      A                      A
 Frequencies --   3502.7007              3801.8789              3815.3241
 Red. masses --      1.1591                 1.0661                 1.0663
 Frc consts  --      8.3787                 9.0790                 9.1448
 IR Inten    --     81.4048                26.7414                20.7300

 - Thermochemistry -
 -------------------
 Temperature   298.150 Kelvin.  Pressure   1.00000 Atm.
 Atom     1 has atomic number  6 and mass  12.00000

 Molecular mass:   126.06808 amu.
 Principal axes and moments of inertia in atomic units:
                           1         2         3
     Eigenvalues --   981.676451322.929711900.82760
           X            0.99908   0.04299  -0.00101
           Y           -0.04300   0.99895  -0.01550
           Z            0.00035   0.01553   0.99988
 This molecule is an asymmetric top.
 Rotational symmetry number  1.
 Warning -- assumption of classical behavior for rotation
           may cause significant error
 Rotational temperatures (Kelvin)      0.08823     0.06547     0.04557
 Rotational constants (GHZ):           1.83843     1.36420     0.94945
 Zero-point vibrational energy     408533.0 (Joules/Mol)
                                   97.64174 (Kcal/Mol)
 Warning -- explicit consideration of  16 degrees of freedom as
           vibrations may cause significant error
 Vibrational temperatures:     90.37   168.16   191.29   251.08   270.01
          (Kelvin)            321.77   368.44   436.09   447.93   487.96
                              548.55   642.58   763.22   766.00   828.68
                              891.91   928.79   994.72  1176.26  1279.29
                             1383.34  1446.46  1468.41  1523.33  1579.62
                             1591.09  1611.40  1657.27  1724.59  1811.72
                             1837.37  1862.48  1964.49  1989.91  2023.48
                             2050.41  2125.13  2145.11  2160.75  2172.08
                             3202.29  4293.57  4374.90  4455.67  4466.09
                             4484.72  4502.50  4510.01  5039.60  5470.05
                             5489.39

 Zero-point correction=                           0.155602 (Hartree/Particle)
 Thermal correction to Energy=                    0.166043
 Thermal correction to Enthalpy=                  0.166988
 Thermal correction to Gibbs Free Energy=         0.120356
 Sum of electronic and zero-point Energies=           -422.968919
 Sum of electronic and thermal Energies=              -422.958478
 Sum of electronic and thermal Enthalpies=            -422.957533
 Sum of electronic and thermal Free Energies=         -423.004165

                     E (Thermal)             CV                S
                      KCal/Mol        Cal/Mol-Kelvin    Cal/Mol-Kelvin
 Total                  104.194             38.180             98.145
 Electronic               0.000              0.000              0.000
 Translational            0.889              2.981             40.409
 Rotational               0.889              2.981             29.291
 Vibrational            102.416             32.218             28.445
 Vibration     1          0.597              1.972              4.367
 Vibration     2          0.608              1.935              3.151
 Vibration     3          0.613              1.920              2.903
 Vibration     4          0.627              1.874              2.386
 Vibration     5          0.632              1.857              2.251
 Vibration     6          0.649              1.805              1.929
 Vibration     7          0.666              1.753              1.688
 Vibration     8          0.695              1.668              1.400
 Vibration     9          0.700              1.652              1.355
 Vibration    10          0.719              1.597              1.216
 Vibration    11          0.751              1.510              1.034
 Vibration    12          0.806              1.368              0.806
 Vibration    13          0.885              1.183              0.586
 Vibration    14          0.887              1.178              0.582
 Vibration    15          0.932              1.083              0.493
 Vibration    16          0.980              0.990              0.417

 Normal termination of Gaussian 09 at Tue Jan 28 13:20:36 2020.
