 Gaussian 09, Revision D.01,
 Gaussian 09:  ES64L-G09RevD.01 24-Apr-2013

 -----------------------------
 # b3lyp 6-31G(2df,p) opt Freq
 -----------------------------

 -----
 titel
 -----
 Symbolic Z-matrix:
 Charge =  0 Multiplicity = 1

 SCF Done:  E(RB3LYP) =  -423.211829208     A.U. after   14 cycles
 Optimization completed.
    -- Stationary point found.
 Normal termination of Gaussian 09 at Tue Jan 28 02:06:46 2020.

 ----------------------------------------------------------------------
 #N Geom=AllCheck Guess=TCheck SCRF=Check GenChk RB3LYP/6-31G(2df,p) Fr
 eq
 ----------------------------------------------------------------------

 Structure from the checkpoint file:  "/scratch/puck/g09_30c51c9b-53d8-4aa2-8bd3-26958a71f2b1/Gau-193996.chk"
 -----
 titel
 -----
 Charge =  0 Multiplicity = 1

                         Standard orientation:
 ---------------------------------------------------------------------
 Center     Atomic      Atomic             Coordinates (Angstroms)
 Number     Number       Type             X           Y           Z
 ---------------------------------------------------------------------
      1          8           0        2.381980    0.330158   -0.720279
      2          6           0        1.581109   -0.722947   -0.322926
      3          6           0        1.171871   -0.930328    1.090800
      4          6           0        0.111929   -0.495505    0.064097
      5          6           0       -1.068465   -1.356076   -0.364379
      6          6           0       -2.303637   -0.497163    0.009496
      7          6           0       -1.837329    0.954989   -0.192496
      8          6           0       -0.345759    0.917351    0.126845
      9          8           0        0.363177    1.879187    0.364320
     10          1           0        2.026971    1.134470   -0.303082
     11          1           0        1.768506   -1.604221   -0.930468
     12          1           0        1.082340   -1.941580    1.474860
     13          1           0        1.468509   -0.176427    1.813643
     14          1           0       -1.044464   -1.529248   -1.447733
     15          1           0       -1.083159   -2.336393    0.119512
     16          1           0       -3.186118   -0.750829   -0.582158
     17          1           0       -2.557870   -0.657954    1.062932
     18          1           0       -1.939947    1.263460   -1.242137
     19          1           0       -2.354339    1.702031    0.413678
 ---------------------------------------------------------------------

 SCF Done:  E(RB3LYP) =  -423.211829208     A.U. after    1 cycles

 The electronic state is 1-A.
 Alpha  occ. eigenvalues --  -19.13611 -19.13243 -10.27146 -10.24794 -10.20234
 Alpha  occ. eigenvalues --  -10.19716 -10.19712 -10.19687 -10.19594  -1.04834
 Alpha  occ. eigenvalues --   -1.02036  -0.87011  -0.81292  -0.70741  -0.66639
 Alpha  occ. eigenvalues --   -0.61638  -0.59166  -0.54442  -0.49748  -0.48415
 Alpha  occ. eigenvalues --   -0.47225  -0.44815  -0.42616  -0.41734  -0.40196
 Alpha  occ. eigenvalues --   -0.39423  -0.38468  -0.36552  -0.35830  -0.35364
 Alpha  occ. eigenvalues --   -0.34051  -0.28455  -0.25422  -0.23831
 Alpha virt. eigenvalues --   -0.02531   0.08321   0.09528   0.10839   0.12560
 Alpha virt. eigenvalues --    0.13127   0.14238   0.14794   0.16132   0.17367
 Alpha virt. eigenvalues --    0.18801   0.19417   0.19675   0.20320   0.22385

 Mulliken charges:
               1
     1  O   -0.426850
     2  C    0.103707
     3  C   -0.365399
     4  C    0.172663
     5  C   -0.315821
     6  C   -0.218969
     7  C   -0.316562
     8  C    0.381789
     9  O   -0.382128
    10  H    0.303843
    11  H    0.112379
    12  H    0.120141
    13  H    0.133385
    14  H    0.109518
    15  H    0.105648
    16  H    0.106557
    17  H    0.111979
    18  H    0.134458
    19  H    0.129660
 Sum of Mulliken charges =   0.00000

 Dipole moment (field-independent basis, Debye):
    X=             -2.7036    Y=             -2.1768    Z=              0.3560  Tot=              3.4892
 Quadrupole moment (field-independent basis, Debye-Ang):
   XX=            -55.9569   YY=            -54.4987   ZZ=            -52.5141
   XY=             -2.1424   XZ=              2.6091   YZ=             -0.7365

  Exact polarizability:  87.102  -2.250  78.175   2.449  -0.322  63.757
 Approx polarizability: 118.491   0.010 120.001   1.605   0.951  99.757

                      1                      2                      3
                      A                      A                      A
 Frequencies --     80.0351               165.9540               190.1424
 Red. masses --      3.4553                 2.1656                 3.8585
 Frc consts  --      0.0130                 0.0351                 0.0822
 IR Inten    --      2.1965                 1.1851                 3.3414

                      4                      5                      6
                      A                      A                      A
 Frequencies --    244.2834               282.7152               396.6362
 Red. masses --      4.5034                 2.8483                 3.5971
 Frc consts  --      0.1583                 0.1341                 0.3334
 IR Inten    --      1.9224                 0.3359                 2.1934

                      7                      8                      9
                      A                      A                      A
 Frequencies --    449.9037               464.9789               534.8005
 Red. masses --      4.3127                 2.3320                 2.0268
 Frc consts  --      0.5143                 0.2971                 0.3415
 IR Inten    --      9.0165                 2.6752                14.6519

                     10                     11                     12
                      A                      A                      A
 Frequencies --    568.7362               591.4271               669.3222
 Red. masses --      1.1336                 3.0299                 2.6286
 Frc consts  --      0.2160                 0.6244                 0.6938
 IR Inten    --     94.4188                 0.5237                 7.5701

                     13                     14                     15
                      A                      A                      A
 Frequencies --    675.5181               768.6297               840.6681
 Red. masses --      3.9997                 3.5090                 2.1037
 Frc consts  --      1.0754                 1.2214                 0.8760
 IR Inten    --      5.3816                 4.5667                30.6091

                     16                     17                     18
                      A                      A                      A
 Frequencies --    856.5230               872.9647               914.1264
 Red. masses --      2.2857                 1.7372                 1.9996
 Frc consts  --      0.9880                 0.7800                 0.9845
 IR Inten    --     29.8427                 5.1326                 0.6128

                     19                     20                     21
                      A                      A                      A
 Frequencies --    931.8378               967.9480              1009.3175
 Red. masses --      1.7379                 1.8941                 2.0956
 Frc consts  --      0.8891                 1.0456                 1.2578
 IR Inten    --      5.2721                19.5640                 2.4324

                     22                     23                     24
                      A                      A                      A
 Frequencies --   1041.3832              1071.0417              1084.1587
 Red. masses --      1.3741                 1.8017                 1.9691
 Frc consts  --      0.8780                 1.2177                 1.3636
 IR Inten    --      8.3503                10.6615                46.6244

                     25                     26                     27
                      A                      A                      A
 Frequencies --   1109.1795              1154.2623              1181.7893
 Red. masses --      1.4894                 1.6853                 2.2761
 Frc consts  --      1.0796                 1.3229                 1.8729
 IR Inten    --     24.2271                26.6569                87.5459

                     28                     29                     30
                      A                      A                      A
 Frequencies --   1193.2810              1243.3697              1257.8381
 Red. masses --      1.4820                 1.4023                 2.0833
 Frc consts  --      1.2433                 1.2773                 1.9420
 IR Inten    --     18.5817                 9.1963                10.3015

                     31                     32                     33
                      A                      A                      A
 Frequencies --   1297.8165              1303.5574              1338.3477
 Red. masses --      1.8081                 1.5064                 1.3177
 Frc consts  --      1.7943                 1.5082                 1.3906
 IR Inten    --     25.8735                 8.5326                 1.2941

                     34                     35                     36
                      A                      A                      A
 Frequencies --   1359.3890              1368.2021              1449.4235
 Red. masses --      1.8008                 1.9722                 1.1359
 Frc consts  --      1.9607                 2.1752                 1.4059
 IR Inten    --     55.5364                11.7212                23.6342

                     37                     38                     39
                      A                      A                      A
 Frequencies --   1452.1916              1487.9827              1493.0637
 Red. masses --      1.0847                 1.3554                 1.1292
 Frc consts  --      1.3477                 1.7681                 1.4831
 IR Inten    --      6.3424               125.0303                11.2801

                     40                     41                     42
                      A                      A                      A
 Frequencies --   1505.0827              1777.8785              3026.9355
 Red. masses --      1.1010                11.4087                 1.0678
 Frc consts  --      1.4695                21.2467                 5.7644
 IR Inten    --      0.4474               165.0362                26.3363

                     43                     44                     45
                      A                      A                      A
 Frequencies --   3027.3717              3048.7306              3087.6405
 Red. masses --      1.0691                 1.0639                 1.0953
 Frc consts  --      5.7731                 5.8263                 6.1524
 IR Inten    --      7.8826                27.0330                24.0399

                     46                     47                     48
                      A                      A                      A
 Frequencies --   3104.5724              3112.7823              3121.4093
 Red. masses --      1.0983                 1.0969                 1.0532
 Frc consts  --      6.2372                 6.2622                 6.0456
 IR Inten    --     25.0812                15.7243                 8.8672

                     49                     50                     51
                      A                      A                      A
 Frequencies --   3152.4711              3218.2378              3632.5465
 Red. masses --      1.0897                 1.1176                 1.0657
 Frc consts  --      6.3808                 6.8199                 8.2855
 IR Inten    --     15.5244                 3.9205                91.6023

 - Thermochemistry -
 -------------------
 Temperature   298.150 Kelvin.  Pressure   1.00000 Atm.
 Atom     1 has atomic number  8 and mass  15.99491

 Molecular mass:   126.06808 amu.
 Principal axes and moments of inertia in atomic units:
                           1         2         3
     Eigenvalues --   659.957181205.993181580.52209
           X            0.99987  -0.00568   0.01516
           Y            0.00586   0.99991  -0.01186
           Z           -0.01510   0.01195   0.99981
 This molecule is an asymmetric top.
 Rotational symmetry number  1.
 Warning -- assumption of classical behavior for rotation
           may cause significant error
 Rotational temperatures (Kelvin)      0.13124     0.07182     0.05480
 Rotational constants (GHZ):           2.73463     1.49648     1.14186
 Zero-point vibrational energy     419760.1 (Joules/Mol)
                                  100.32507 (Kcal/Mol)
 Warning -- explicit consideration of  11 degrees of freedom as
           vibrations may cause significant error
 Vibrational temperatures:    115.15   238.77   273.57   351.47   406.76
          (Kelvin)            570.67   647.31   669.00   769.46   818.28
                              850.93   963.00   971.92  1105.89  1209.53
                             1232.34  1256.00  1315.22  1340.71  1392.66
                             1452.18  1498.32  1540.99  1559.86  1595.86
                             1660.72  1700.33  1716.86  1788.93  1809.75
                             1867.27  1875.53  1925.58  1955.86  1968.54
                             2085.39  2089.38  2140.87  2148.18  2165.48
                             2557.97  4355.08  4355.71  4386.44  4442.42
                             4466.78  4478.59  4491.01  4535.70  4630.32
                             5226.42

 Zero-point correction=                           0.159878 (Hartree/Particle)
 Thermal correction to Energy=                    0.167958
 Thermal correction to Enthalpy=                  0.168902
 Thermal correction to Gibbs Free Energy=         0.127318
 Sum of electronic and zero-point Energies=           -423.051951
 Sum of electronic and thermal Energies=              -423.043872
 Sum of electronic and thermal Enthalpies=            -423.042927
 Sum of electronic and thermal Free Energies=         -423.084511

                     E (Thermal)             CV                S
                      KCal/Mol        Cal/Mol-Kelvin    Cal/Mol-Kelvin
 Total                  105.395             31.821             87.520
 Electronic               0.000              0.000              0.000
 Translational            0.889              2.981             40.409
 Rotational               0.889              2.981             28.622
 Vibrational            103.618             25.859             18.490
 Vibration     1          0.600              1.963              3.890
 Vibration     2          0.624              1.884              2.481
 Vibration     3          0.633              1.853              2.226
 Vibration     4          0.660              1.772              1.771
 Vibration     5          0.682              1.706              1.517
 Vibration     6          0.763              1.477              0.975
 Vibration     7          0.809              1.361              0.796
 Vibration     8          0.822              1.328              0.752
 Vibration     9          0.890              1.173              0.577
 Vibration    10          0.925              1.099              0.507
 Vibration    11          0.949              1.050              0.465

 Optimization completed.
    -- Stationary point found.
 Normal termination of Gaussian 09 at Tue Jan 28 02:50:29 2020.
