 Gaussian 09, Revision D.01,
 Gaussian 09:  ES64L-G09RevD.01 24-Apr-2013

 -----------------------------
 # b3lyp 6-31G(2df,p) opt Freq
 -----------------------------

 -----
 titel
 -----
 Symbolic Z-matrix:
 Charge =  0 Multiplicity = 1

 SCF Done:  E(RB3LYP) =  -423.163043343     A.U. after   14 cycles
 Optimization completed.
    -- Stationary point found.
 Normal termination of Gaussian 09 at Mon Jan 27 16:27:44 2020.

 ----------------------------------------------------------------------
 #N Geom=AllCheck Guess=TCheck SCRF=Check GenChk RB3LYP/6-31G(2df,p) Fr
 eq
 ----------------------------------------------------------------------

 Structure from the checkpoint file:  "/scratch/puck/g09_4cd999db-5560-4b22-889d-54fc56790715/Gau-83505.chk"
 -----
 titel
 -----
 Charge =  0 Multiplicity = 1

                         Standard orientation:
 ---------------------------------------------------------------------
 Center     Atomic      Atomic             Coordinates (Angstroms)
 Number     Number       Type             X           Y           Z
 ---------------------------------------------------------------------
      1          8           0       -0.235732    0.234292    1.492922
      2          6           0       -0.199117    0.380007    0.100557
      3          6           0        0.552278    1.569920   -0.363902
      4          6           0        1.155606    0.180902   -0.606228
      5          6           0        2.344774   -0.218740    0.175297
      6          8           0        3.201817   -0.969447   -0.227495
      7          6           0       -1.435155   -0.059934   -0.630256
      8          6           0       -2.797563    0.173701   -0.028263
      9          6           0       -2.258409   -1.230105   -0.149806
     10          1           0       -0.223288   -0.707271    1.699402
     11          1           0        0.198444    2.115555   -1.230789
     12          1           0        1.027253    2.173843    0.402033
     13          1           0        1.129945   -0.217081   -1.615063
     14          1           0        2.400343    0.227473    1.192394
     15          1           0       -1.356617    0.052768   -1.707462
     16          1           0       -2.826377    0.605171    0.965482
     17          1           0       -3.603096    0.481695   -0.684959
     18          1           0       -1.968536   -1.732582    0.767243
     19          1           0       -2.681230   -1.892837   -0.896093
 ---------------------------------------------------------------------

 SCF Done:  E(RB3LYP) =  -423.163043343     A.U. after    1 cycles

 The electronic state is 1-A.
 Alpha  occ. eigenvalues --  -19.16351 -19.12726 -10.26422 -10.26364 -10.20535
 Alpha  occ. eigenvalues --  -10.20390 -10.20189 -10.19671 -10.19203  -1.05137
 Alpha  occ. eigenvalues --   -1.03414  -0.87648  -0.85384  -0.68024  -0.64152
 Alpha  occ. eigenvalues --   -0.60952  -0.58832  -0.57123  -0.52025  -0.51786
 Alpha  occ. eigenvalues --   -0.48633  -0.45025  -0.43162  -0.42778  -0.40221
 Alpha  occ. eigenvalues --   -0.39624  -0.38235  -0.37089  -0.33974  -0.33449
 Alpha  occ. eigenvalues --   -0.30992  -0.28819  -0.26651  -0.24045
 Alpha virt. eigenvalues --   -0.01826   0.05845   0.07465   0.11143   0.11709
 Alpha virt. eigenvalues --    0.12978   0.13645   0.14273   0.15134   0.16082
 Alpha virt. eigenvalues --    0.17712   0.19696   0.20347   0.21619   0.22290

 Mulliken charges:
               1
     1  O   -0.457927
     2  C    0.375362
     3  C   -0.336021
     4  C   -0.174531
     5  C    0.148300
     6  O   -0.273782
     7  C   -0.025194
     8  C   -0.264959
     9  C   -0.288289
    10  H    0.291699
    11  H    0.129176
    12  H    0.135003
    13  H    0.105380
    14  H    0.079546
    15  H    0.089552
    16  H    0.129657
    17  H    0.115130
    18  H    0.102127
    19  H    0.119773
 Sum of Mulliken charges =   0.00000

 Dipole moment (field-independent basis, Debye):
    X=             -2.9087    Y=              0.6782    Z=             -0.2906  Tot=              3.0008
 Quadrupole moment (field-independent basis, Debye-Ang):
   XX=            -63.8967   YY=            -52.7083   ZZ=            -51.2776
   XY=              5.9398   XZ=              3.3542   YZ=             -3.1360

  Exact polarizability:  95.604  -3.664  72.649   0.383   0.274  67.631
 Approx polarizability: 126.581 -12.934 112.941  -4.226   2.562 104.205

                      1                      2                      3
                      A                      A                      A
 Frequencies --     57.6185               105.7207               129.3601
 Red. masses --      4.0933                 3.6357                 4.0624
 Frc consts  --      0.0080                 0.0239                 0.0401
 IR Inten    --      1.7136                 3.1837                 3.2482

                      4                      5                      6
                      A                      A                      A
 Frequencies --    202.9599               260.5381               292.2362
 Red. masses --      2.4495                 4.0342                 2.7522
 Frc consts  --      0.0595                 0.1613                 0.1385
 IR Inten    --      0.9760                 5.2143                 5.6296

                      7                      8                      9
                      A                      A                      A
 Frequencies --    334.2840               381.4512               424.8838
 Red. masses --      3.8637                 1.3757                 1.6514
 Frc consts  --      0.2544                 0.1179                 0.1756
 IR Inten    --      4.2205                99.7933                26.8051

                     10                     11                     12
                      A                      A                      A
 Frequencies --    458.9873               493.3878               598.1924
 Red. masses --      4.1026                 3.2809                 3.7650
 Frc consts  --      0.5092                 0.4706                 0.7938
 IR Inten    --      1.3354                14.1350                16.7959

                     13                     14                     15
                      A                      A                      A
 Frequencies --    681.9650               787.8855               818.4189
 Red. masses --      2.5458                 1.0957                 1.3878
 Frc consts  --      0.6976                 0.4007                 0.5477
 IR Inten    --      1.9821                 0.4017                 0.4760

                     16                     17                     18
                      A                      A                      A
 Frequencies --    839.0456               865.1304               894.1955
 Red. masses --      1.7241                 1.9270                 2.7438
 Frc consts  --      0.7151                 0.8497                 1.2926
 IR Inten    --     22.4985                 4.4505                41.5057

                     19                     20                     21
                      A                      A                      A
 Frequencies --    931.7812               962.7600               992.2169
 Red. masses --      3.2208                 1.9857                 2.8388
 Frc consts  --      1.6476                 1.0844                 1.6466
 IR Inten    --     50.7641                 1.9808                21.9332

                     22                     23                     24
                      A                      A                      A
 Frequencies --   1037.7652              1054.3909              1060.7458
 Red. masses --      1.8772                 1.5053                 1.3921
 Frc consts  --      1.1911                 0.9860                 0.9229
 IR Inten    --     29.6330                 4.5007                 1.8783

                     25                     26                     27
                      A                      A                      A
 Frequencies --   1076.5259              1082.6370              1090.4519
 Red. masses --      1.5025                 1.3782                 1.3639
 Frc consts  --      1.0259                 0.9517                 0.9555
 IR Inten    --      3.6310                 8.6886                14.7022

                     28                     29                     30
                      A                      A                      A
 Frequencies --   1134.2650              1176.6073              1195.0140
 Red. masses --      1.1203                 1.9105                 1.5304
 Frc consts  --      0.8492                 1.5583                 1.2877
 IR Inten    --      0.8886                43.4207                31.4569

                     31                     32                     33
                      A                      A                      A
 Frequencies --   1199.5572              1230.2205              1280.8123
 Red. masses --      1.5188                 1.8580                 1.8724
 Frc consts  --      1.2876                 1.6568                 1.8098
 IR Inten    --     11.1993                18.2497                72.1559

                     34                     35                     36
                      A                      A                      A
 Frequencies --   1337.5819              1351.7263              1424.8368
 Red. masses --      1.7214                 1.9056                 1.3605
 Frc consts  --      1.8145                 2.0514                 1.6274
 IR Inten    --     20.4654                 4.2295                 0.1491

                     37                     38                     39
                      A                      A                      A
 Frequencies --   1443.9163              1462.7453              1480.7679
 Red. masses --      1.3505                 1.0896                 1.4688
 Frc consts  --      1.6589                 1.3735                 1.8975
 IR Inten    --     11.6726                 2.6013                20.9719

                     40                     41                     42
                      A                      A                      A
 Frequencies --   1508.9729              1808.0114              2891.8958
 Red. masses --      1.6183                 9.8284                 1.0822
 Frc consts  --      2.1710                18.9294                 5.3325
 IR Inten    --      4.0432               273.5994                74.7599

                     43                     44                     45
                      A                      A                      A
 Frequencies --   3133.6524              3137.5308              3142.7815
 Red. masses --      1.0536                 1.0546                 1.0563
 Frc consts  --      6.0958                 6.1166                 6.1472
 IR Inten    --     16.0302                 6.0858                11.6674

                     46                     47                     48
                      A                      A                      A
 Frequencies --   3151.5147              3175.0377              3213.6306
 Red. masses --      1.0876                 1.0897                 1.1164
 Frc consts  --      6.3646                 6.4720                 6.7929
 IR Inten    --      5.3402                 4.5327                 5.3402

                     49                     50                     51
                      A                      A                      A
 Frequencies --   3230.6336              3234.9466              3796.8011
 Red. masses --      1.1174                 1.1160                 1.0657
 Frc consts  --      6.8715                 6.8807                 9.0516
 IR Inten    --      1.9529                10.4911                17.8859

 - Thermochemistry -
 -------------------
 Temperature   298.150 Kelvin.  Pressure   1.00000 Atm.
 Atom     1 has atomic number  8 and mass  15.99491

 Molecular mass:   126.06808 amu.
 Principal axes and moments of inertia in atomic units:
                           1         2         3
     Eigenvalues --   521.656331911.176961988.24830
           X            0.99975   0.02110   0.00772
           Y           -0.02043   0.99667  -0.07888
           Z           -0.00936   0.07871   0.99685
 This molecule is an asymmetric top.
 Rotational symmetry number  1.
 Warning -- assumption of classical behavior for rotation
           may cause significant error
 Rotational temperatures (Kelvin)      0.16604     0.04532     0.04356
 Rotational constants (GHZ):           3.45964     0.94431     0.90770
 Zero-point vibrational energy     413064.5 (Joules/Mol)
                                   98.72479 (Kcal/Mol)
 Warning -- explicit consideration of  12 degrees of freedom as
           vibrations may cause significant error
 Vibrational temperatures:     82.90   152.11   186.12   292.01   374.86
          (Kelvin)            420.46   480.96   548.82   611.31   660.38
                              709.87   860.66   981.19  1133.59  1177.52
                             1207.20  1244.73  1286.55  1340.62  1385.20
                             1427.58  1493.11  1517.03  1526.17  1548.88
                             1557.67  1568.92  1631.95  1692.87  1719.36
                             1725.89  1770.01  1842.80  1924.48  1944.83
                             2050.02  2077.47  2104.56  2130.49  2171.07
                             2601.32  4160.79  4508.62  4514.20  4521.76
                             4534.32  4568.17  4623.69  4648.16  4654.36
                             5462.74

 Zero-point correction=                           0.157328 (Hartree/Particle)
 Thermal correction to Energy=                    0.166389
 Thermal correction to Enthalpy=                  0.167333
 Thermal correction to Gibbs Free Energy=         0.123177
 Sum of electronic and zero-point Energies=           -423.005715
 Sum of electronic and thermal Energies=              -422.996654
 Sum of electronic and thermal Enthalpies=            -422.995710
 Sum of electronic and thermal Free Energies=         -423.039866

                     E (Thermal)             CV                S
                      KCal/Mol        Cal/Mol-Kelvin    Cal/Mol-Kelvin
 Total                  104.411             34.108             92.934
 Electronic               0.000              0.000              0.000
 Translational            0.889              2.981             40.409
 Rotational               0.889              2.981             29.073
 Vibrational            102.633             28.147             23.452
 Vibration     1          0.596              1.974              4.537
 Vibration     2          0.605              1.945              3.346
 Vibration     3          0.612              1.924              2.956
 Vibration     4          0.639              1.836              2.106
 Vibration     5          0.669              1.745              1.658
 Vibration     6          0.688              1.688              1.461
 Vibration     7          0.716              1.607              1.239
 Vibration     8          0.751              1.510              1.033
 Vibration     9          0.787              1.416              0.876
 Vibration    10          0.817              1.341              0.769
 Vibration    11          0.849              1.265              0.675
 Vibration    12          0.956              1.036              0.453

 Normal termination of Gaussian 09 at Mon Jan 27 17:06:00 2020.
