 Gaussian 09, Revision D.01,
 Gaussian 09:  ES64L-G09RevD.01 24-Apr-2013

 -----------------------------
 # b3lyp 6-31G(2df,p) opt Freq
 -----------------------------

 -----
 titel
 -----
 Symbolic Z-matrix:
 Charge =  0 Multiplicity = 1

 SCF Done:  E(RB3LYP) =  -423.097369440     A.U. after   14 cycles
 Optimization completed.
    -- Stationary point found.
 Normal termination of Gaussian 09 at Mon Jan 27 23:44:59 2020.

 ----------------------------------------------------------------------
 #N Geom=AllCheck Guess=TCheck SCRF=Check GenChk RB3LYP/6-31G(2df,p) Fr
 eq
 ----------------------------------------------------------------------

 Structure from the checkpoint file:  "/scratch/puck/g09_0a5151de-1810-4a34-a187-1f47220874fb/Gau-193845.chk"
 -----
 titel
 -----
 Charge =  0 Multiplicity = 1

                         Standard orientation:
 ---------------------------------------------------------------------
 Center     Atomic      Atomic             Coordinates (Angstroms)
 Number     Number       Type             X           Y           Z
 ---------------------------------------------------------------------
      1          6           0       -2.431450   -0.924135   -0.188303
      2          6           0       -1.194840   -0.370834    0.511090
      3          6           0       -0.880321    1.155368    0.214206
      4          6           0        0.477885    1.303613    0.899627
      5          6           0        0.822923    0.442303   -0.325057
      6          6           0        2.121380   -0.379322   -0.365243
      7          8           0        1.412652   -1.367720    0.462589
      8          6           0        0.142471   -0.870967   -0.102325
      9          8           0       -0.163295    1.203119   -1.097491
     10          1           0       -2.525115   -2.003842   -0.033753
     11          1           0       -3.343764   -0.450332    0.188870
     12          1           0       -2.377584   -0.738621   -1.266014
     13          1           0       -1.267732   -0.509777    1.593594
     14          1           0       -1.690694    1.881579    0.271878
     15          1           0        0.893702    2.306877    0.797839
     16          1           0        0.626757    0.891649    1.899297
     17          1           0        2.384442   -0.796937   -1.344591
     18          1           0        3.003479    0.022662    0.139639
     19          1           0       -0.046636   -1.422604   -1.031513
 ---------------------------------------------------------------------

 SCF Done:  E(RB3LYP) =  -423.097369440     A.U. after    1 cycles

 The electronic state is 1-A.
 Alpha  occ. eigenvalues --  -19.14541 -19.14308 -10.24559 -10.24426 -10.24089
 Alpha  occ. eigenvalues --  -10.22408 -10.20098 -10.18893 -10.17938  -1.05938
 Alpha  occ. eigenvalues --   -1.02311  -0.80716  -0.74927  -0.71110  -0.68692
 Alpha  occ. eigenvalues --   -0.63896  -0.56689  -0.54353  -0.51198  -0.47937
 Alpha  occ. eigenvalues --   -0.46851  -0.45009  -0.43292  -0.41534  -0.40192
 Alpha  occ. eigenvalues --   -0.37938  -0.37725  -0.35026  -0.34111  -0.33474
 Alpha  occ. eigenvalues --   -0.31765  -0.29067  -0.25787  -0.24521
 Alpha virt. eigenvalues --    0.05520   0.09053   0.09697   0.10735   0.12159
 Alpha virt. eigenvalues --    0.12716   0.13114   0.13794   0.15529   0.15738
 Alpha virt. eigenvalues --    0.16667   0.17883   0.18865   0.19467   0.20683

 Mulliken charges:
               1
     1  C   -0.422320
     2  C   -0.061627
     3  C    0.049894
     4  C   -0.259433
     5  C    0.374591
     6  C   -0.211809
     7  O   -0.318214
     8  C    0.135965
     9  O   -0.369879
    10  H    0.122252
    11  H    0.113785
    12  H    0.131712
    13  H    0.094262
    14  H    0.085767
    15  H    0.109553
    16  H    0.109934
    17  H    0.116248
    18  H    0.117893
    19  H    0.081425
 Sum of Mulliken charges =   0.00000

 Dipole moment (field-independent basis, Debye):
    X=             -0.4575    Y=              0.5780    Z=              0.7336  Tot=              1.0400
 Quadrupole moment (field-independent basis, Debye-Ang):
   XX=            -49.4528   YY=            -55.9124   ZZ=            -54.7656
   XY=              2.2516   XZ=             -2.7126   YZ=              4.4107

  Exact polarizability:  89.112   0.120  71.305  -1.207   3.881  64.393
 Approx polarizability: 119.947  -4.004 106.569  -0.401  -1.325 105.317

                      1                      2                      3
                      A                      A                      A
 Frequencies --    155.5219               230.8633               251.6350
 Red. masses --      3.2104                 1.0533                 2.5097
 Frc consts  --      0.0458                 0.0331                 0.0936
 IR Inten    --      0.7432                 0.3312                 0.2387

                      4                      5                      6
                      A                      A                      A
 Frequencies --    282.8221               320.5063               391.3408
 Red. masses --      4.1444                 2.8527                 2.4125
 Frc consts  --      0.1953                 0.1727                 0.2177
 IR Inten    --      8.4788                 8.2995                 3.8785

                      7                      8                      9
                      A                      A                      A
 Frequencies --    486.4118               543.9439               578.1356
 Red. masses --      2.8877                 3.4543                 5.6664
 Frc consts  --      0.4025                 0.6022                 1.1159
 IR Inten    --      1.9001                 4.2668                 5.6322

                     10                     11                     12
                      A                      A                      A
 Frequencies --    637.8818               734.8529               761.8378
 Red. masses --      3.8664                 3.5265                 2.9867
 Frc consts  --      0.9269                 1.1220                 1.0213
 IR Inten    --      5.5018                 3.1756                 7.3684

                     13                     14                     15
                      A                      A                      A
 Frequencies --    803.8871               841.5151               891.6279
 Red. masses --      4.4861                 2.1645                 5.0896
 Frc consts  --      1.7081                 0.9031                 2.3840
 IR Inten    --     36.8450                 2.6837                58.5699

                     16                     17                     18
                      A                      A                      A
 Frequencies --    903.5578               927.7102               962.1222
 Red. masses --      2.7895                 2.0514                 1.9996
 Frc consts  --      1.3418                 1.0402                 1.0906
 IR Inten    --      4.1584                37.6910                 4.5388

                     19                     20                     21
                      A                      A                      A
 Frequencies --    982.8716              1025.5158              1033.9584
 Red. masses --      3.6519                 1.8561                 1.4178
 Frc consts  --      2.0786                 1.1501                 0.8930
 IR Inten    --     11.7756                 6.9122                 8.6825

                     22                     23                     24
                      A                      A                      A
 Frequencies --   1059.2881              1075.2556              1096.8583
 Red. masses --      1.8905                 1.7611                 1.3733
 Frc consts  --      1.2498                 1.1997                 0.9735
 IR Inten    --      6.9747                 1.3855                 1.6498

                     25                     26                     27
                      A                      A                      A
 Frequencies --   1137.5542              1143.4506              1172.0790
 Red. masses --      1.5680                 2.1228                 1.8384
 Frc consts  --      1.1954                 1.6353                 1.4880
 IR Inten    --      2.1490                 1.2386                 8.6409

                     28                     29                     30
                      A                      A                      A
 Frequencies --   1199.4260              1218.3509              1233.9867
 Red. masses --      1.6525                 1.6554                 1.8109
 Frc consts  --      1.4006                 1.4478                 1.6247
 IR Inten    --      6.1440                13.2437                16.5158

                     31                     32                     33
                      A                      A                      A
 Frequencies --   1267.8744              1278.2063              1314.8478
 Red. masses --      1.8259                 1.3948                 2.4884
 Frc consts  --      1.7294                 1.3426                 2.5347
 IR Inten    --      0.5297                 2.0682                 8.4172

                     34                     35                     36
                      A                      A                      A
 Frequencies --   1319.6821              1342.0526              1403.3337
 Red. masses --      2.0199                 1.3614                 1.3021
 Frc consts  --      2.0727                 1.4447                 1.5108
 IR Inten    --      3.2614                 1.5600                 3.2887

                     37                     38                     39
                      A                      A                      A
 Frequencies --   1411.8486              1487.9372              1495.3240
 Red. masses --      1.2100                 1.1615                 1.0471
 Frc consts  --      1.4210                 1.5151                 1.3794
 IR Inten    --      2.2554                 1.8622                 6.0735

                     40                     41                     42
                      A                      A                      A
 Frequencies --   1503.4699              1505.2102              3023.2947
 Red. masses --      1.0487                 1.1129                 1.0777
 Frc consts  --      1.3967                 1.4856                 5.8039
 IR Inten    --      3.2326                 0.8924                19.9098

                     43                     44                     45
                      A                      A                      A
 Frequencies --   3031.3470              3033.8406              3068.2610
 Red. masses --      1.0527                 1.0470                 1.0807
 Frc consts  --      5.6993                 5.6777                 5.9944
 IR Inten    --     64.8536                32.5841                 2.2659

                     46                     47                     48
                      A                      A                      A
 Frequencies --   3077.6228              3101.0130              3106.1069
 Red. masses --      1.0609                 1.1014                 1.1081
 Frc consts  --      5.9205                 6.2404                 6.2989
 IR Inten    --     24.7190                20.5684                30.4046

                     49                     50                     51
                      A                      A                      A
 Frequencies --   3108.4190              3131.1577              3147.7071
 Red. masses --      1.1012                 1.0920                 1.1102
 Frc consts  --      6.2688                 6.3079                 6.4812
 IR Inten    --     23.5954                38.3734                19.2477

 - Thermochemistry -
 -------------------
 Temperature   298.150 Kelvin.  Pressure   1.00000 Atm.
 Atom     1 has atomic number  6 and mass  12.00000

 Molecular mass:   126.06808 amu.
 Principal axes and moments of inertia in atomic units:
                           1         2         3
     Eigenvalues --   652.025861033.658061325.48304
           X            0.99805   0.06241  -0.00183
           Y           -0.06205   0.99480   0.08075
           Z            0.00686  -0.08048   0.99673
 This molecule is an asymmetric top.
 Rotational symmetry number  1.
 Warning -- assumption of classical behavior for rotation
           may cause significant error
 Rotational temperatures (Kelvin)      0.13284     0.08379     0.06535
 Rotational constants (GHZ):           2.76790     1.74598     1.36157
 Zero-point vibrational energy     420148.4 (Joules/Mol)
                                  100.41787 (Kcal/Mol)
 Warning -- explicit consideration of   9 degrees of freedom as
           vibrations may cause significant error
 Vibrational temperatures:    223.76   332.16   362.05   406.92   461.14
          (Kelvin)            563.05   699.84   782.61   831.81   917.77
                             1057.29  1096.11  1156.61  1210.75  1282.85
                             1300.02  1334.77  1384.28  1414.13  1475.49
                             1487.63  1524.08  1547.05  1578.13  1636.68
                             1645.17  1686.36  1725.70  1752.93  1775.43
                             1824.19  1839.05  1891.77  1898.73  1930.91
                             2019.08  2031.33  2140.81  2151.44  2163.16
                             2165.66  4349.84  4361.43  4365.01  4414.54
                             4428.01  4461.66  4468.99  4472.32  4505.03
                             4528.84

 Zero-point correction=                           0.160026 (Hartree/Particle)
 Thermal correction to Energy=                    0.167305
 Thermal correction to Enthalpy=                  0.168250
 Thermal correction to Gibbs Free Energy=         0.128722
 Sum of electronic and zero-point Energies=           -422.937343
 Sum of electronic and thermal Energies=              -422.930064
 Sum of electronic and thermal Enthalpies=            -422.929120
 Sum of electronic and thermal Free Energies=         -422.968648

                     E (Thermal)             CV                S
                      KCal/Mol        Cal/Mol-Kelvin    Cal/Mol-Kelvin
 Total                  104.986             29.835             83.193
 Electronic               0.000              0.000              0.000
 Translational            0.889              2.981             40.409
 Rotational               0.889              2.981             28.282
 Vibrational            103.208             23.873             14.503
 Vibration     1          0.620              1.897              2.604
 Vibration     2          0.653              1.794              1.872
 Vibration     3          0.664              1.760              1.719
 Vibration     4          0.682              1.705              1.517
 Vibration     5          0.706              1.634              1.308
 Vibration     6          0.759              1.489              0.995
 Vibration     7          0.842              1.280              0.693
 Vibration     8          0.899              1.153              0.557
 Vibration     9          0.935              1.079              0.489

 Optimization completed.
    -- Stationary point found.
 Normal termination of Gaussian 09 at Tue Jan 28 00:30:11 2020.
