 Gaussian 09, Revision D.01,
 Gaussian 09:  ES64L-G09RevD.01 24-Apr-2013

 -----------------------------
 # b3lyp 6-31G(2df,p) opt Freq
 -----------------------------

 -----
 titel
 -----
 Symbolic Z-matrix:
 Charge =  0 Multiplicity = 1

 SCF Done:  E(RB3LYP) =  -423.146242969     A.U. after   14 cycles
 SCF Done:  E(RB3LYP) =  -423.146242859     A.U. after    7 cycles
 SCF Done:  E(RB3LYP) =  -423.146242932     A.U. after    6 cycles
 Optimization completed.
    -- Stationary point found.
 Normal termination of Gaussian 09 at Mon Jan 27 11:20:24 2020.

 ----------------------------------------------------------------------
 #N Geom=AllCheck Guess=TCheck SCRF=Check GenChk RB3LYP/6-31G(2df,p) Fr
 eq
 ----------------------------------------------------------------------

 Structure from the checkpoint file:  "/scratch/puck/g09_5e9722f9-d1fc-47c6-9ab0-320d029f1019/Gau-39094.chk"
 -----
 titel
 -----
 Charge =  0 Multiplicity = 1

                         Standard orientation:
 ---------------------------------------------------------------------
 Center     Atomic      Atomic             Coordinates (Angstroms)
 Number     Number       Type             X           Y           Z
 ---------------------------------------------------------------------
      1          6           0        3.641278    0.587598   -0.279661
      2          6           0        2.684394   -0.073015    0.022188
      3          6           0        1.525076   -0.884758    0.369036
      4          6           0        0.212951   -0.357342   -0.223515
      5          6           0       -0.954153   -1.319587    0.013066
      6          8           0       -2.171140   -0.762044   -0.451680
      7          6           0       -2.434324    0.488074    0.167399
      8          6           0       -1.279528    1.452491   -0.074642
      9          8           0       -0.063292    0.891420    0.395076
     10          1           0        4.485340    1.177393   -0.537909
     11          1           0        1.678752   -1.914441    0.021221
     12          1           0        1.414060   -0.930690    1.459465
     13          1           0        0.329369   -0.210881   -1.309854
     14          1           0       -0.808501   -2.254318   -0.537038
     15          1           0       -1.022226   -1.549728    1.090381
     16          1           0       -3.364008    0.866792   -0.267837
     17          1           0       -2.579857    0.353046    1.251857
     18          1           0       -1.205362    1.677114   -1.150891
     19          1           0       -1.426269    2.389939    0.470208
 ---------------------------------------------------------------------

 SCF Done:  E(RB3LYP) =  -423.146242932     A.U. after    1 cycles

 The electronic state is 1-A.
 Alpha  occ. eigenvalues --  -19.14599 -19.14499 -10.24042 -10.23192 -10.23090
 Alpha  occ. eigenvalues --  -10.23057 -10.21193 -10.17869 -10.16712  -1.05796
 Alpha  occ. eigenvalues --   -1.01999  -0.81381  -0.75876  -0.71256  -0.68426
 Alpha  occ. eigenvalues --   -0.64376  -0.57982  -0.52626  -0.50383  -0.49715
 Alpha  occ. eigenvalues --   -0.48693  -0.46974  -0.45820  -0.43012  -0.41565
 Alpha  occ. eigenvalues --   -0.39841  -0.37320  -0.36485  -0.35851  -0.30478
 Alpha  occ. eigenvalues --   -0.28609  -0.26323  -0.26060  -0.23782
 Alpha virt. eigenvalues --    0.05476   0.06041   0.09848   0.10101   0.10522
 Alpha virt. eigenvalues --    0.11743   0.13308   0.14729   0.15150   0.15961
 Alpha virt. eigenvalues --    0.17076   0.17179   0.18028   0.19782   0.22082

 Mulliken charges:
               1
     1  C   -0.437015
     2  C    0.310036
     3  C   -0.383312
     4  C    0.117466
     5  C   -0.093795
     6  O   -0.253154
     7  C   -0.079463
     8  C   -0.078582
     9  O   -0.259122
    10  H    0.194340
    11  H    0.130460
    12  H    0.139215
    13  H    0.083121
    14  H    0.109939
    15  H    0.089359
    16  H    0.109377
    17  H    0.093773
    18  H    0.097545
    19  H    0.109813
 Sum of Mulliken charges =   0.00000

 Dipole moment (field-independent basis, Debye):
    X=             -0.5413    Y=             -0.1090    Z=              0.1299  Tot=              0.5672
 Quadrupole moment (field-independent basis, Debye-Ang):
   XX=            -53.3507   YY=            -50.3306   ZZ=            -53.6486
   XY=             -3.0820   XZ=             -2.6783   YZ=             -1.8361

  Exact polarizability:  97.281   4.055  75.172  -5.136  -3.131  60.950
 Approx polarizability: 126.550  14.357 110.588  -7.756  -4.633  96.609

                      1                      2                      3
                      A                      A                      A
 Frequencies --     62.2064                96.1495               168.4776
 Red. masses --      3.8730                 4.1180                 2.8074
 Frc consts  --      0.0088                 0.0224                 0.0470
 IR Inten    --      0.0675                 0.1145                 0.5376

                      4                      5                      6
                      A                      A                      A
 Frequencies --    257.4605               284.0449               340.5165
 Red. masses --      2.4649                 3.8587                 3.0360
 Frc consts  --      0.0963                 0.1834                 0.2074
 IR Inten    --     10.8223                 1.8716                 3.0874

                      7                      8                      9
                      A                      A                      A
 Frequencies --    353.4553               388.4875               456.2200
 Red. masses --      2.1478                 5.3846                 8.2400
 Frc consts  --      0.1581                 0.4788                 1.0105
 IR Inten    --      3.9132                 0.3952                 0.4870

                     10                     11                     12
                      A                      A                      A
 Frequencies --    483.5236               537.2529               615.7346
 Red. masses --      2.1645                 3.0385                 1.2041
 Frc consts  --      0.2982                 0.5167                 0.2690
 IR Inten    --      1.9048                 2.8269                42.1014

                     13                     14                     15
                      A                      A                      A
 Frequencies --    633.0601               646.0045               821.5509
 Red. masses --      1.7307                 1.4155                 2.7366
 Frc consts  --      0.4087                 0.3480                 1.0883
 IR Inten    --     17.5916                38.5483                10.3722

                     16                     17                     18
                      A                      A                      A
 Frequencies --    874.6074               892.5867               939.7217
 Red. masses --      2.2220                 2.1219                 2.9932
 Frc consts  --      1.0014                 0.9960                 1.5573
 IR Inten    --     15.4955                13.2445                 9.7380

                     19                     20                     21
                      A                      A                      A
 Frequencies --    949.4489              1009.0441              1073.5723
 Red. masses --      3.0904                 2.9186                 2.3325
 Frc consts  --      1.6414                 1.7508                 1.5839
 IR Inten    --     31.2205                 2.5754                 3.9456

                     22                     23                     24
                      A                      A                      A
 Frequencies --   1084.5081              1104.2613              1135.0823
 Red. masses --      3.0602                 2.3204                 3.8265
 Frc consts  --      2.1206                 1.6671                 2.9047
 IR Inten    --      6.1621                 9.3310                20.1921

                     25                     26                     27
                      A                      A                      A
 Frequencies --   1140.8586              1148.1780              1236.1795
 Red. masses --      2.4113                 5.7904                 1.2029
 Frc consts  --      1.8491                 4.4976                 1.0830
 IR Inten    --     25.6174               178.1890                 9.7329

                     28                     29                     30
                      A                      A                      A
 Frequencies --   1252.2744              1286.8513              1304.7900
 Red. masses --      1.1077                 1.2096                 1.2301
 Frc consts  --      1.0234                 1.1802                 1.2339
 IR Inten    --      4.6079                 6.5476                25.1192

                     31                     32                     33
                      A                      A                      A
 Frequencies --   1327.1481              1359.4159              1383.7313
 Red. masses --      1.2322                 1.2907                 1.3455
 Frc consts  --      1.2787                 1.4054                 1.5179
 IR Inten    --      5.0078                 2.5549                19.8426

                     34                     35                     36
                      A                      A                      A
 Frequencies --   1392.5754              1415.1401              1424.8845
 Red. masses --      1.3276                 1.3244                 1.4232
 Frc consts  --      1.5169                 1.5627                 1.7024
 IR Inten    --     17.9056                 1.5947                 0.3085

                     37                     38                     39
                      A                      A                      A
 Frequencies --   1456.7020              1479.0721              1486.7868
 Red. masses --      1.0971                 1.0823                 1.1066
 Frc consts  --      1.3717                 1.3950                 1.4412
 IR Inten    --      2.8644                 0.1433                 6.5459

                     40                     41                     42
                      A                      A                      A
 Frequencies --   1493.0327              2244.0499              2959.3188
 Red. masses --      1.1061                 5.9221                 1.0700
 Frc consts  --      1.4527                17.5708                 5.5209
 IR Inten    --      1.0667                 2.8434                30.3034

                     43                     44                     45
                      A                      A                      A
 Frequencies --   2973.6318              2978.0392              2985.9556
 Red. masses --      1.0701                 1.0791                 1.0684
 Frc consts  --      5.5752                 5.6386                 5.6125
 IR Inten    --     30.3285                11.8733               103.3349

                     46                     47                     48
                      A                      A                      A
 Frequencies --   3024.5773              3062.2909              3084.3154
 Red. masses --      1.0590                 1.1004                 1.0934
 Frc consts  --      5.7079                 6.0798                 6.1287
 IR Inten    --     18.1516                 6.7681                43.7339

                     49                     50                     51
                      A                      A                      A
 Frequencies --   3087.9166              3088.2417              3507.2445
 Red. masses --      1.0969                 1.0932                 1.1627
 Frc consts  --      6.1623                 6.1428                 8.4264
 IR Inten    --     30.1976                34.4636                65.8272

 - Thermochemistry -
 -------------------
 Temperature   298.150 Kelvin.  Pressure   1.00000 Atm.
 Atom     1 has atomic number  6 and mass  12.00000

 Molecular mass:   126.06808 amu.
 Principal axes and moments of inertia in atomic units:
                           1         2         3
     Eigenvalues --   454.766191849.446612174.91161
           X            0.99989  -0.01332  -0.00594
           Y            0.01313   0.99945  -0.03046
           Z            0.00634   0.03038   0.99952
 This molecule is an asymmetric top.
 Rotational symmetry number  1.
 Warning -- assumption of classical behavior for rotation
           may cause significant error
 Rotational temperatures (Kelvin)      0.19046     0.04683     0.03982
 Rotational constants (GHZ):           3.96850     0.97583     0.82980
 Zero-point vibrational energy     417438.0 (Joules/Mol)
                                   99.77007 (Kcal/Mol)
 Warning -- explicit consideration of  12 degrees of freedom as
           vibrations may cause significant error
 Vibrational temperatures:     89.50   138.34   242.40   370.43   408.68
          (Kelvin)            489.93   508.54   558.95   656.40   695.68
                              772.99   885.90   910.83   929.46  1182.03
                             1258.36  1284.23  1352.05  1366.04  1451.79
                             1544.63  1560.36  1588.78  1633.13  1641.44
                             1651.97  1778.58  1801.74  1851.49  1877.30
                             1909.47  1955.89  1990.88  2003.60  2036.07
                             2050.09  2095.87  2128.05  2139.15  2148.14
                             3228.68  4257.79  4278.39  4284.73  4296.12
                             4351.69  4405.95  4437.64  4442.82  4443.29
                             5046.14

 Zero-point correction=                           0.158994 (Hartree/Particle)
 Thermal correction to Energy=                    0.167657
 Thermal correction to Enthalpy=                  0.168601
 Thermal correction to Gibbs Free Energy=         0.125349
 Sum of electronic and zero-point Energies=           -422.987249
 Sum of electronic and thermal Energies=              -422.978586
 Sum of electronic and thermal Enthalpies=            -422.977642
 Sum of electronic and thermal Free Energies=         -423.020894

                     E (Thermal)             CV                S
                      KCal/Mol        Cal/Mol-Kelvin    Cal/Mol-Kelvin
 Total                  105.206             32.762             91.032
 Electronic               0.000              0.000              0.000
 Translational            0.889              2.981             40.409
 Rotational               0.889              2.981             28.994
 Vibrational            103.429             26.801             21.630
 Vibration     1          0.597              1.972              4.386
 Vibration     2          0.603              1.952              3.531
 Vibration     3          0.625              1.881              2.452
 Vibration     4          0.667              1.750              1.679
 Vibration     5          0.682              1.703              1.509
 Vibration     6          0.720              1.595              1.210
 Vibration     7          0.730              1.568              1.151
 Vibration     8          0.757              1.495              1.006
 Vibration     9          0.814              1.347              0.777
 Vibration    10          0.840              1.287              0.701
 Vibration    11          0.892              1.168              0.571
 Vibration    12          0.975              0.999              0.423

 Optimization completed.
    -- Stationary point found.
 Normal termination of Gaussian 09 at Mon Jan 27 11:57:12 2020.
