 Gaussian 09, Revision D.01,
 Gaussian 09:  ES64L-G09RevD.01 24-Apr-2013

 -----------------------------
 # b3lyp 6-31G(2df,p) opt Freq
 -----------------------------

 -----
 titel
 -----
 Symbolic Z-matrix:
 Charge =  0 Multiplicity = 1

 SCF Done:  E(RB3LYP) =  -423.205301632     A.U. after   14 cycles
 Optimization completed.
    -- Stationary point found.
 Normal termination of Gaussian 09 at Tue Jan 28 02:28:09 2020.

 ----------------------------------------------------------------------
 #N Geom=AllCheck Guess=TCheck SCRF=Check GenChk RB3LYP/6-31G(2df,p) Fr
 eq
 ----------------------------------------------------------------------

 Structure from the checkpoint file:  "/scratch/puck/g09_e769f8c0-c98f-48e2-b150-2f54198f9154/Gau-194600.chk"
 -----
 titel
 -----
 Charge =  0 Multiplicity = 1

                         Standard orientation:
 ---------------------------------------------------------------------
 Center     Atomic      Atomic             Coordinates (Angstroms)
 Number     Number       Type             X           Y           Z
 ---------------------------------------------------------------------
      1          6           0       -2.103942   -1.380199   -0.136536
      2          6           0       -1.032953   -0.521107    0.518115
      3          8           0        0.249494   -1.136265    0.403884
      4          6           0        1.227449   -0.185022    0.030680
      5          6           0        2.360284   -0.802373   -0.736284
      6          6           0        1.398855    0.967553    0.959717
      7          6           0        0.549660    1.127427   -0.316382
      8          6           0       -0.902831    0.867093   -0.142483
      9          8           0       -1.831150    1.551348   -0.495362
     10          1           0       -1.852820   -1.569319   -1.183911
     11          1           0       -2.198421   -2.339022    0.378960
     12          1           0       -3.060538   -0.852755   -0.096630
     13          1           0       -1.281141   -0.371078    1.581338
     14          1           0        2.856207   -1.564820   -0.127008
     15          1           0        1.992657   -1.280830   -1.648709
     16          1           0        3.100811   -0.045725   -1.008272
     17          1           0        0.896980    0.958235    1.921141
     18          1           0        2.344751    1.497582    0.947034
     19          1           0        0.875634    1.806836   -1.093072
 ---------------------------------------------------------------------

 SCF Done:  E(RB3LYP) =  -423.205301632     A.U. after    1 cycles

 The electronic state is 1-A.
 Alpha  occ. eigenvalues --  -19.15118 -19.13076 -10.26890 -10.25814 -10.24093
 Alpha  occ. eigenvalues --  -10.20497 -10.20316 -10.19033 -10.18036  -1.05978
 Alpha  occ. eigenvalues --   -1.03633  -0.86697  -0.77725  -0.73017  -0.67421
 Alpha  occ. eigenvalues --   -0.62632  -0.58103  -0.55051  -0.49931  -0.49375
 Alpha  occ. eigenvalues --   -0.45445  -0.43666  -0.42636  -0.41971  -0.40646
 Alpha  occ. eigenvalues --   -0.39599  -0.38969  -0.38251  -0.37128  -0.35916
 Alpha  occ. eigenvalues --   -0.32984  -0.29676  -0.26166  -0.23257
 Alpha virt. eigenvalues --   -0.01856   0.08295   0.09270   0.11965   0.12287
 Alpha virt. eigenvalues --    0.13004   0.14286   0.15200   0.16539   0.17097
 Alpha virt. eigenvalues --    0.17966   0.18587   0.19000   0.19737   0.21716

 Mulliken charges:
               1
     1  C   -0.393290
     2  C   -0.002048
     3  O   -0.309769
     4  C    0.444113
     5  C   -0.463214
     6  C   -0.353531
     7  C   -0.239533
     8  C    0.401030
     9  O   -0.334024
    10  H    0.124808
    11  H    0.124838
    12  H    0.139513
    13  H    0.102544
    14  H    0.135758
    15  H    0.130830
    16  H    0.122181
    17  H    0.128789
    18  H    0.127705
    19  H    0.113300
 Sum of Mulliken charges =   0.00000

 Dipole moment (field-independent basis, Debye):
    X=              2.2432    Y=             -0.6055    Z=              0.4671  Tot=              2.3700
 Quadrupole moment (field-independent basis, Debye-Ang):
   XX=            -52.8740   YY=            -57.2690   ZZ=            -51.4844
   XY=              6.3665   XZ=             -2.8158   YZ=              1.9064

  Exact polarizability:  90.742   1.158  73.419   1.164  -0.275  64.859
 Approx polarizability: 124.833  -6.335 109.930   6.225  -4.627  99.906

                      1                      2                      3
                      A                      A                      A
 Frequencies --     82.8851               131.4165               201.4094
 Red. masses --      3.6475                 3.9814                 1.0582
 Frc consts  --      0.0148                 0.0405                 0.0253
 IR Inten    --      4.3224                 0.3579                 0.2593

                      4                      5                      6
                      A                      A                      A
 Frequencies --    206.0844               242.7734               291.2853
 Red. masses --      1.0374                 2.9020                 2.9227
 Frc consts  --      0.0260                 0.1008                 0.1461
 IR Inten    --      0.5851                 3.3327                 2.2737

                      7                      8                      9
                      A                      A                      A
 Frequencies --    357.4827               387.0528               427.8475
 Red. masses --      2.4463                 3.0364                 3.7129
 Frc consts  --      0.1842                 0.2680                 0.4004
 IR Inten    --      2.0245                 4.9548                 6.1154

                     10                     11                     12
                      A                      A                      A
 Frequencies --    476.6481               594.8933               611.9516
 Red. masses --      3.4819                 4.5689                 4.5141
 Frc consts  --      0.4661                 0.9527                 0.9960
 IR Inten    --      5.4640                 1.9903                 0.4699

                     13                     14                     15
                      A                      A                      A
 Frequencies --    689.3010               698.5688               792.9645
 Red. masses --      5.0505                 2.6900                 2.8188
 Frc consts  --      1.4139                 0.7734                 1.0443
 IR Inten    --      3.1872                 1.9336                 2.5349

                     16                     17                     18
                      A                      A                      A
 Frequencies --    827.4809               878.8091               910.2241
 Red. masses --      2.5293                 2.0798                 1.5190
 Frc consts  --      1.0204                 0.9464                 0.7415
 IR Inten    --     23.7458                11.2089                 3.4107

                     19                     20                     21
                      A                      A                      A
 Frequencies --    949.5696               977.7640              1010.1161
 Red. masses --      1.6253                 2.0726                 1.5226
 Frc consts  --      0.8635                 1.1674                 0.9153
 IR Inten    --      1.6154                34.4819                 8.8710

                     22                     23                     24
                      A                      A                      A
 Frequencies --   1041.6083              1052.6756              1062.9633
 Red. masses --      1.6143                 1.7051                 1.6829
 Frc consts  --      1.0319                 1.1133                 1.1204
 IR Inten    --     32.7278                 6.1251                25.0275

                     25                     26                     27
                      A                      A                      A
 Frequencies --   1105.9832              1129.6534              1136.6999
 Red. masses --      1.8151                 2.6289                 2.4518
 Frc consts  --      1.3081                 1.9766                 1.8665
 IR Inten    --      9.9747                73.3317                 4.5571

                     28                     29                     30
                      A                      A                      A
 Frequencies --   1187.5362              1231.2553              1276.3685
 Red. masses --      2.1919                 1.7806                 2.5854
 Frc consts  --      1.8212                 1.5905                 2.4816
 IR Inten    --      5.8909                14.5160               107.6010

                     31                     32                     33
                      A                      A                      A
 Frequencies --   1312.4137              1358.2086              1387.6925
 Red. masses --      1.6628                 1.4244                 1.6093
 Frc consts  --      1.6875                 1.5482                 1.8259
 IR Inten    --      5.4904                 8.2150                12.6077

                     34                     35                     36
                      A                      A                      A
 Frequencies --   1398.8869              1430.0893              1476.1662
 Red. masses --      1.2396                 1.7725                 1.0465
 Frc consts  --      1.4292                 2.1358                 1.3435
 IR Inten    --      7.4515                17.4830                 2.3467

                     37                     38                     39
                      A                      A                      A
 Frequencies --   1482.2532              1485.0991              1496.3812
 Red. masses --      1.0770                 1.2491                 1.0564
 Frc consts  --      1.3941                 1.6231                 1.3937
 IR Inten    --      7.5061                14.5104                 3.8035

                     40                     41                     42
                      A                      A                      A
 Frequencies --   1502.1660              1836.1471              2974.6015
 Red. masses --      1.1588                12.4078                 1.0808
 Frc consts  --      1.5406                24.6467                 5.6347
 IR Inten    --      4.5081               245.5081                27.1740

                     43                     44                     45
                      A                      A                      A
 Frequencies --   3041.7661              3049.2765              3109.8230
 Red. masses --      1.0352                 1.0338                 1.1013
 Frc consts  --      5.6431                 5.6633                 6.2751
 IR Inten    --     19.8818                15.0997                14.1931

                     46                     47                     48
                      A                      A                      A
 Frequencies --   3124.1636              3126.7240              3134.5246
 Red. masses --      1.1012                 1.1028                 1.1023
 Frc consts  --      6.3329                 6.3521                 6.3812
 IR Inten    --     14.3325                17.9692                 9.0942

                     49                     50                     51
                      A                      A                      A
 Frequencies --   3134.9528              3202.6375              3224.8081
 Red. masses --      1.0545                 1.0933                 1.1166
 Frc consts  --      6.1063                 6.6069                 6.8416
 IR Inten    --      9.3179                 1.8387                 4.0891

 - Thermochemistry -
 -------------------
 Temperature   298.150 Kelvin.  Pressure   1.00000 Atm.
 Atom     1 has atomic number  6 and mass  12.00000

 Molecular mass:   126.06808 amu.
 Principal axes and moments of inertia in atomic units:
                           1         2         3
     Eigenvalues --   679.269081192.521571568.44249
           X            0.99751   0.06884  -0.01517
           Y           -0.06824   0.99698   0.03713
           Z            0.01768  -0.03601   0.99920
 This molecule is an asymmetric top.
 Rotational symmetry number  1.
 Warning -- assumption of classical behavior for rotation
           may cause significant error
 Rotational temperatures (Kelvin)      0.12751     0.07263     0.05522
 Rotational constants (GHZ):           2.65689     1.51338     1.15066
 Zero-point vibrational energy     414267.1 (Joules/Mol)
                                   99.01222 (Kcal/Mol)
 Warning -- explicit consideration of  12 degrees of freedom as
           vibrations may cause significant error
 Vibrational temperatures:    119.25   189.08   289.78   296.51   349.30
          (Kelvin)            419.09   514.34   556.88   615.58   685.79
                              855.92   880.46   991.75  1005.08  1140.90
                             1190.56  1264.41  1309.61  1366.22  1406.78
                             1453.33  1498.64  1514.56  1529.37  1591.26
                             1625.32  1635.46  1708.60  1771.50  1836.41
                             1888.27  1954.16  1996.58  2012.68  2057.58
                             2123.87  2132.63  2136.72  2152.96  2161.28
                             2641.80  4279.78  4376.42  4387.22  4474.34
                             4494.97  4498.65  4509.88  4510.49  4607.88
                             4639.77

 Zero-point correction=                           0.157786 (Hartree/Particle)
 Thermal correction to Energy=                    0.166501
 Thermal correction to Enthalpy=                  0.167445
 Thermal correction to Gibbs Free Energy=         0.124616
 Sum of electronic and zero-point Energies=           -423.047516
 Sum of electronic and thermal Energies=              -423.038801
 Sum of electronic and thermal Enthalpies=            -423.037857
 Sum of electronic and thermal Free Energies=         -423.080686

                     E (Thermal)             CV                S
                      KCal/Mol        Cal/Mol-Kelvin    Cal/Mol-Kelvin
 Total                  104.481             33.266             90.142
 Electronic               0.000              0.000              0.000
 Translational            0.889              2.981             40.409
 Rotational               0.889              2.981             28.631
 Vibrational            102.703             27.305             21.102
 Vibration     1          0.600              1.961              3.821
 Vibration     2          0.612              1.922              2.925
 Vibration     3          0.638              1.838              2.120
 Vibration     4          0.641              1.831              2.078
 Vibration     5          0.659              1.775              1.782
 Vibration     6          0.687              1.690              1.466
 Vibration     7          0.733              1.560              1.133
 Vibration     8          0.755              1.498              1.011
 Vibration     9          0.789              1.410              0.866
 Vibration    10          0.833              1.302              0.719
 Vibration    11          0.953              1.043              0.459
 Vibration    12          0.971              1.007              0.430

 Normal termination of Gaussian 09 at Tue Jan 28 03:10:44 2020.
