 Gaussian 09, Revision D.01,
 Gaussian 09:  ES64L-G09RevD.01 24-Apr-2013

 -----------------------------
 # b3lyp 6-31G(2df,p) opt Freq
 -----------------------------

 -----
 titel
 -----
 Symbolic Z-matrix:
 Charge =  0 Multiplicity = 1

 SCF Done:  E(RB3LYP) =  -423.134200301     A.U. after   14 cycles
 SCF Done:  E(RB3LYP) =  -423.134200077     A.U. after    8 cycles
 SCF Done:  E(RB3LYP) =  -423.134200451     A.U. after    7 cycles
 Optimization completed.
    -- Stationary point found.
 Normal termination of Gaussian 09 at Mon Jan 27 14:23:26 2020.

 ----------------------------------------------------------------------
 #N Geom=AllCheck Guess=TCheck SCRF=Check GenChk RB3LYP/6-31G(2df,p) Fr
 eq
 ----------------------------------------------------------------------

 Structure from the checkpoint file:  "/scratch/puck/g09_2e934c94-d099-4a1e-9a6a-95f231fd6916/Gau-4212.chk"
 -----
 titel
 -----
 Charge =  0 Multiplicity = 1

                         Standard orientation:
 ---------------------------------------------------------------------
 Center     Atomic      Atomic             Coordinates (Angstroms)
 Number     Number       Type             X           Y           Z
 ---------------------------------------------------------------------
      1          6           0       -3.632479   -1.231123    0.081095
      2          6           0       -2.413613   -0.449997   -0.069562
      3          6           0       -1.409941    0.200086   -0.215990
      4          6           0       -0.186408    0.999630   -0.323673
      5          8           0       -0.350929    2.309736    0.212706
      6          6           0        0.979873    0.274728    0.330952
      7          8           0        2.282761    0.670936   -0.089250
      8          6           0        1.837583   -0.654065   -0.413751
      9          6           0        2.562263   -1.798477    0.244834
     10          1           0       -3.855263   -1.793736   -0.832037
     11          1           0       -3.548722   -1.950131    0.903243
     12          1           0       -4.492173   -0.584960    0.289426
     13          1           0        0.072876    1.156953   -1.377287
     14          1           0       -0.793154    2.219815    1.064089
     15          1           0        0.871752    0.129772    1.408236
     16          1           0        1.619314   -0.789515   -1.475112
     17          1           0        3.534057   -1.964031   -0.231719
     18          1           0        2.731782   -1.591683    1.304830
     19          1           0        1.981210   -2.722552    0.155252
 ---------------------------------------------------------------------

 SCF Done:  E(RB3LYP) =  -423.134200451     A.U. after    1 cycles

 The electronic state is 1-A.
 Alpha  occ. eigenvalues --  -19.14666 -19.13955 -10.25602 -10.23857 -10.23497
 Alpha  occ. eigenvalues --  -10.21150 -10.18637 -10.18445 -10.17511  -1.06998
 Alpha  occ. eigenvalues --   -1.02175  -0.78941  -0.75293  -0.74547  -0.68796
 Alpha  occ. eigenvalues --   -0.62343  -0.59647  -0.53611  -0.50435  -0.48214
 Alpha  occ. eigenvalues --   -0.46259  -0.43660  -0.43454  -0.42848  -0.42536
 Alpha  occ. eigenvalues --   -0.40458  -0.38308  -0.36987  -0.35257  -0.30607
 Alpha  occ. eigenvalues --   -0.28795  -0.26860  -0.26013  -0.25119
 Alpha virt. eigenvalues --    0.03275   0.04602   0.09612   0.10413   0.11170
 Alpha virt. eigenvalues --    0.11500   0.12207   0.14107   0.15169   0.16427
 Alpha virt. eigenvalues --    0.16916   0.17594   0.18080   0.18551   0.20676

 Mulliken charges:
               1
     1  C   -0.498903
     2  C    0.044262
     3  C    0.062986
     4  C   -0.077928
     5  O   -0.412471
     6  C    0.048313
     7  O   -0.252461
     8  C    0.085990
     9  C   -0.421014
    10  H    0.153929
    11  H    0.150093
    12  H    0.153995
    13  H    0.119300
    14  H    0.282791
    15  H    0.088097
    16  H    0.090080
    17  H    0.130666
    18  H    0.127857
    19  H    0.124419
 Sum of Mulliken charges =   0.00000

 Dipole moment (field-independent basis, Debye):
    X=             -2.1083    Y=             -2.9516    Z=              0.8640  Tot=              3.7287
 Quadrupole moment (field-independent basis, Debye-Ang):
   XX=            -49.7889   YY=            -55.9407   ZZ=            -49.6017
   XY=             -1.9148   XZ=             -1.8925   YZ=              2.2493

  Exact polarizability: 101.581   6.950  78.413  -4.115   1.288  62.510
 Approx polarizability: 135.779  22.106 116.045  -9.570   1.708  94.473

                      1                      2                      3
                      A                      A                      A
 Frequencies --     11.8777                53.8871                79.1503
 Red. masses --      1.0173                 3.7016                 3.5015
 Frc consts  --      0.0001                 0.0063                 0.0129
 IR Inten    --      0.0348                 0.4124                 0.5386

                      4                      5                      6
                      A                      A                      A
 Frequencies --    135.5973               162.9898               202.3739
 Red. masses --      3.7056                 3.4073                 1.1796
 Frc consts  --      0.0401                 0.0533                 0.0285
 IR Inten    --      2.3321                 1.7003                 0.2824

                      7                      8                      9
                      A                      A                      A
 Frequencies --    217.7019               258.8947               306.4835
 Red. masses --      1.6927                 1.5355                 4.3011
 Frc consts  --      0.0473                 0.0606                 0.2380
 IR Inten    --     19.4832                78.2996                17.5876

                     10                     11                     12
                      A                      A                      A
 Frequencies --    320.6271               382.1565               416.9546
 Red. masses --      3.9294                 4.3868                 3.3435
 Frc consts  --      0.2380                 0.3775                 0.3425
 IR Inten    --      9.3530                 5.6847                 1.6586

                     13                     14                     15
                      A                      A                      A
 Frequencies --    483.9525               516.0301               576.7216
 Red. masses --      5.0829                 4.0576                 6.0555
 Frc consts  --      0.7014                 0.6366                 1.1867
 IR Inten    --     16.7471                10.7313                 1.6317

                     16                     17                     18
                      A                      A                      A
 Frequencies --    788.8102               817.9330               893.5838
 Red. masses --      4.2517                 3.5726                 2.1413
 Frc consts  --      1.5587                 1.4082                 1.0074
 IR Inten    --     28.4514                 9.1766                16.1639

                     19                     20                     21
                      A                      A                      A
 Frequencies --    972.1528               998.5320              1042.0116
 Red. masses --      2.5407                 3.5259                 1.9255
 Frc consts  --      1.4148                 2.0713                 1.2318
 IR Inten    --     44.6873                59.9932                48.8317

                     22                     23                     24
                      A                      A                      A
 Frequencies --   1051.6834              1054.3544              1078.9876
 Red. masses --      1.4211                 1.4012                 1.7116
 Frc consts  --      0.9261                 0.9178                 1.1740
 IR Inten    --      0.4230                 0.9099                 4.1802

                     25                     26                     27
                      A                      A                      A
 Frequencies --   1116.9088              1160.5240              1165.4665
 Red. masses --      3.5998                 2.1169                 1.7113
 Frc consts  --      2.6458                 1.6798                 1.3696
 IR Inten    --     22.9171                 0.6553                 4.1229

                     28                     29                     30
                      A                      A                      A
 Frequencies --   1176.2288              1253.0774              1278.7243
 Red. masses --      2.0581                 1.2535                 1.3574
 Frc consts  --      1.6777                 1.1597                 1.3077
 IR Inten    --     16.1713                14.6697                17.9110

                     31                     32                     33
                      A                      A                      A
 Frequencies --   1285.4239              1375.1520              1410.8662
 Red. masses --      1.4609                 1.2443                 1.2701
 Frc consts  --      1.4222                 1.3863                 1.4895
 IR Inten    --     12.4524                10.4037                10.9971

                     34                     35                     36
                      A                      A                      A
 Frequencies --   1412.7447              1417.7423              1474.4414
 Red. masses --      1.2507                 1.1919                 1.2628
 Frc consts  --      1.4708                 1.4115                 1.6175
 IR Inten    --     27.2888                41.9271                 4.6801

                     37                     38                     39
                      A                      A                      A
 Frequencies --   1476.4881              1477.6896              1490.1762
 Red. masses --      1.0410                 1.0397                 1.1177
 Frc consts  --      1.3371                 1.3375                 1.4624
 IR Inten    --      6.4710                 5.5266                 7.0539

                     40                     41                     42
                      A                      A                      A
 Frequencies --   1511.4194              2365.6198              3029.4814
 Red. masses --      1.8355                11.8696                 1.0347
 Frc consts  --      2.4704                39.1360                 5.5952
 IR Inten    --      7.7861                14.5009                26.1250

                     43                     44                     45
                      A                      A                      A
 Frequencies --   3037.1232              3046.2434              3084.5387
 Red. masses --      1.0356                 1.0830                 1.0888
 Frc consts  --      5.6279                 5.9211                 6.1036
 IR Inten    --     18.8015                 8.7545                 2.8229

                     46                     47                     48
                      A                      A                      A
 Frequencies --   3090.6803              3091.3881              3092.1279
 Red. masses --      1.0863                 1.1000                 1.1001
 Frc consts  --      6.1140                 6.1936                 6.1970
 IR Inten    --     31.8302                14.6352                 8.0040

                     49                     50                     51
                      A                      A                      A
 Frequencies --   3102.4348              3124.5167              3807.1734
 Red. masses --      1.1008                 1.1012                 1.0662
 Frc consts  --      6.2427                 6.3339                 9.1052
 IR Inten    --     18.1931                28.9240                22.4422

 - Thermochemistry -
 -------------------
 Temperature   298.150 Kelvin.  Pressure   1.00000 Atm.
 Atom     1 has atomic number  6 and mass  12.00000

 Molecular mass:   126.06808 amu.
 Principal axes and moments of inertia in atomic units:
                           1         2         3
     Eigenvalues --   770.570332008.021802653.43708
           X            0.99996  -0.00843  -0.00068
           Y            0.00842   0.99996  -0.00240
           Z            0.00070   0.00240   1.00000
 This molecule is an asymmetric top.
 Rotational symmetry number  1.
 Warning -- assumption of classical behavior for rotation
           may cause significant error
 Rotational temperatures (Kelvin)      0.11240     0.04313     0.03264
 Rotational constants (GHZ):           2.34208     0.89877     0.68015
 Zero-point vibrational energy     407794.1 (Joules/Mol)
                                   97.46513 (Kcal/Mol)
 Warning -- explicit consideration of  15 degrees of freedom as
           vibrations may cause significant error
 Vibrational temperatures:     17.09    77.53   113.88   195.09   234.51
          (Kelvin)            291.17   313.22   372.49   440.96   461.31
                              549.84   599.90   696.30   742.45   829.77
                             1134.92  1176.82  1285.67  1398.71  1436.66
                             1499.22  1513.14  1516.98  1552.42  1606.98
                             1669.73  1676.84  1692.33  1802.90  1839.80
                             1849.44  1978.53  2029.92  2032.62  2039.81
                             2121.39  2124.33  2126.06  2144.03  2174.59
                             3403.60  4358.74  4369.74  4382.86  4437.96
                             4446.79  4447.81  4448.88  4463.71  4495.48
                             5477.67

 Zero-point correction=                           0.155321 (Hartree/Particle)
 Thermal correction to Energy=                    0.166157
 Thermal correction to Enthalpy=                  0.167101
 Thermal correction to Gibbs Free Energy=         0.116974
 Sum of electronic and zero-point Energies=           -422.978880
 Sum of electronic and thermal Energies=              -422.968043
 Sum of electronic and thermal Enthalpies=            -422.967099
 Sum of electronic and thermal Free Energies=         -423.017226

                     E (Thermal)             CV                S
                      KCal/Mol        Cal/Mol-Kelvin    Cal/Mol-Kelvin
 Total                  104.265             37.025            105.501
 Electronic               0.000              0.000              0.000
 Translational            0.889              2.981             40.409
 Rotational               0.889              2.981             29.797
 Vibrational            102.488             31.064             35.296
 Vibration     1          0.593              1.987              7.669
 Vibration     2          0.596              1.976              4.669
 Vibration     3          0.600              1.963              3.912
 Vibration     4          0.613              1.918              2.865
 Vibration     5          0.623              1.888              2.515
 Vibration     6          0.639              1.837              2.111
 Vibration     7          0.646              1.814              1.978
 Vibration     8          0.668              1.748              1.669
 Vibration     9          0.697              1.661              1.381
 Vibration    10          0.706              1.634              1.307
 Vibration    11          0.752              1.508              1.031
 Vibration    12          0.780              1.433              0.902
 Vibration    13          0.840              1.286              0.699
 Vibration    14          0.871              1.214              0.619
 Vibration    15          0.933              1.082              0.491

 Normal termination of Gaussian 09 at Mon Jan 27 15:52:07 2020.
