 Gaussian 09, Revision D.01,
 Gaussian 09:  ES64L-G09RevD.01 24-Apr-2013

 -----------------------------
 # b3lyp 6-31G(2df,p) opt Freq
 -----------------------------

 -----
 titel
 -----
 Symbolic Z-matrix:
 Charge =  0 Multiplicity = 1

 SCF Done:  E(RB3LYP) =  -423.097548443     A.U. after   13 cycles
 Optimization completed.
    -- Stationary point found.
 Normal termination of Gaussian 09 at Tue Jan 28 02:54:51 2020.

 ----------------------------------------------------------------------
 #N Geom=AllCheck Guess=TCheck SCRF=Check GenChk RB3LYP/6-31G(2df,p) Fr
 eq
 ----------------------------------------------------------------------

 Structure from the checkpoint file:  "/scratch/puck/g09_eda89d7e-14ca-43ef-8dd2-72db5ab15668/Gau-92258.chk"
 -----
 titel
 -----
 Charge =  0 Multiplicity = 1

                         Standard orientation:
 ---------------------------------------------------------------------
 Center     Atomic      Atomic             Coordinates (Angstroms)
 Number     Number       Type             X           Y           Z
 ---------------------------------------------------------------------
      1          8           0       -2.380779    0.038505   -0.463727
      2          6           0       -1.226410   -0.708939   -0.187358
      3          6           0       -0.684178   -0.680442    1.302110
      4          6           0        0.611935    0.014748    0.798901
      5          6           0        1.863313   -0.789660    0.338892
      6          6           0        1.325760   -0.752457   -1.145977
      7          6           0        0.083916    0.013027   -0.621227
      8          8           0        0.074649    1.442306   -0.729307
      9          6           0        0.598191    1.548598    0.635603
     10          1           0       -3.134719   -0.427767   -0.087933
     11          1           0       -1.295132   -1.729113   -0.595188
     12          1           0       -1.296573   -0.062042    1.965011
     13          1           0       -0.544026   -1.662591    1.761933
     14          1           0        2.823407   -0.292751    0.501635
     15          1           0        1.924360   -1.793577    0.766944
     16          1           0        1.928020   -0.159452   -1.837004
     17          1           0        1.127768   -1.728284   -1.598088
     18          1           0        1.576038    2.046705    0.653226
     19          1           0       -0.095270    2.093138    1.288072
 ---------------------------------------------------------------------

 SCF Done:  E(RB3LYP) =  -423.097548443     A.U. after    1 cycles

 The electronic state is 1-A.
 Alpha  occ. eigenvalues --  -19.13866 -19.12899 -10.23645 -10.23063 -10.21963
 Alpha  occ. eigenvalues --  -10.19114 -10.18673 -10.18529 -10.17966  -1.03985
 Alpha  occ. eigenvalues --   -1.01710  -0.85006  -0.75315  -0.70774  -0.63588
 Alpha  occ. eigenvalues --   -0.61464  -0.60645  -0.52008  -0.49609  -0.47042
 Alpha  occ. eigenvalues --   -0.46892  -0.44874  -0.42700  -0.41744  -0.40720
 Alpha  occ. eigenvalues --   -0.38995  -0.36686  -0.34935  -0.33272  -0.31800
 Alpha  occ. eigenvalues --   -0.29308  -0.26933  -0.23913  -0.22577
 Alpha virt. eigenvalues --    0.05080   0.07867   0.08509   0.09349   0.11751
 Alpha virt. eigenvalues --    0.12478   0.13383   0.14731   0.15689   0.17287
 Alpha virt. eigenvalues --    0.18464   0.18622   0.20822   0.21744   0.22549

 Mulliken charges:
               1
     1  O   -0.417568
     2  C    0.041052
     3  C   -0.344429
     4  C    0.194134
     5  C   -0.297052
     6  C   -0.305111
     7  C    0.415069
     8  O   -0.329295
     9  C   -0.144734
    10  H    0.285433
    11  H    0.063548
    12  H    0.104075
    13  H    0.098786
    14  H    0.106130
    15  H    0.104502
    16  H    0.117906
    17  H    0.101206
    18  H    0.100264
    19  H    0.106084
 Sum of Mulliken charges =   0.00000

 Dipole moment (field-independent basis, Debye):
    X=              0.2119    Y=             -2.2368    Z=              1.8054  Tot=              2.8823
 Quadrupole moment (field-independent basis, Debye-Ang):
   XX=            -48.5442   YY=            -53.2212   ZZ=            -54.5065
   XY=              3.9711   XZ=             -2.6583   YZ=              3.0809

  Exact polarizability:  80.346   1.103  73.777  -2.730   3.183  68.018
 Approx polarizability: 108.848   0.511 108.710  -0.789   1.540 103.411

                      1                      2                      3
                      A                      A                      A
 Frequencies --     67.1529               201.3603               236.3333
 Red. masses --      2.8139                 2.3245                 1.7416
 Frc consts  --      0.0075                 0.0555                 0.0573
 IR Inten    --      0.8501                 2.0212                50.4642

                      4                      5                      6
                      A                      A                      A
 Frequencies --    259.2586               299.9582               315.4934
 Red. masses --      1.7194                 2.0630                 3.1063
 Frc consts  --      0.0681                 0.1094                 0.1822
 IR Inten    --     53.8990                 1.6256                 0.8168

                      7                      8                      9
                      A                      A                      A
 Frequencies --    391.7144               442.9058               565.3562
 Red. masses --      2.7252                 3.1297                 3.8309
 Frc consts  --      0.2464                 0.3617                 0.7214
 IR Inten    --     10.5021                 9.1092                 5.8687

                     10                     11                     12
                      A                      A                      A
 Frequencies --    663.4538               694.0616               715.7848
 Red. masses --      3.1995                 2.3123                 1.5018
 Frc consts  --      0.8298                 0.6563                 0.4533
 IR Inten    --      1.9158                 0.2457                 0.4246

                     13                     14                     15
                      A                      A                      A
 Frequencies --    725.4978               809.9641               866.6945
 Red. masses --      3.6261                 2.5163                 1.8316
 Frc consts  --      1.1245                 0.9726                 0.8106
 IR Inten    --      5.6538                 4.6975                 3.5440

                     16                     17                     18
                      A                      A                      A
 Frequencies --    884.4902               900.2462               909.7680
 Red. masses --      3.6159                 3.7251                 2.6590
 Frc consts  --      1.6667                 1.7787                 1.2967
 IR Inten    --      3.3057                 4.0382                 5.7922

                     19                     20                     21
                      A                      A                      A
 Frequencies --    924.1568               959.2020              1013.7176
 Red. masses --      1.6833                 6.8105                 1.6146
 Frc consts  --      0.8471                 3.6919                 0.9776
 IR Inten    --      1.7418                78.8293                 3.3320

                     22                     23                     24
                      A                      A                      A
 Frequencies --   1062.4173              1087.8574              1142.7133
 Red. masses --      1.8693                 2.3585                 1.2057
 Frc consts  --      1.2431                 1.6445                 0.9276
 IR Inten    --     45.1640                66.7376                 0.0590

                     25                     26                     27
                      A                      A                      A
 Frequencies --   1152.6484              1170.6365              1184.4851
 Red. masses --      4.6394                 2.1943                 2.1295
 Frc consts  --      3.6317                 1.7717                 1.7603
 IR Inten    --      0.9456                11.3843                23.4062

                     28                     29                     30
                      A                      A                      A
 Frequencies --   1213.8161              1224.5196              1240.2185
 Red. masses --      1.3459                 1.4205                 1.3077
 Frc consts  --      1.1683                 1.2549                 1.1851
 IR Inten    --     16.4582                25.6474                 3.4758

                     31                     32                     33
                      A                      A                      A
 Frequencies --   1251.9638              1260.5253              1278.6853
 Red. masses --      1.7551                 1.8356                 1.9376
 Frc consts  --      1.6208                 1.7185                 1.8665
 IR Inten    --      2.8451                 2.8165                 4.0533

                     34                     35                     36
                      A                      A                      A
 Frequencies --   1280.0857              1314.4114              1343.6281
 Red. masses --      2.3235                 1.3867                 1.5112
 Frc consts  --      2.2432                 1.4116                 1.6074
 IR Inten    --      4.8109                34.2354                 2.0960

                     37                     38                     39
                      A                      A                      A
 Frequencies --   1423.5691              1457.0613              1457.2315
 Red. masses --      1.4898                 1.0899                 1.1222
 Frc consts  --      1.7788                 1.3634                 1.4041
 IR Inten    --      3.4297                 1.2986                 3.5085

                     40                     41                     42
                      A                      A                      A
 Frequencies --   1477.7346              1511.0367              2974.2625
 Red. masses --      1.1064                 1.1012                 1.0852
 Frc consts  --      1.4235                 1.4814                 5.6562
 IR Inten    --      2.1201                 0.3864                60.9542

                     43                     44                     45
                      A                      A                      A
 Frequencies --   3006.9336              3047.8880              3054.5997
 Red. masses --      1.0550                 1.0583                 1.0583
 Frc consts  --      5.6203                 5.7925                 5.8181
 IR Inten    --     81.7889                31.6642                41.5406

                     46                     47                     48
                      A                      A                      A
 Frequencies --   3056.8909              3061.0967              3104.1510
 Red. masses --      1.1107                 1.0612                 1.1082
 Frc consts  --      6.1150                 5.8588                 6.2913
 IR Inten    --     45.2152                31.4118                 4.8009

                     49                     50                     51
                      A                      A                      A
 Frequencies --   3108.8510              3126.6470              3812.0403
 Red. masses --      1.1087                 1.1070                 1.0661
 Frc consts  --      6.3137                 6.3764                 9.1277
 IR Inten    --     21.9313                29.2047                23.2305

 - Thermochemistry -
 -------------------
 Temperature   298.150 Kelvin.  Pressure   1.00000 Atm.
 Atom     1 has atomic number  8 and mass  15.99491

 Molecular mass:   126.06808 amu.
 Principal axes and moments of inertia in atomic units:
                           1         2         3
     Eigenvalues --   685.427261077.249181172.22167
           X            0.99953   0.01333  -0.02748
           Y           -0.00964   0.99142   0.13034
           Z            0.02898  -0.13001   0.99109
 This molecule is an asymmetric top.
 Rotational symmetry number  1.
 Warning -- assumption of classical behavior for rotation
           may cause significant error
 Rotational temperatures (Kelvin)      0.12636     0.08040     0.07389
 Rotational constants (GHZ):           2.63302     1.67532     1.53959
 Zero-point vibrational energy     417109.0 (Joules/Mol)
                                   99.69144 (Kcal/Mol)
 Warning -- explicit consideration of   9 degrees of freedom as
           vibrations may cause significant error
 Vibrational temperatures:     96.62   289.71   340.03   373.01   431.57
          (Kelvin)            453.92   563.59   637.24   813.42   954.56
                              998.60  1029.85  1043.83  1165.36  1246.98
                             1272.58  1295.25  1308.95  1329.65  1380.08
                             1458.51  1528.58  1565.18  1644.11  1658.40
                             1684.28  1704.21  1746.41  1761.81  1784.40
                             1801.29  1813.61  1839.74  1841.76  1891.14
                             1933.18  2048.20  2096.38  2096.63  2126.13
                             2174.04  4279.30  4326.30  4385.23  4394.88
                             4398.18  4404.23  4466.18  4472.94  4498.54
                             5484.67

 Zero-point correction=                           0.158868 (Hartree/Particle)
 Thermal correction to Energy=                    0.166785
 Thermal correction to Enthalpy=                  0.167729
 Thermal correction to Gibbs Free Energy=         0.126579
 Sum of electronic and zero-point Energies=           -422.938680
 Sum of electronic and thermal Energies=              -422.930763
 Sum of electronic and thermal Enthalpies=            -422.929819
 Sum of electronic and thermal Free Energies=         -422.970970

                     E (Thermal)             CV                S
                      KCal/Mol        Cal/Mol-Kelvin    Cal/Mol-Kelvin
 Total                  104.659             31.303             86.609
 Electronic               0.000              0.000              0.000
 Translational            0.889              2.981             40.409
 Rotational               0.889              2.981             28.250
 Vibrational            102.882             25.342             17.950
 Vibration     1          0.598              1.970              4.235
 Vibration     2          0.638              1.838              2.121
 Vibration     3          0.655              1.785              1.830
 Vibration     4          0.668              1.747              1.667
 Vibration     5          0.692              1.674              1.417
 Vibration     6          0.703              1.644              1.333
 Vibration     7          0.759              1.488              0.994
 Vibration     8          0.803              1.377              0.818
 Vibration     9          0.921              1.106              0.513

 Normal termination of Gaussian 09 at Tue Jan 28 03:44:56 2020.
