 Gaussian 09, Revision D.01,
 Gaussian 09:  ES64L-G09RevD.01 24-Apr-2013

 -----------------------------
 # b3lyp 6-31G(2df,p) opt Freq
 -----------------------------

 -----
 titel
 -----
 Symbolic Z-matrix:
 Charge =  0 Multiplicity = 1

 SCF Done:  E(RB3LYP) =  -423.215999622     A.U. after   14 cycles
 Optimization completed.
    -- Stationary point found.
 Normal termination of Gaussian 09 at Tue Jan 28 13:24:07 2020.

 ----------------------------------------------------------------------
 #N Geom=AllCheck Guess=TCheck SCRF=Check GenChk RB3LYP/6-31G(2df,p) Fr
 eq
 ----------------------------------------------------------------------

 Structure from the checkpoint file:  "/scratch/puck/g09_fb59aabe-5fae-4dec-bb4e-c3912f4bf348/Gau-159519.chk"
 -----
 titel
 -----
 Charge =  0 Multiplicity = 1

                         Standard orientation:
 ---------------------------------------------------------------------
 Center     Atomic      Atomic             Coordinates (Angstroms)
 Number     Number       Type             X           Y           Z
 ---------------------------------------------------------------------
      1          8           0       -1.212197   -0.924068   -1.355936
      2          6           0       -1.876178   -0.777836   -0.115292
      3          6           0       -1.066995    0.072061    0.889637
      4          6           0        0.280666   -0.592188    1.237535
      5          6           0        1.328106   -0.456254    0.145324
      6          8           0        2.064211   -1.357804   -0.173232
      7          6           0        1.465342    0.937109   -0.470768
      8          6           0        0.265646    1.829069   -0.292323
      9          6           0       -0.854027    1.457465    0.331233
     10          1           0       -1.118471   -0.041385   -1.733088
     11          1           0       -2.878257   -0.339410   -0.244467
     12          1           0       -2.006721   -1.790495    0.280223
     13          1           0       -1.670738    0.139248    1.804087
     14          1           0        0.692344   -0.089310    2.124019
     15          1           0        0.167497   -1.651988    1.479496
     16          1           0        2.352222    1.406749   -0.018354
     17          1           0        1.723461    0.810946   -1.528741
     18          1           0        0.349484    2.836419   -0.694505
     19          1           0       -1.682292    2.157643    0.412602
 ---------------------------------------------------------------------

 SCF Done:  E(RB3LYP) =  -423.215999622     A.U. after    1 cycles

 The electronic state is 1-A.
 Alpha  occ. eigenvalues --  -19.14124 -19.11915 -10.26428 -10.23387 -10.20407
 Alpha  occ. eigenvalues --  -10.19983 -10.19670 -10.19521 -10.19018  -1.03203
 Alpha  occ. eigenvalues --   -1.02297  -0.84127  -0.77136  -0.73146  -0.68688
 Alpha  occ. eigenvalues --   -0.61733  -0.57014  -0.51383  -0.50760  -0.47810
 Alpha  occ. eigenvalues --   -0.46707  -0.45819  -0.43501  -0.42987  -0.41482
 Alpha  occ. eigenvalues --   -0.38833  -0.38690  -0.36569  -0.35082  -0.34065
 Alpha  occ. eigenvalues --   -0.32246  -0.27861  -0.25940  -0.23470
 Alpha virt. eigenvalues --   -0.00736   0.00739   0.07355   0.09629   0.11329
 Alpha virt. eigenvalues --    0.12842   0.13854   0.15334   0.16329   0.16670
 Alpha virt. eigenvalues --    0.16808   0.18826   0.20164   0.21016   0.21998

 Mulliken charges:
               1
     1  O   -0.409057
     2  C   -0.066091
     3  C   -0.074163
     4  C   -0.312145
     5  C    0.408485
     6  O   -0.317627
     7  C   -0.354550
     8  C   -0.062086
     9  C   -0.094526
    10  H    0.284919
    11  H    0.088294
    12  H    0.115690
    13  H    0.081809
    14  H    0.121162
    15  H    0.120721
    16  H    0.137728
    17  H    0.140453
    18  H    0.096884
    19  H    0.094100
 Sum of Mulliken charges =   0.00000

 Dipole moment (field-independent basis, Debye):
    X=             -2.0075    Y=              3.2558    Z=              1.2649  Tot=              4.0287
 Quadrupole moment (field-independent basis, Debye-Ang):
   XX=            -54.9520   YY=            -55.6806   ZZ=            -51.8673
   XY=              4.3912   XZ=             -0.6093   YZ=             -4.5343

  Exact polarizability:  86.199   1.071  78.268  -8.919  -4.784  65.964
 Approx polarizability: 127.755  -0.759 116.402 -18.607  -3.677 102.965

                      1                      2                      3
                      A                      A                      A
 Frequencies --     77.8466                99.9087               133.0713
 Red. masses --      3.2680                 7.2140                 2.9937
 Frc consts  --      0.0117                 0.0424                 0.0312
 IR Inten    --      3.4261                 0.1454                 7.5441

                      4                      5                      6
                      A                      A                      A
 Frequencies --    213.2151               317.4303               385.8155
 Red. masses --      2.7493                 2.5517                 1.9897
 Frc consts  --      0.0736                 0.1515                 0.1745
 IR Inten    --      1.0398                 5.1458                13.2986

                      7                      8                      9
                      A                      A                      A
 Frequencies --    406.7338               446.0367               454.0985
 Red. masses --      2.1007                 1.6896                 2.6611
 Frc consts  --      0.2048                 0.1980                 0.3233
 IR Inten    --     21.1655                80.0970                48.9733

                     10                     11                     12
                      A                      A                      A
 Frequencies --    487.7596               561.2810               628.0113
 Red. masses --      3.7619                 3.8181                 2.7387
 Frc consts  --      0.5273                 0.7087                 0.6364
 IR Inten    --      4.0772                 1.6651                 5.2630

                     13                     14                     15
                      A                      A                      A
 Frequencies --    714.5330               739.4673               792.8285
 Red. masses --      2.3626                 2.2834                 2.5498
 Frc consts  --      0.7107                 0.7356                 0.9443
 IR Inten    --     16.8781                 6.5825                 2.7987

                     16                     17                     18
                      A                      A                      A
 Frequencies --    866.5203               915.8027               935.6299
 Red. masses --      1.8488                 2.9531                 1.9745
 Frc consts  --      0.8179                 1.4592                 1.0184
 IR Inten    --     21.1763                 1.7902                 6.7427

                     19                     20                     21
                      A                      A                      A
 Frequencies --    963.1317               974.6893              1006.9452
 Red. masses --      2.2364                 2.3341                 1.5958
 Frc consts  --      1.2223                 1.3065                 0.9534
 IR Inten    --      0.8907                16.5701                 8.7483

                     22                     23                     24
                      A                      A                      A
 Frequencies --   1013.7191              1082.2738              1088.0697
 Red. masses --      1.6519                 3.1895                 1.5292
 Frc consts  --      1.0001                 2.2011                 1.0667
 IR Inten    --      8.7873                39.5534                 5.6484

                     25                     26                     27
                      A                      A                      A
 Frequencies --   1145.5625              1178.5462              1201.6206
 Red. masses --      1.6782                 1.1575                 1.0930
 Frc consts  --      1.2976                 0.9473                 0.9298
 IR Inten    --     33.2191                 5.0743                16.4118

                     28                     29                     30
                      A                      A                      A
 Frequencies --   1225.8278              1230.6102              1286.0211
 Red. masses --      1.2143                 1.7136                 1.7007
 Frc consts  --      1.0751                 1.5290                 1.6571
 IR Inten    --      0.8370                19.4628                 0.2388

                     31                     32                     33
                      A                      A                      A
 Frequencies --   1323.7631              1337.9427              1368.1681
 Red. masses --      1.4911                 1.8399                 1.5393
 Frc consts  --      1.5395                 1.9405                 1.6977
 IR Inten    --      3.9303                 9.5354                13.5071

                     34                     35                     36
                      A                      A                      A
 Frequencies --   1390.7519              1409.1535              1426.5979
 Red. masses --      1.3139                 1.3167                 1.3607
 Frc consts  --      1.4973                 1.5405                 1.6316
 IR Inten    --      3.1930                18.7307                12.9859

                     37                     38                     39
                      A                      A                      A
 Frequencies --   1438.3901              1458.7996              1502.1971
 Red. masses --      1.0824                 1.1007                 1.0884
 Frc consts  --      1.3195                 1.3801                 1.4471
 IR Inten    --      8.1242                10.8781                 0.6803

                     40                     41                     42
                      A                      A                      A
 Frequencies --   1716.1547              1824.2430              2979.9519
 Red. masses --      6.6254                11.8612                 1.0693
 Frc consts  --     11.4967                23.2564                 5.5947
 IR Inten    --      1.7195               181.3238                61.3428

                     43                     44                     45
                      A                      A                      A
 Frequencies --   3004.4579              3014.3193              3026.6104
 Red. masses --      1.0697                 1.0723                 1.0778
 Frc consts  --      5.6889                 5.7405                 5.8169
 IR Inten    --      9.6324                25.0689                29.1621

                     46                     47                     48
                      A                      A                      A
 Frequencies --   3059.6781              3075.8459              3102.8119
 Red. masses --      1.0891                 1.0939                 1.0952
 Frc consts  --      6.0072                 6.0973                 6.2126
 IR Inten    --      5.4892                25.5829                17.0899

                     49                     50                     51
                      A                      A                      A
 Frequencies --   3140.6918              3163.9933              3787.2944
 Red. masses --      1.0834                 1.0967                 1.0655
 Frc consts  --      6.2964                 6.4686                 9.0042
 IR Inten    --      5.4405                30.5046                18.7190

 - Thermochemistry -
 -------------------
 Temperature   298.150 Kelvin.  Pressure   1.00000 Atm.
 Atom     1 has atomic number  8 and mass  15.99491

 Molecular mass:   126.06808 amu.
 Principal axes and moments of inertia in atomic units:
                           1         2         3
     Eigenvalues --   834.622141117.389481388.01434
           X            0.99713   0.07271  -0.02106
           Y           -0.07398   0.99500  -0.06709
           Z            0.01608   0.06845   0.99752
 This molecule is an asymmetric top.
 Rotational symmetry number  1.
 Warning -- assumption of classical behavior for rotation
           may cause significant error
 Rotational temperatures (Kelvin)      0.10378     0.07751     0.06240
 Rotational constants (GHZ):           2.16235     1.61514     1.30023
 Zero-point vibrational energy     419439.6 (Joules/Mol)
                                  100.24847 (Kcal/Mol)
 Warning -- explicit consideration of  11 degrees of freedom as
           vibrations may cause significant error
 Vibrational temperatures:    112.00   143.75   191.46   306.77   456.71
          (Kelvin)            555.10   585.20   641.75   653.35   701.78
                              807.56   903.57  1028.05  1063.93  1140.70
                             1246.73  1317.63  1346.16  1385.73  1402.36
                             1448.77  1458.51  1557.15  1565.49  1648.21
                             1695.66  1728.86  1763.69  1770.57  1850.30
                             1904.60  1925.00  1968.49  2000.98  2027.46
                             2052.55  2069.52  2098.88  2161.32  2469.16
                             2624.68  4287.48  4322.74  4336.93  4354.61
                             4402.19  4425.45  4464.25  4518.75  4552.28
                             5449.07

 Zero-point correction=                           0.159756 (Hartree/Particle)
 Thermal correction to Energy=                    0.168247
 Thermal correction to Enthalpy=                  0.169192
 Thermal correction to Gibbs Free Energy=         0.126444
 Sum of electronic and zero-point Energies=           -423.056244
 Sum of electronic and thermal Energies=              -423.047752
 Sum of electronic and thermal Enthalpies=            -423.046808
 Sum of electronic and thermal Free Energies=         -423.089556

                     E (Thermal)             CV                S
                      KCal/Mol        Cal/Mol-Kelvin    Cal/Mol-Kelvin
 Total                  105.577             32.343             89.971
 Electronic               0.000              0.000              0.000
 Translational            0.889              2.981             40.409
 Rotational               0.889              2.981             28.650
 Vibrational            103.799             26.382             20.912
 Vibration     1          0.599              1.964              3.944
 Vibration     2          0.604              1.949              3.456
 Vibration     3          0.613              1.920              2.901
 Vibration     4          0.644              1.821              2.016
 Vibration     5          0.704              1.640              1.323
 Vibration     6          0.754              1.500              1.016
 Vibration     7          0.772              1.456              0.938
 Vibration     8          0.805              1.370              0.808
 Vibration     9          0.813              1.352              0.783
 Vibration    10          0.844              1.277              0.689
 Vibration    11          0.917              1.115              0.521

 Optimization completed.
    -- Stationary point found.
 Normal termination of Gaussian 09 at Tue Jan 28 14:10:11 2020.
