 Gaussian 09, Revision D.01,
 Gaussian 09:  ES64L-G09RevD.01 24-Apr-2013

 -----------------------------
 # b3lyp 6-31G(2df,p) opt Freq
 -----------------------------

 -----
 titel
 -----
 Symbolic Z-matrix:
 Charge =  0 Multiplicity = 1

 SCF Done:  E(RB3LYP) =  -423.081434045     A.U. after   13 cycles
 Optimization completed.
    -- Stationary point found.
 Normal termination of Gaussian 09 at Mon Jan 27 15:34:51 2020.

 ----------------------------------------------------------------------
 #N Geom=AllCheck Guess=TCheck SCRF=Check GenChk RB3LYP/6-31G(2df,p) Fr
 eq
 ----------------------------------------------------------------------

 Structure from the checkpoint file:  "/scratch/puck/g09_895bccec-8ea2-43a5-a328-0741175d0ba6/Gau-175592.chk"
 -----
 titel
 -----
 Charge =  0 Multiplicity = 1

                         Standard orientation:
 ---------------------------------------------------------------------
 Center     Atomic      Atomic             Coordinates (Angstroms)
 Number     Number       Type             X           Y           Z
 ---------------------------------------------------------------------
      1          6           0        2.524317    1.131164    0.043687
      2          6           0        1.580414   -0.044451    0.300298
      3          8           0        2.245264   -1.294751    0.118503
      4          6           0        0.319486    0.023081   -0.554121
      5          6           0       -0.843017   -0.939299   -0.223346
      6          6           0       -1.393776   -0.012581    0.909793
      7          8           0       -2.756620    0.018092    0.393340
      8          6           0       -1.906013    0.051877   -0.790070
      9          6           0       -0.827789    0.984105   -0.154908
     10          1           0        2.044621    2.086158    0.281692
     11          1           0        3.427071    1.033130    0.652461
     12          1           0        2.824428    1.163658   -1.011479
     13          1           0        1.294588   -0.046193    1.359686
     14          1           0        2.545224   -1.334257   -0.796680
     15          1           0        0.587907    0.060376   -1.619803
     16          1           0       -0.878377   -2.027179   -0.252439
     17          1           0       -1.250433   -0.052107    1.988525
     18          1           0       -2.371167    0.093332   -1.774627
     19          1           0       -0.854754    2.072970   -0.110078
 ---------------------------------------------------------------------

 SCF Done:  E(RB3LYP) =  -423.081434045     A.U. after    1 cycles

 The electronic state is 1-A.
 Alpha  occ. eigenvalues --  -19.13493 -19.12809 -10.24950 -10.24945 -10.23396
 Alpha  occ. eigenvalues --  -10.20462 -10.20124 -10.19669 -10.17980  -1.06171
 Alpha  occ. eigenvalues --   -1.01680  -0.87098  -0.75700  -0.66659  -0.65660
 Alpha  occ. eigenvalues --   -0.64622  -0.59904  -0.52939  -0.51220  -0.48706
 Alpha  occ. eigenvalues --   -0.48138  -0.44578  -0.42953  -0.42029  -0.39966
 Alpha  occ. eigenvalues --   -0.38180  -0.37183  -0.34320  -0.31723  -0.31206
 Alpha  occ. eigenvalues --   -0.31064  -0.30468  -0.26474  -0.23254
 Alpha virt. eigenvalues --    0.06827   0.08366   0.10032   0.10584   0.11479
 Alpha virt. eigenvalues --    0.12113   0.13345   0.13809   0.15579   0.16234
 Alpha virt. eigenvalues --    0.17240   0.18190   0.19564   0.20257   0.21386

 Mulliken charges:
               1
     1  C   -0.404559
     2  C    0.116471
     3  O   -0.432316
     4  C   -0.046364
     5  C   -0.101111
     6  C    0.088449
     7  O   -0.329299
     8  C    0.081556
     9  C   -0.111411
    10  H    0.119435
    11  H    0.125649
    12  H    0.106014
    13  H    0.085560
    14  H    0.275294
    15  H    0.057196
    16  H    0.090141
    17  H    0.099934
    18  H    0.095895
    19  H    0.083464
 Sum of Mulliken charges =   0.00000

 Dipole moment (field-independent basis, Debye):
    X=              1.6677    Y=              0.9693    Z=             -1.5480  Tot=              2.4733
 Quadrupole moment (field-independent basis, Debye-Ang):
   XX=            -61.4546   YY=            -54.0738   ZZ=            -49.1517
   XY=              1.9129   XZ=             -0.6043   YZ=              2.0634

  Exact polarizability:  84.622   0.753  69.634  -0.348   0.786  69.748
 Approx polarizability: 112.635  -2.051 106.518  -2.379   0.697 111.740

                      1                      2                      3
                      A                      A                      A
 Frequencies --     70.0490               152.9259               155.8168
 Red. masses --      3.5309                 3.8687                 3.3584
 Frc consts  --      0.0102                 0.0533                 0.0480
 IR Inten    --      0.6086                 1.6475                 0.7427

                      4                      5                      6
                      A                      A                      A
 Frequencies --    241.1741               269.0116               322.4691
 Red. masses --      1.1014                 1.0699                 3.4350
 Frc consts  --      0.0377                 0.0456                 0.2105
 IR Inten    --      4.0269                84.3151                21.8260

                      7                      8                      9
                      A                      A                      A
 Frequencies --    416.4992               455.7477               508.5164
 Red. masses --      5.2097                 2.6327                 3.5378
 Frc consts  --      0.5325                 0.3222                 0.5390
 IR Inten    --      5.9767                 2.6202                 8.9108

                     10                     11                     12
                      A                      A                      A
 Frequencies --    573.8738               749.9287               783.4412
 Red. masses --      3.4266                 3.6303                 3.0338
 Frc consts  --      0.6649                 1.2029                 1.0971
 IR Inten    --      5.4211                 0.2043                 0.9593

                     13                     14                     15
                      A                      A                      A
 Frequencies --    796.8435               835.7558               846.8890
 Red. masses --      2.8933                 1.8836                 2.2633
 Frc consts  --      1.0824                 0.7752                 0.9564
 IR Inten    --     10.4680                 5.5995                 4.2654

                     16                     17                     18
                      A                      A                      A
 Frequencies --    884.5749               895.0693               912.2752
 Red. masses --      2.8923                 2.6050                 1.9674
 Frc consts  --      1.3334                 1.2296                 0.9647
 IR Inten    --     44.5718                12.5902                 7.6007

                     19                     20                     21
                      A                      A                      A
 Frequencies --    935.7765               973.3525               998.4355
 Red. masses --      2.0545                 1.3595                 1.8645
 Frc consts  --      1.0600                 0.7589                 1.0951
 IR Inten    --     13.2558                 0.7744                 7.3616

                     22                     23                     24
                      A                      A                      A
 Frequencies --   1029.3460              1061.3595              1089.9530
 Red. masses --      3.9320                 1.6455                 1.9834
 Frc consts  --      2.4546                 1.0921                 1.3883
 IR Inten    --      3.9539                64.8040                13.7456

                     25                     26                     27
                      A                      A                      A
 Frequencies --   1114.4687              1132.2372              1139.1612
 Red. masses --      1.9985                 1.6251                 1.9180
 Frc consts  --      1.4625                 1.2275                 1.4664
 IR Inten    --     11.4661                 0.2847                20.9158

                     28                     29                     30
                      A                      A                      A
 Frequencies --   1160.0747              1170.8978              1177.4447
 Red. masses --      2.1391                 1.5098                 1.9346
 Frc consts  --      1.6961                 1.2196                 1.5802
 IR Inten    --      2.5066                 0.1496                12.3054

                     31                     32                     33
                      A                      A                      A
 Frequencies --   1186.6247              1233.8280              1262.0797
 Red. masses --      1.7671                 1.7469                 1.4202
 Frc consts  --      1.4660                 1.5668                 1.3329
 IR Inten    --     14.4857                11.6500                10.0239

                     34                     35                     36
                      A                      A                      A
 Frequencies --   1285.9436              1330.8919              1338.0490
 Red. masses --      1.7370                 1.5879                 1.5522
 Frc consts  --      1.6923                 1.6572                 1.6374
 IR Inten    --     13.4443                18.6164                 1.2979

                     37                     38                     39
                      A                      A                      A
 Frequencies --   1401.6018              1416.2680              1422.5448
 Red. masses --      1.2571                 1.3582                 1.3597
 Frc consts  --      1.4550                 1.6051                 1.6212
 IR Inten    --      6.8417                33.3090                17.8613

                     40                     41                     42
                      A                      A                      A
 Frequencies --   1490.9211              1495.0056              3000.6175
 Red. masses --      1.0608                 1.0585                 1.0818
 Frc consts  --      1.3893                 1.3939                 5.7387
 IR Inten    --      7.2297                 2.8347                29.9771

                     43                     44                     45
                      A                      A                      A
 Frequencies --   3023.5068              3037.8109              3093.4349
 Red. masses --      1.0427                 1.0809                 1.0971
 Frc consts  --      5.6162                 5.8771                 6.1858
 IR Inten    --     11.2418                36.6830                30.8961

                     46                     47                     48
                      A                      A                      A
 Frequencies --   3113.4248              3119.1599              3123.5715
 Red. masses --      1.0877                 1.1014                 1.0912
 Frc consts  --      6.2123                 6.3138                 6.2726
 IR Inten    --     21.7933                17.8200                73.2596

                     49                     50                     51
                      A                      A                      A
 Frequencies --   3128.9817              3143.4132              3795.6255
 Red. masses --      1.0905                 1.1007                 1.0658
 Frc consts  --      6.2907                 6.4083                 9.0471
 IR Inten    --     45.4132                 7.7423                13.2344

 - Thermochemistry -
 -------------------
 Temperature   298.150 Kelvin.  Pressure   1.00000 Atm.
 Atom     1 has atomic number  6 and mass  12.00000

 Molecular mass:   126.06808 amu.
 Principal axes and moments of inertia in atomic units:
                           1         2         3
     Eigenvalues --   432.197051693.890381842.65442
           X            0.99977   0.02154   0.00220
           Y           -0.02158   0.99949   0.02342
           Z           -0.00169  -0.02346   0.99972
 This molecule is an asymmetric top.
 Rotational symmetry number  1.
 Rotational temperatures (Kelvin)      0.20040     0.05113     0.04700
 Rotational constants (GHZ):           4.17574     1.06544     0.97942
 Zero-point vibrational energy     414486.1 (Joules/Mol)
                                   99.06457 (Kcal/Mol)
 Warning -- explicit consideration of  10 degrees of freedom as
           vibrations may cause significant error
 Vibrational temperatures:    100.78   220.03   224.19   347.00   387.05
          (Kelvin)            463.96   599.25   655.72   731.64   825.68
                             1078.98  1127.20  1146.48  1202.46  1218.48
                             1272.70  1287.80  1312.56  1346.37  1400.44
                             1436.52  1481.00  1527.06  1568.20  1603.47
                             1629.03  1639.00  1669.09  1684.66  1694.08
                             1707.29  1775.20  1815.85  1850.18  1914.85
                             1925.15  2016.59  2037.69  2046.72  2145.10
                             2150.98  4317.21  4350.15  4370.73  4450.76
                             4479.52  4487.77  4494.12  4501.90  4522.66
                             5461.05

 Zero-point correction=                           0.157869 (Hartree/Particle)
 Thermal correction to Energy=                    0.166064
 Thermal correction to Enthalpy=                  0.167009
 Thermal correction to Gibbs Free Energy=         0.124927
 Sum of electronic and zero-point Energies=           -422.923565
 Sum of electronic and thermal Energies=              -422.915370
 Sum of electronic and thermal Enthalpies=            -422.914426
 Sum of electronic and thermal Free Energies=         -422.956507

                     E (Thermal)             CV                S
                      KCal/Mol        Cal/Mol-Kelvin    Cal/Mol-Kelvin
 Total                  104.207             31.796             88.568
 Electronic               0.000              0.000              0.000
 Translational            0.889              2.981             40.409
 Rotational               0.889              2.981             28.691
 Vibrational            102.429             25.835             19.469
 Vibration     1          0.598              1.968              4.152
 Vibration     2          0.619              1.899              2.636
 Vibration     3          0.620              1.896              2.600
 Vibration     4          0.658              1.777              1.794
 Vibration     5          0.673              1.730              1.603
 Vibration     6          0.707              1.630              1.298
 Vibration     7          0.780              1.434              0.904
 Vibration     8          0.814              1.348              0.779
 Vibration     9          0.864              1.231              0.637
 Vibration    10          0.930              1.088              0.497

 Normal termination of Gaussian 09 at Mon Jan 27 16:17:18 2020.
