 Gaussian 09, Revision D.01,
 Gaussian 09:  ES64L-G09RevD.01 24-Apr-2013

 -----------------------------
 # b3lyp 6-31G(2df,p) opt Freq
 -----------------------------

 -----
 titel
 -----
 Symbolic Z-matrix:
 Charge =  0 Multiplicity = 1

 SCF Done:  E(RB3LYP) =  -423.204765482     A.U. after   14 cycles
 Optimization completed.
    -- Stationary point found.
 Normal termination of Gaussian 09 at Mon Jan 27 17:58:12 2020.

 ----------------------------------------------------------------------
 #N Geom=AllCheck Guess=TCheck SCRF=Check GenChk RB3LYP/6-31G(2df,p) Fr
 eq
 ----------------------------------------------------------------------

 Structure from the checkpoint file:  "/scratch/puck/g09_f9568947-2c1b-46d0-b19e-ddb6bd4e25d4/Gau-180641.chk"
 -----
 titel
 -----
 Charge =  0 Multiplicity = 1

                         Standard orientation:
 ---------------------------------------------------------------------
 Center     Atomic      Atomic             Coordinates (Angstroms)
 Number     Number       Type             X           Y           Z
 ---------------------------------------------------------------------
      1          8           0       -2.279411   -0.994793   -0.484733
      2          6           0       -1.106223   -0.399214    0.004283
      3          6           0       -1.226795    0.482197    1.225290
      4          6           0       -1.031962    1.085547   -0.159163
      5          6           0        0.286006    1.704311   -0.588598
      6          6           0        1.505203    1.012976    0.037253
      7          6           0        1.482663   -0.514979    0.009836
      8          8           0        2.491118   -1.157173    0.186344
      9          6           0        0.147939   -1.212878   -0.252403
     10          1           0       -2.477328   -1.758734    0.069177
     11          1           0       -2.217007    0.572764    1.656935
     12          1           0       -0.417489    0.510233    1.947591
     13          1           0       -1.919303    1.539557   -0.588810
     14          1           0        0.355349    1.651058   -1.682931
     15          1           0        0.306300    2.769763   -0.332396
     16          1           0        2.439457    1.337457   -0.429434
     17          1           0        1.593776    1.292338    1.095662
     18          1           0        0.150672   -1.491719   -1.316344
     19          1           0        0.150927   -2.154741    0.308676
 ---------------------------------------------------------------------

 SCF Done:  E(RB3LYP) =  -423.204765482     A.U. after    1 cycles

 The electronic state is 1-A.
 Alpha  occ. eigenvalues --  -19.14662 -19.12514 -10.27062 -10.24519 -10.19590
 Alpha  occ. eigenvalues --  -10.19531 -10.19403 -10.19322 -10.18831  -1.03815
 Alpha  occ. eigenvalues --   -1.03284  -0.86895  -0.77726  -0.74726  -0.66919
 Alpha  occ. eigenvalues --   -0.60201  -0.57463  -0.52381  -0.51244  -0.48243
 Alpha  occ. eigenvalues --   -0.47317  -0.46083  -0.43013  -0.41613  -0.40000
 Alpha  occ. eigenvalues --   -0.39244  -0.38902  -0.37403  -0.34834  -0.34004
 Alpha  occ. eigenvalues --   -0.32193  -0.27460  -0.26479  -0.23814
 Alpha virt. eigenvalues --   -0.01608   0.07262   0.08680   0.10003   0.12624
 Alpha virt. eigenvalues --    0.13193   0.13606   0.14844   0.16562   0.17349
 Alpha virt. eigenvalues --    0.18636   0.19875   0.20229   0.20621   0.23084

 Mulliken charges:
               1
     1  O   -0.467073
     2  C    0.399926
     3  C   -0.363723
     4  C   -0.053864
     5  C   -0.240981
     6  C   -0.316623
     7  C    0.385370
     8  O   -0.313901
     9  C   -0.384083
    10  H    0.280780
    11  H    0.116492
    12  H    0.111856
    13  H    0.099791
    14  H    0.110096
    15  H    0.108501
    16  H    0.130387
    17  H    0.137115
    18  H    0.140805
    19  H    0.119130
 Sum of Mulliken charges =   0.00000

 Dipole moment (field-independent basis, Debye):
    X=             -1.6887    Y=              1.0613    Z=              0.5588  Tot=              2.0713
 Quadrupole moment (field-independent basis, Debye-Ang):
   XX=            -61.4754   YY=            -50.8061   ZZ=            -52.1528
   XY=              6.7141   XZ=             -3.8728   YZ=             -1.0913

  Exact polarizability:  81.383   0.998  78.250  -0.964  -1.127  64.397
 Approx polarizability: 113.569  -2.275 112.351   2.037  -1.864 101.847

                      1                      2                      3
                      A                      A                      A
 Frequencies --     51.8000               184.3420               236.4956
 Red. masses --      3.6096                 2.4817                 2.1869
 Frc consts  --      0.0057                 0.0497                 0.0721
 IR Inten    --      6.6439                 1.3800                 5.0117

                      4                      5                      6
                      A                      A                      A
 Frequencies --    287.5963               321.5113               355.7176
 Red. masses --      1.5556                 1.7394                 4.0666
 Frc consts  --      0.0758                 0.1059                 0.3032
 IR Inten    --     30.9955                49.8676                14.2712

                      7                      8                      9
                      A                      A                      A
 Frequencies --    394.1192               453.5355               476.1350
 Red. masses --      4.0232                 2.8075                 3.1551
 Frc consts  --      0.3682                 0.3402                 0.4214
 IR Inten    --     17.5078                 1.6435                 1.5813

                     10                     11                     12
                      A                      A                      A
 Frequencies --    486.3004               535.7255               589.2146
 Red. masses --      3.4888                 2.5964                 2.1551
 Frc consts  --      0.4861                 0.4390                 0.4408
 IR Inten    --      6.0868                 4.8115                 1.4108

                     13                     14                     15
                      A                      A                      A
 Frequencies --    685.9550               761.5210               797.7994
 Red. masses --      3.5543                 2.5838                 1.9599
 Frc consts  --      0.9854                 0.8828                 0.7350
 IR Inten    --      3.1938                 6.2266                 0.7687

                     16                     17                     18
                      A                      A                      A
 Frequencies --    860.0815               878.9465               930.9217
 Red. masses --      1.9479                 2.0472                 1.7249
 Frc consts  --      0.8490                 0.9318                 0.8807
 IR Inten    --      1.6015                 0.0918                11.2861

                     19                     20                     21
                      A                      A                      A
 Frequencies --    947.5872               972.5921               989.1962
 Red. masses --      1.9732                 1.7371                 2.3168
 Frc consts  --      1.0439                 0.9681                 1.3357
 IR Inten    --      5.4246                 5.4130                 7.0094

                     22                     23                     24
                      A                      A                      A
 Frequencies --   1041.0309              1072.6338              1090.7898
 Red. masses --      1.3498                 2.0251                 1.2747
 Frc consts  --      0.8619                 1.3728                 0.8936
 IR Inten    --      6.1102                13.3745                18.2433

                     25                     26                     27
                      A                      A                      A
 Frequencies --   1116.7925              1169.1329              1189.8835
 Red. masses --      2.2690                 1.5273                 2.2394
 Frc consts  --      1.6674                 1.2300                 1.8680
 IR Inten    --     10.5843                68.5509                23.3972

                     28                     29                     30
                      A                      A                      A
 Frequencies --   1211.4216              1231.1591              1249.9351
 Red. masses --      1.8981                 1.3887                 1.4421
 Frc consts  --      1.6412                 1.2402                 1.3274
 IR Inten    --     25.7282                10.4872                 1.5418

                     31                     32                     33
                      A                      A                      A
 Frequencies --   1282.1572              1330.7665              1344.9220
 Red. masses --      1.5411                 1.5205                 2.2684
 Frc consts  --      1.4927                 1.5865                 2.4175
 IR Inten    --     63.8604                 1.1147                21.2872

                     34                     35                     36
                      A                      A                      A
 Frequencies --   1358.5576              1372.7131              1418.4812
 Red. masses --      1.4504                 1.6391                 1.4401
 Frc consts  --      1.5772                 1.8197                 1.7072
 IR Inten    --     15.5725                20.0833                 6.7831

                     37                     38                     39
                      A                      A                      A
 Frequencies --   1449.3149              1460.4688              1494.0637
 Red. masses --      1.1044                 1.1255                 1.1767
 Frc consts  --      1.3668                 1.4145                 1.5476
 IR Inten    --      0.8630                 7.2416                 3.9222

                     40                     41                     42
                      A                      A                      A
 Frequencies --   1510.6378              1809.2150              3014.2555
 Red. masses --      1.4979                12.2444                 1.0634
 Frc consts  --      2.0139                23.6139                 5.6927
 IR Inten    --      7.1593               179.3102                12.4894

                     43                     44                     45
                      A                      A                      A
 Frequencies --   3021.4664              3030.9055              3060.0482
 Red. masses --      1.0641                 1.0677                 1.0982
 Frc consts  --      5.7234                 5.7791                 6.0587
 IR Inten    --     29.1567                13.2706                30.2760

                     46                     47                     48
                      A                      A                      A
 Frequencies --   3063.8857              3095.0404              3134.2659
 Red. masses --      1.0965                 1.0933                 1.0545
 Frc consts  --      6.0649                 6.1708                 6.1033
 IR Inten    --     11.9530                12.2298                 9.4556

                     49                     50                     51
                      A                      A                      A
 Frequencies --   3162.5018              3221.9817              3786.4181
 Red. masses --      1.0891                 1.1159                 1.0660
 Frc consts  --      6.4175                 6.8255                 9.0047
 IR Inten    --      7.6065                 8.6328                15.1114

 - Thermochemistry -
 -------------------
 Temperature   298.150 Kelvin.  Pressure   1.00000 Atm.
 Atom     1 has atomic number  8 and mass  15.99491

 Molecular mass:   126.06808 amu.
 Principal axes and moments of inertia in atomic units:
                           1         2         3
     Eigenvalues --   683.415091240.814821633.81257
           X            0.99917   0.03837  -0.01389
           Y           -0.03846   0.99924  -0.00632
           Z            0.01364   0.00685   0.99988
 This molecule is an asymmetric top.
 Rotational symmetry number  1.
 Warning -- assumption of classical behavior for rotation
           may cause significant error
 Rotational temperatures (Kelvin)      0.12674     0.06980     0.05301
 Rotational constants (GHZ):           2.64077     1.45448     1.10462
 Zero-point vibrational energy     418644.8 (Joules/Mol)
                                  100.05850 (Kcal/Mol)
 Warning -- explicit consideration of  12 degrees of freedom as
           vibrations may cause significant error
 Vibrational temperatures:     74.53   265.23   340.26   413.79   462.58
          (Kelvin)            511.80   567.05   652.54   685.05   699.68
                              770.79   847.75   986.94  1095.66  1147.85
                             1237.46  1264.61  1339.39  1363.36  1399.34
                             1423.23  1497.81  1543.28  1569.40  1606.81
                             1682.12  1711.97  1742.96  1771.36  1798.38
                             1844.74  1914.67  1935.04  1954.66  1975.03
                             2040.88  2085.24  2101.29  2149.62  2173.47
                             2603.05  4336.84  4347.21  4360.79  4402.72
                             4408.24  4453.07  4509.50  4550.13  4635.71
                             5447.80

 Zero-point correction=                           0.159453 (Hartree/Particle)
 Thermal correction to Energy=                    0.167660
 Thermal correction to Enthalpy=                  0.168604
 Thermal correction to Gibbs Free Energy=         0.126633
 Sum of electronic and zero-point Energies=           -423.045312
 Sum of electronic and thermal Energies=              -423.037106
 Sum of electronic and thermal Enthalpies=            -423.036161
 Sum of electronic and thermal Free Energies=         -423.078132

                     E (Thermal)             CV                S
                      KCal/Mol        Cal/Mol-Kelvin    Cal/Mol-Kelvin
 Total                  105.208             32.423             88.335
 Electronic               0.000              0.000              0.000
 Translational            0.889              2.981             40.409
 Rotational               0.889              2.981             28.718
 Vibrational            103.431             26.461             19.209
 Vibration     1          0.596              1.977              4.747
 Vibration     2          0.631              1.861              2.284
 Vibration     3          0.655              1.785              1.829
 Vibration     4          0.685              1.697              1.488
 Vibration     5          0.707              1.632              1.302
 Vibration     6          0.731              1.564              1.141
 Vibration     7          0.761              1.483              0.985
 Vibration     8          0.812              1.353              0.785
 Vibration     9          0.833              1.303              0.721
 Vibration    10          0.842              1.280              0.693
 Vibration    11          0.891              1.171              0.575
 Vibration    12          0.946              1.055              0.469

 Optimization completed.
    -- Stationary point found.
 Normal termination of Gaussian 09 at Mon Jan 27 18:41:24 2020.
