 Gaussian 09, Revision D.01,
 Gaussian 09:  ES64L-G09RevD.01 24-Apr-2013

 -----------------------------
 # b3lyp 6-31G(2df,p) opt Freq
 -----------------------------

 -----
 titel
 -----
 Symbolic Z-matrix:
 Charge =  0 Multiplicity = 1

 SCF Done:  E(RB3LYP) =  -423.198648348     A.U. after   14 cycles
 Optimization completed.
    -- Stationary point found.
 Normal termination of Gaussian 09 at Mon Jan 27 13:12:23 2020.

 ----------------------------------------------------------------------
 #N Geom=AllCheck Guess=TCheck SCRF=Check GenChk RB3LYP/6-31G(2df,p) Fr
 eq
 ----------------------------------------------------------------------

 Structure from the checkpoint file:  "/scratch/puck/g09_74ca26e5-28de-456a-8c85-aead1440449a/Gau-48129.chk"
 -----
 titel
 -----
 Charge =  0 Multiplicity = 1

                         Standard orientation:
 ---------------------------------------------------------------------
 Center     Atomic      Atomic             Coordinates (Angstroms)
 Number     Number       Type             X           Y           Z
 ---------------------------------------------------------------------
      1          8           0        1.809329   -1.141939    0.993105
      2          6           0        1.147283   -0.760318    0.054497
      3          6           0        1.496912    0.530723   -0.688759
      4          6           0        0.820163    1.781683   -0.099486
      5          6           0       -0.699761    1.701722   -0.128172
      6          8           0       -1.129401    0.673041    0.756153
      7          6           0       -1.982303   -0.305737    0.213559
      8          6           0       -1.264038   -1.444032   -0.456277
      9          6           0        0.052705   -1.630950   -0.508333
     10          1           0        2.582723    0.645490   -0.619443
     11          1           0        1.224358    0.432227   -1.746221
     12          1           0        1.144518    1.914107    0.938437
     13          1           0        1.145796    2.666690   -0.658521
     14          1           0       -1.139098    2.652746    0.203139
     15          1           0       -1.055382    1.508152   -1.149984
     16          1           0       -2.571485   -0.705384    1.050571
     17          1           0       -2.708871    0.142111   -0.485083
     18          1           0       -1.920841   -2.199868   -0.885405
     19          1           0        0.433087   -2.543633   -0.963737
 ---------------------------------------------------------------------

 SCF Done:  E(RB3LYP) =  -423.198648348     A.U. after    1 cycles

 The electronic state is 1-A.
 Alpha  occ. eigenvalues --  -19.14937 -19.11955 -10.26549 -10.24277 -10.23644
 Alpha  occ. eigenvalues --  -10.19674 -10.19323 -10.19005 -10.18852  -1.04283
 Alpha  occ. eigenvalues --   -1.03005  -0.80319  -0.79723  -0.71029  -0.69365
 Alpha  occ. eigenvalues --   -0.60491  -0.58817  -0.52705  -0.50833  -0.48257
 Alpha  occ. eigenvalues --   -0.46717  -0.45015  -0.44669  -0.42134  -0.41805
 Alpha  occ. eigenvalues --   -0.39694  -0.37676  -0.36250  -0.35094  -0.33965
 Alpha  occ. eigenvalues --   -0.32401  -0.26430  -0.26292  -0.23480
 Alpha virt. eigenvalues --   -0.01968   0.02419   0.08501   0.10252   0.12489
 Alpha virt. eigenvalues --    0.12876   0.13551   0.15262   0.15789   0.16203
 Alpha virt. eigenvalues --    0.16690   0.17126   0.18301   0.20844   0.21841

 Mulliken charges:
               1
     1  O   -0.314724
     2  C    0.358926
     3  C   -0.287741
     4  C   -0.194965
     5  C   -0.070647
     6  O   -0.239645
     7  C   -0.140364
     8  C   -0.039229
     9  C   -0.166466
    10  H    0.122168
    11  H    0.100684
    12  H    0.129437
    13  H    0.099797
    14  H    0.102834
    15  H    0.095190
    16  H    0.128574
    17  H    0.103681
    18  H    0.095335
    19  H    0.117156
 Sum of Mulliken charges =   0.00000

 Dipole moment (field-independent basis, Debye):
    X=             -2.0351    Y=              1.2719    Z=             -2.8589  Tot=              3.7327
 Quadrupole moment (field-independent basis, Debye-Ang):
   XX=            -52.5618   YY=            -50.5978   ZZ=            -55.8933
   XY=              4.0502   XZ=             -2.7946   YZ=              2.1264

  Exact polarizability:  91.449   1.433  81.254   1.977   0.999  61.606
 Approx polarizability: 136.514  -3.771 108.424   8.368  -1.318 102.189

                      1                      2                      3
                      A                      A                      A
 Frequencies --     58.8408                93.5652               209.5373
 Red. masses --      2.6299                 5.5653                 5.4921
 Frc consts  --      0.0054                 0.0287                 0.1421
 IR Inten    --      0.8065                 0.9291                11.2225

                      4                      5                      6
                      A                      A                      A
 Frequencies --    229.6933               285.0696               304.0445
 Red. masses --      2.6032                 5.2748                 2.3299
 Frc consts  --      0.0809                 0.2526                 0.1269
 IR Inten    --      1.5014                 3.6224                 3.3412

                      7                      8                      9
                      A                      A                      A
 Frequencies --    420.0174               455.3502               473.5160
 Red. masses --      2.1529                 2.1817                 2.5474
 Frc consts  --      0.2238                 0.2665                 0.3365
 IR Inten    --      2.2698                 7.6212                 2.8012

                     10                     11                     12
                      A                      A                      A
 Frequencies --    521.4779               614.4324               685.8609
 Red. masses --      2.4183                 3.5461                 2.3375
 Frc consts  --      0.3875                 0.7888                 0.6478
 IR Inten    --      5.2730                 1.0015                11.4150

                     13                     14                     15
                      A                      A                      A
 Frequencies --    738.3802               830.9317               855.8464
 Red. masses --      2.6231                 2.5842                 3.0707
 Frc consts  --      0.8426                 1.0513                 1.3252
 IR Inten    --      5.3230                 5.6467                 7.6501

                     16                     17                     18
                      A                      A                      A
 Frequencies --    886.6476               899.8377               926.1774
 Red. masses --      2.9847                 1.5667                 3.1139
 Frc consts  --      1.3825                 0.7474                 1.5738
 IR Inten    --      5.1757                 1.9231                 4.5887

                     19                     20                     21
                      A                      A                      A
 Frequencies --    982.7077              1016.2537              1034.7767
 Red. masses --      1.2396                 2.1944                 1.7665
 Frc consts  --      0.7053                 1.3353                 1.1144
 IR Inten    --      3.2279                 8.8996                 9.9893

                     22                     23                     24
                      A                      A                      A
 Frequencies --   1055.2683              1073.2596              1132.3167
 Red. masses --      2.4912                 1.8511                 2.5205
 Frc consts  --      1.6345                 1.2563                 1.9040
 IR Inten    --     17.9103                 5.8037               161.4524

                     25                     26                     27
                      A                      A                      A
 Frequencies --   1176.9503              1209.8517              1233.1770
 Red. masses --      3.0946                 1.1741                 1.2600
 Frc consts  --      2.5257                 1.0126                 1.1290
 IR Inten    --      1.4168                 0.7745                 0.1803

                     28                     29                     30
                      A                      A                      A
 Frequencies --   1253.2738              1297.1117              1303.6579
 Red. masses --      1.5298                 1.2089                 1.1460
 Frc consts  --      1.4157                 1.1984                 1.1476
 IR Inten    --     72.9507                11.2726                 2.4784

                     31                     32                     33
                      A                      A                      A
 Frequencies --   1352.8235              1378.5051              1396.3875
 Red. masses --      1.3542                 1.3798                 1.3369
 Frc consts  --      1.4602                 1.5449                 1.5359
 IR Inten    --     17.8100                 1.6222                22.2617

                     34                     35                     36
                      A                      A                      A
 Frequencies --   1401.1425              1418.1315              1472.1018
 Red. masses --      1.5804                 1.3267                 1.0851
 Frc consts  --      1.8280                 1.5720                 1.3855
 IR Inten    --      4.7191                 2.6200                 3.3447

                     37                     38                     39
                      A                      A                      A
 Frequencies --   1477.4430              1479.2985              1510.8215
 Red. masses --      1.0891                 1.1068                 1.0908
 Frc consts  --      1.4007                 1.4270                 1.4670
 IR Inten    --      2.5687                10.1344                 3.4200

                     40                     41                     42
                      A                      A                      A
 Frequencies --   1718.5700              1792.1051              2966.2994
 Red. masses --      7.7068                11.6144                 1.0679
 Frc consts  --     13.4108                21.9773                 5.5360
 IR Inten    --      5.6087               173.9294                39.2582

                     43                     44                     45
                      A                      A                      A
 Frequencies --   2996.5734              3028.0336              3032.2868
 Red. masses --      1.0564                 1.0910                 1.0822
 Frc consts  --      5.5888                 5.8939                 5.8626
 IR Inten    --     56.5616                19.5559                 7.5135

                     46                     47                     48
                      A                      A                      A
 Frequencies --   3035.1820              3045.2633              3085.5132
 Red. masses --      1.0659                 1.0797                 1.1008
 Frc consts  --      5.7854                 5.8996                 6.1745
 IR Inten    --     25.7766                53.1900                17.4989

                     49                     50                     51
                      A                      A                      A
 Frequencies --   3098.6981              3129.5386              3153.4608
 Red. masses --      1.1032                 1.0826                 1.0938
 Frc consts  --      6.2411                 6.2472                 6.4084
 IR Inten    --     24.7301                13.1812                11.3866

 - Thermochemistry -
 -------------------
 Temperature   298.150 Kelvin.  Pressure   1.00000 Atm.
 Atom     1 has atomic number  8 and mass  15.99491

 Molecular mass:   126.06808 amu.
 Principal axes and moments of inertia in atomic units:
                           1         2         3
     Eigenvalues --   879.10877 982.382761531.79903
           X            0.96589   0.25862  -0.01312
           Y           -0.25856   0.96597   0.00655
           Z            0.01436  -0.00293   0.99989
 This molecule is an asymmetric top.
 Rotational symmetry number  1.
 Warning -- assumption of classical behavior for rotation
           may cause significant error
 Rotational temperatures (Kelvin)      0.09852     0.08817     0.05654
 Rotational constants (GHZ):           2.05292     1.83711     1.17818
 Zero-point vibrational energy     420044.8 (Joules/Mol)
                                  100.39312 (Kcal/Mol)
 Warning -- explicit consideration of  11 degrees of freedom as
           vibrations may cause significant error
 Vibrational temperatures:     84.66   134.62   301.48   330.48   410.15
          (Kelvin)            437.45   604.31   655.15   681.28   750.29
                              884.03   986.80  1062.36  1195.52  1231.37
                             1275.69  1294.66  1332.56  1413.90  1462.16
                             1488.81  1518.29  1544.18  1629.15  1693.37
                             1740.70  1774.26  1803.18  1866.25  1875.67
                             1946.41  1983.36  2009.09  2015.93  2040.37
                             2118.02  2125.71  2128.38  2173.73  2472.64
                             2578.44  4267.84  4311.40  4356.66  4362.78
                             4366.94  4381.45  4439.36  4458.33  4502.70
                             4537.12

 Zero-point correction=                           0.159987 (Hartree/Particle)
 Thermal correction to Energy=                    0.168298
 Thermal correction to Enthalpy=                  0.169242
 Thermal correction to Gibbs Free Energy=         0.126671
 Sum of electronic and zero-point Energies=           -423.038662
 Sum of electronic and thermal Energies=              -423.030351
 Sum of electronic and thermal Enthalpies=            -423.029407
 Sum of electronic and thermal Free Energies=         -423.071977

                     E (Thermal)             CV                S
                      KCal/Mol        Cal/Mol-Kelvin    Cal/Mol-Kelvin
 Total                  105.608             31.404             89.598
 Electronic               0.000              0.000              0.000
 Translational            0.889              2.981             40.409
 Rotational               0.889              2.981             28.672
 Vibrational            103.831             25.442             20.517
 Vibration     1          0.596              1.974              4.496
 Vibration     2          0.603              1.954              3.584
 Vibration     3          0.642              1.826              2.048
 Vibration     4          0.652              1.796              1.881
 Vibration     5          0.683              1.701              1.503
 Vibration     6          0.695              1.666              1.395
 Vibration     7          0.783              1.427              0.892
 Vibration     8          0.814              1.349              0.780
 Vibration     9          0.830              1.309              0.728
 Vibration    10          0.876              1.202              0.607
 Vibration    11          0.974              1.001              0.425

 Optimization completed.
    -- Stationary point found.
 Normal termination of Gaussian 09 at Mon Jan 27 13:56:08 2020.
