 Gaussian 09, Revision D.01,
 Gaussian 09:  ES64L-G09RevD.01 24-Apr-2013

 -----------------------------
 # b3lyp 6-31G(2df,p) opt Freq
 -----------------------------

 -----
 titel
 -----
 Symbolic Z-matrix:
 Charge =  0 Multiplicity = 1

 SCF Done:  E(RB3LYP) =  -423.159467593     A.U. after   14 cycles
 Optimization completed.
    -- Stationary point found.
 Normal termination of Gaussian 09 at Tue Jan 28 02:54:41 2020.

 ----------------------------------------------------------------------
 #N Geom=AllCheck Guess=TCheck SCRF=Check GenChk RB3LYP/6-31G(2df,p) Fr
 eq
 ----------------------------------------------------------------------

 Structure from the checkpoint file:  "/scratch/puck/g09_40a135ac-b197-48d1-80d7-dbac3b3ff313/Gau-29312.chk"
 -----
 titel
 -----
 Charge =  0 Multiplicity = 1

                         Standard orientation:
 ---------------------------------------------------------------------
 Center     Atomic      Atomic             Coordinates (Angstroms)
 Number     Number       Type             X           Y           Z
 ---------------------------------------------------------------------
      1          8           0       -1.741487   -1.251738   -0.942772
      2          6           0       -1.859889   -0.416045    0.180759
      3          6           0       -1.846173    1.128967   -0.164077
      4          6           0       -0.372115    1.055660    0.160457
      5          6           0        0.857223    1.228551   -0.315368
      6          6           0        1.789917    0.170398    0.282733
      7          8           0        2.771884   -0.301378   -0.625600
      8          6           0        0.801389   -0.937716    0.783945
      9          6           0       -0.520926   -0.186458    0.996404
     10          1           0       -1.035165   -0.901084   -1.499308
     11          1           0       -2.720687   -0.783565    0.743370
     12          1           0       -2.153148    1.416107   -1.173098
     13          1           0       -2.425298    1.702471    0.566860
     14          1           0        1.204408    1.943648   -1.052496
     15          1           0        2.378374    0.573213    1.116927
     16          1           0        2.310775   -0.642250   -1.400549
     17          1           0        0.682433   -1.677748   -0.018859
     18          1           0        1.171773   -1.467508    1.664671
     19          1           0       -0.753202    0.001496    2.050328
 ---------------------------------------------------------------------

 SCF Done:  E(RB3LYP) =  -423.159467593     A.U. after    1 cycles

 The electronic state is 1-A.
 Alpha  occ. eigenvalues --  -19.14631 -19.13465 -10.24476 -10.23466 -10.19755
 Alpha  occ. eigenvalues --  -10.19204 -10.18575 -10.18307 -10.17987  -1.03126
 Alpha  occ. eigenvalues --   -1.01697  -0.86782  -0.77215  -0.71556  -0.65249
 Alpha  occ. eigenvalues --   -0.63272  -0.58731  -0.52510  -0.50467  -0.49790
 Alpha  occ. eigenvalues --   -0.46589  -0.45149  -0.43994  -0.41462  -0.39734
 Alpha  occ. eigenvalues --   -0.38123  -0.37485  -0.35586  -0.33662  -0.31952
 Alpha  occ. eigenvalues --   -0.30403  -0.26744  -0.26538  -0.24090
 Alpha virt. eigenvalues --    0.00500   0.06119   0.10031   0.10726   0.11710
 Alpha virt. eigenvalues --    0.12269   0.13649   0.14848   0.15655   0.16562
 Alpha virt. eigenvalues --    0.17564   0.19007   0.19676   0.20895   0.22514

 Mulliken charges:
               1
     1  O   -0.421825
     2  C    0.114518
     3  C   -0.354067
     4  C    0.281445
     5  C   -0.311310
     6  C    0.132423
     7  O   -0.428224
     8  C   -0.293152
     9  C   -0.062770
    10  H    0.276543
    11  H    0.091744
    12  H    0.112473
    13  H    0.117871
    14  H    0.099638
    15  H    0.096459
    16  H    0.267968
    17  H    0.096839
    18  H    0.103721
    19  H    0.079707
 Sum of Mulliken charges =   0.00000

 Dipole moment (field-independent basis, Debye):
    X=             -1.0925    Y=              0.9054    Z=             -0.0170  Tot=              1.4190
 Quadrupole moment (field-independent basis, Debye-Ang):
   XX=            -60.9728   YY=            -55.5672   ZZ=            -48.5477
   XY=             -3.0321   XZ=             -2.2462   YZ=             -0.6758

  Exact polarizability:  95.608  -1.449  68.869  -4.540  -3.648  69.714
 Approx polarizability: 139.542   1.238 102.619 -11.947  -2.558 110.051

                      1                      2                      3
                      A                      A                      A
 Frequencies --     74.2083               143.5406               233.2368
 Red. masses --      4.7138                 3.3657                 3.3098
 Frc consts  --      0.0153                 0.0409                 0.1061
 IR Inten    --      2.8510                 1.0418                 1.6821

                      4                      5                      6
                      A                      A                      A
 Frequencies --    310.0694               328.0086               364.4564
 Red. masses --      1.2925                 2.3473                 1.3518
 Frc consts  --      0.0732                 0.1488                 0.1058
 IR Inten    --     19.0043                26.9136                54.9671

                      7                      8                      9
                      A                      A                      A
 Frequencies --    386.6776               419.5248               485.7324
 Red. masses --      2.2237                 2.2011                 3.0315
 Frc consts  --      0.1959                 0.2282                 0.4214
 IR Inten    --     65.8704                18.8029                 2.2028

                     10                     11                     12
                      A                      A                      A
 Frequencies --    531.8938               571.1779               649.8193
 Red. masses --      3.4930                 2.6197                 3.6182
 Frc consts  --      0.5822                 0.5036                 0.9002
 IR Inten    --     21.5198                 8.4908                 2.2840

                     13                     14                     15
                      A                      A                      A
 Frequencies --    770.5685               788.1206               819.8236
 Red. masses --      3.3594                 2.1399                 2.7913
 Frc consts  --      1.1753                 0.7831                 1.1053
 IR Inten    --      4.2083                 6.6012                12.6374

                     16                     17                     18
                      A                      A                      A
 Frequencies --    839.7593               855.5910               926.8422
 Red. masses --      2.1085                 2.1803                 2.3435
 Frc consts  --      0.8761                 0.9404                 1.1861
 IR Inten    --      1.4441                 6.8026                10.0747

                     19                     20                     21
                      A                      A                      A
 Frequencies --    948.8531               973.2890              1028.5248
 Red. masses --      2.3494                 1.9711                 2.3861
 Frc consts  --      1.2463                 1.1001                 1.4872
 IR Inten    --      7.0754                17.4287                11.3550

                     22                     23                     24
                      A                      A                      A
 Frequencies --   1037.1822              1053.9050              1064.8082
 Red. masses --      2.5267                 1.8864                 1.6988
 Frc consts  --      1.6015                 1.2345                 1.1349
 IR Inten    --     36.3351                18.4124                12.7022

                     25                     26                     27
                      A                      A                      A
 Frequencies --   1117.8683              1131.3511              1157.4554
 Red. masses --      1.9813                 2.2819                 1.3351
 Frc consts  --      1.4588                 1.7208                 1.0539
 IR Inten    --     47.7663                60.2739                43.7186

                     28                     29                     30
                      A                      A                      A
 Frequencies --   1168.9903              1204.5316              1235.2702
 Red. masses --      1.5054                 1.5172                 1.4596
 Frc consts  --      1.2120                 1.2970                 1.3122
 IR Inten    --     25.5281                11.9806                 1.5692

                     31                     32                     33
                      A                      A                      A
 Frequencies --   1246.5225              1257.3373              1281.1325
 Red. masses --      1.4580                 1.3384                 1.5096
 Frc consts  --      1.3348                 1.2466                 1.4598
 IR Inten    --      2.6429                 2.5410                 3.0671

                     34                     35                     36
                      A                      A                      A
 Frequencies --   1308.8486              1322.8472              1337.5344
 Red. masses --      1.3940                 1.7277                 1.5810
 Frc consts  --      1.4070                 1.7813                 1.6665
 IR Inten    --      9.9067                 2.8219                 1.0452

                     37                     38                     39
                      A                      A                      A
 Frequencies --   1425.8002              1429.6718              1469.2924
 Red. masses --      1.2285                 1.2107                 1.1141
 Frc consts  --      1.4714                 1.4580                 1.4171
 IR Inten    --     82.8176                77.7024                 4.0942

                     40                     41                     42
                      A                      A                      A
 Frequencies --   1482.8808              1727.4147              3022.2014
 Red. masses --      1.0934                 8.6717                 1.0742
 Frc consts  --      1.4166                15.2458                 5.7807
 IR Inten    --      4.0501                 9.5103                21.2596

                     43                     44                     45
                      A                      A                      A
 Frequencies --   3029.8130              3043.8961              3050.8527
 Red. masses --      1.0766                 1.0806                 1.0624
 Frc consts  --      5.8229                 5.8990                 5.8263
 IR Inten    --     35.3806                15.6062                31.4115

                     46                     47                     48
                      A                      A                      A
 Frequencies --   3092.6486              3104.5240              3109.0461
 Red. masses --      1.0888                 1.0968                 1.1057
 Frc consts  --      6.1356                 6.2285                 6.2970
 IR Inten    --     54.8884                32.5248                24.7055

                     49                     50                     51
                      A                      A                      A
 Frequencies --   3198.7157              3774.5238              3789.9990
 Red. masses --      1.0953                 1.0652                 1.0657
 Frc consts  --      6.6028                 8.9418                 9.0192
 IR Inten    --      7.4103                 5.6231                 6.0920

 - Thermochemistry -
 -------------------
 Temperature   298.150 Kelvin.  Pressure   1.00000 Atm.
 Atom     1 has atomic number  8 and mass  15.99491

 Molecular mass:   126.06808 amu.
 Principal axes and moments of inertia in atomic units:
                           1         2         3
     Eigenvalues --   576.313961451.847481609.14979
           X            0.99981  -0.01940  -0.00165
           Y            0.01926   0.99779  -0.06364
           Z            0.00288   0.06360   0.99797
 This molecule is an asymmetric top.
 Rotational symmetry number  1.
 Warning -- assumption of classical behavior for rotation
           may cause significant error
 Rotational temperatures (Kelvin)      0.15029     0.05966     0.05383
 Rotational constants (GHZ):           3.13152     1.24307     1.12155
 Zero-point vibrational energy     419450.1 (Joules/Mol)
                                  100.25098 (Kcal/Mol)
 Warning -- explicit consideration of  11 degrees of freedom as
           vibrations may cause significant error
 Vibrational temperatures:    106.77   206.52   335.58   446.12   471.93
          (Kelvin)            524.37   556.34   603.60   698.86   765.28
                              821.80   934.94  1108.67  1133.93  1179.54
                             1208.22  1231.00  1333.52  1365.19  1400.34
                             1479.82  1492.27  1516.33  1532.02  1608.36
                             1627.76  1665.32  1681.91  1733.05  1777.28
                             1793.47  1809.03  1843.26  1883.14  1903.28
                             1924.41  2051.41  2056.98  2113.98  2133.53
                             2485.36  4348.27  4359.22  4379.48  4389.49
                             4449.63  4466.71  4473.22  4602.23  5430.69
                             5452.96

 Zero-point correction=                           0.159760 (Hartree/Particle)
 Thermal correction to Energy=                    0.167886
 Thermal correction to Enthalpy=                  0.168830
 Thermal correction to Gibbs Free Energy=         0.127162
 Sum of electronic and zero-point Energies=           -422.999707
 Sum of electronic and thermal Energies=              -422.991582
 Sum of electronic and thermal Enthalpies=            -422.990637
 Sum of electronic and thermal Free Energies=         -423.032306

                     E (Thermal)             CV                S
                      KCal/Mol        Cal/Mol-Kelvin    Cal/Mol-Kelvin
 Total                  105.350             32.294             87.698
 Electronic               0.000              0.000              0.000
 Translational            0.889              2.981             40.409
 Rotational               0.889              2.981             28.689
 Vibrational            103.573             26.332             18.601
 Vibration     1          0.599              1.966              4.039
 Vibration     2          0.616              1.910              2.756
 Vibration     3          0.654              1.790              1.854
 Vibration     4          0.699              1.655              1.362
 Vibration     5          0.711              1.620              1.270
 Vibration     6          0.738              1.545              1.103
 Vibration     7          0.755              1.499              1.013
 Vibration     8          0.782              1.428              0.894
 Vibration     9          0.842              1.282              0.695
 Vibration    10          0.887              1.179              0.583
 Vibration    11          0.927              1.094              0.502

 Normal termination of Gaussian 09 at Tue Jan 28 03:42:17 2020.
