 Gaussian 09, Revision D.01,
 Gaussian 09:  ES64L-G09RevD.01 24-Apr-2013

 -----------------------------
 # b3lyp 6-31G(2df,p) opt Freq
 -----------------------------

 -----
 titel
 -----
 Symbolic Z-matrix:
 Charge =  0 Multiplicity = 1

 SCF Done:  E(RB3LYP) =  -423.152393547     A.U. after   15 cycles
 Optimization completed.
    -- Stationary point found.
 Normal termination of Gaussian 09 at Tue Jan 28 12:09:31 2020.

 ----------------------------------------------------------------------
 #N Geom=AllCheck Guess=TCheck SCRF=Check GenChk RB3LYP/6-31G(2df,p) Fr
 eq
 ----------------------------------------------------------------------

 Structure from the checkpoint file:  "/scratch/puck/g09_d67fe673-35cf-46f0-a95d-c54b83cce48c/Gau-113944.chk"
 -----
 titel
 -----
 Charge =  0 Multiplicity = 1

                         Standard orientation:
 ---------------------------------------------------------------------
 Center     Atomic      Atomic             Coordinates (Angstroms)
 Number     Number       Type             X           Y           Z
 ---------------------------------------------------------------------
      1          6           0        3.248841   -0.290499   -0.344541
      2          6           0        1.929885    0.316463    0.141204
      3          6           0        0.727285   -0.579086   -0.165325
      4          6           0       -0.615637   -0.010861    0.325985
      5          8           0       -0.655691    0.113021    1.749413
      6          6           0       -1.779510   -0.979531   -0.001146
      7          8           0       -1.742952   -1.824509   -0.850115
      8          6           0       -0.957720    1.262173   -0.316357
      9          6           0       -1.269158    2.307154   -0.824440
     10          1           0        3.436906   -1.260925    0.127699
     11          1           0        3.236265   -0.447950   -1.428526
     12          1           0        4.095098    0.363103   -0.111897
     13          1           0        1.983773    0.486908    1.223581
     14          1           0        1.781904    1.298383   -0.324651
     15          1           0        0.644251   -0.766330   -1.240735
     16          1           0        0.853370   -1.555759    0.315712
     17          1           0       -0.349189    0.994654    1.983462
     18          1           0       -2.662518   -0.804966    0.648386
     19          1           0       -1.534631    3.229906   -1.279700
 ---------------------------------------------------------------------

 SCF Done:  E(RB3LYP) =  -423.152393547     A.U. after    1 cycles

 The electronic state is 1-A.
 Alpha  occ. eigenvalues --  -19.15859 -19.15223 -10.27837 -10.27366 -10.20162
 Alpha  occ. eigenvalues --  -10.19799 -10.18769 -10.18560 -10.17653  -1.06253
 Alpha  occ. eigenvalues --   -1.04045  -0.81434  -0.77385  -0.73277  -0.67417
 Alpha  occ. eigenvalues --   -0.59820  -0.59575  -0.55086  -0.52427  -0.49012
 Alpha  occ. eigenvalues --   -0.46977  -0.45850  -0.43659  -0.40298  -0.39973
 Alpha  occ. eigenvalues --   -0.39040  -0.37161  -0.36006  -0.33970  -0.33430
 Alpha  occ. eigenvalues --   -0.30452  -0.29568  -0.29045  -0.25293
 Alpha virt. eigenvalues --   -0.03943   0.02517   0.05065   0.08139   0.10493
 Alpha virt. eigenvalues --    0.11340   0.12971   0.13573   0.14749   0.16503
 Alpha virt. eigenvalues --    0.17207   0.18723   0.18947   0.20069   0.23441

 Mulliken charges:
               1
     1  C   -0.381670
     2  C   -0.196347
     3  C   -0.182994
     4  C    0.097999
     5  O   -0.458595
     6  C    0.155550
     7  O   -0.240627
     8  C    0.305694
     9  C   -0.493734
    10  H    0.118505
    11  H    0.118690
    12  H    0.113082
    13  H    0.094537
    14  H    0.106388
    15  H    0.121967
    16  H    0.110767
    17  H    0.295522
    18  H    0.103387
    19  H    0.211879
 Sum of Mulliken charges =   0.00000

 Dipole moment (field-independent basis, Debye):
    X=              0.9257    Y=              2.7365    Z=              0.6307  Tot=              2.9569
 Quadrupole moment (field-independent basis, Debye-Ang):
   XX=            -53.5391   YY=            -51.6446   ZZ=            -54.6566
   XY=             -4.3818   XZ=             -0.5236   YZ=             -2.4118

  Exact polarizability:  81.203  -3.822  86.774   1.131  -4.223  67.562
 Approx polarizability:  98.373  -7.070 139.469   3.894  -8.564 109.553

                      1                      2                      3
                      A                      A                      A
 Frequencies --     69.9550                80.7621                92.3385
 Red. masses --      3.4301                 2.0959                 2.7743
 Frc consts  --      0.0099                 0.0081                 0.0139
 IR Inten    --      7.8676                 3.7149                 1.9199

                      4                      5                      6
                      A                      A                      A
 Frequencies --    124.2126               166.4027               172.7183
 Red. masses --      4.4287                 1.7162                 2.0946
 Frc consts  --      0.0403                 0.0280                 0.0368
 IR Inten    --      0.5515                48.9925                15.2085

                      7                      8                      9
                      A                      A                      A
 Frequencies --    193.5593               244.8960               273.1562
 Red. masses --      2.3352                 1.1480                 3.7789
 Frc consts  --      0.0515                 0.0406                 0.1661
 IR Inten    --     40.9006                 0.5499                 3.7224

                     10                     11                     12
                      A                      A                      A
 Frequencies --    331.5227               372.5452               407.5602
 Red. masses --      2.9165                 3.0166                 3.8810
 Frc consts  --      0.1889                 0.2467                 0.3798
 IR Inten    --      0.9396                 3.6810                 0.5359

                     13                     14                     15
                      A                      A                      A
 Frequencies --    480.2210               582.7320               638.6270
 Red. masses --      7.6136                 5.8708                 1.4404
 Frc consts  --      1.0345                 1.1746                 0.3461
 IR Inten    --      9.6228                13.1788                20.1524

                     16                     17                     18
                      A                      A                      A
 Frequencies --    655.5764               669.4078               735.6784
 Red. masses --      3.2781                 1.2484                 1.9870
 Frc consts  --      0.8301                 0.3296                 0.6336
 IR Inten    --     50.4877                35.8536                 4.9663

                     19                     20                     21
                      A                      A                      A
 Frequencies --    755.1282               870.2401               917.5949
 Red. masses --      1.5285                 1.3820                 1.8769
 Frc consts  --      0.5135                 0.6166                 0.9311
 IR Inten    --      3.6190                 2.7089                 0.9476

                     22                     23                     24
                      A                      A                      A
 Frequencies --    952.4286               996.2032              1041.2475
 Red. masses --      2.1750                 3.0400                 1.7619
 Frc consts  --      1.1624                 1.7775                 1.1255
 IR Inten    --      0.3517                73.6817                 7.3900

                     25                     26                     27
                      A                      A                      A
 Frequencies --   1055.5901              1128.5876              1148.0685
 Red. masses --      2.6412                 2.1194                 5.5223
 Frc consts  --      1.7340                 1.5905                 4.2885
 IR Inten    --      5.3750                11.4221                37.2470

                     28                     29                     30
                      A                      A                      A
 Frequencies --   1188.2131              1274.8513              1303.1703
 Red. masses --      2.3575                 1.3310                 1.3472
 Frc consts  --      1.9610                 1.2745                 1.3480
 IR Inten    --     11.6024                 1.7635                17.6549

                     31                     32                     33
                      A                      A                      A
 Frequencies --   1329.7971              1343.8607              1392.7619
 Red. masses --      1.1136                 1.4246                 1.2380
 Frc consts  --      1.1602                 1.5158                 1.4149
 IR Inten    --      4.4772                48.6395                10.2749

                     34                     35                     36
                      A                      A                      A
 Frequencies --   1395.7808              1415.9028              1468.9293
 Red. masses --      1.5491                 1.2298                 1.0833
 Frc consts  --      1.7781                 1.4526                 1.3772
 IR Inten    --      5.3490                 0.5442                 2.9492

                     37                     38                     39
                      A                      A                      A
 Frequencies --   1495.0873              1499.7523              1510.9636
 Red. masses --      1.0495                 1.0396                 1.0851
 Frc consts  --      1.3822                 1.3777                 1.4596
 IR Inten    --      0.7937                 5.6520                 2.7338

                     40                     41                     42
                      A                      A                      A
 Frequencies --   1846.1582              2221.4320              2923.5650
 Red. masses --     10.8319                 5.9221                 1.0867
 Frc consts  --     21.7517                17.2185                 5.4723
 IR Inten    --    154.6144                 2.0911                88.0967

                     43                     44                     45
                      A                      A                      A
 Frequencies --   3024.5599              3031.8050              3046.1302
 Red. masses --      1.0585                 1.0357                 1.0632
 Frc consts  --      5.7052                 5.6090                 5.8124
 IR Inten    --     14.4451                27.5647                18.2081

                     46                     47                     48
                      A                      A                      A
 Frequencies --   3057.1616              3092.8888              3102.8614
 Red. masses --      1.0976                 1.1019                 1.1028
 Frc consts  --      6.0442                 6.2104                 6.2558
 IR Inten    --      6.8136                 0.0455                56.1930

                     49                     50                     51
                      A                      A                      A
 Frequencies --   3104.6102              3497.3836              3831.0091
 Red. masses --      1.1012                 1.1617                 1.0667
 Frc consts  --      6.2534                 8.3720                 9.2243
 IR Inten    --     33.6581                69.7506                35.3871

 - Thermochemistry -
 -------------------
 Temperature   298.150 Kelvin.  Pressure   1.00000 Atm.
 Atom     1 has atomic number  6 and mass  12.00000

 Molecular mass:   126.06808 amu.
 Principal axes and moments of inertia in atomic units:
                           1         2         3
     Eigenvalues --   919.709061596.353801912.90546
           X            0.99943  -0.03096  -0.01315
           Y            0.03073   0.99938  -0.01704
           Z            0.01367   0.01663   0.99977
 This molecule is an asymmetric top.
 Rotational symmetry number  1.
 Warning -- assumption of classical behavior for rotation
           may cause significant error
 Rotational temperatures (Kelvin)      0.09418     0.05426     0.04528
 Rotational constants (GHZ):           1.96230     1.13054     0.94346
 Zero-point vibrational energy     404072.2 (Joules/Mol)
                                   96.57557 (Kcal/Mol)
 Warning -- explicit consideration of  14 degrees of freedom as
           vibrations may cause significant error
 Vibrational temperatures:    100.65   116.20   132.85   178.71   239.42
          (Kelvin)            248.50   278.49   352.35   393.01   476.99
                              536.01   586.39   690.93   838.42   918.84
                              943.23   963.13  1058.48  1086.46  1252.08
                             1320.21  1370.33  1433.31  1498.12  1518.76
                             1623.78  1651.81  1709.57  1834.22  1874.97
                             1913.28  1933.51  2003.87  2008.21  2037.17
                             2113.46  2151.09  2157.81  2173.94  2656.21
                             3196.14  4206.35  4351.66  4362.09  4382.70
                             4398.57  4449.97  4464.32  4466.84  5031.95
                             5511.96

 Zero-point correction=                           0.153903 (Hartree/Particle)
 Thermal correction to Energy=                    0.164899
 Thermal correction to Enthalpy=                  0.165843
 Thermal correction to Gibbs Free Energy=         0.117388
 Sum of electronic and zero-point Energies=           -422.998491
 Sum of electronic and thermal Energies=              -422.987494
 Sum of electronic and thermal Enthalpies=            -422.986550
 Sum of electronic and thermal Free Energies=         -423.035005

                     E (Thermal)             CV                S
                      KCal/Mol        Cal/Mol-Kelvin    Cal/Mol-Kelvin
 Total                  103.476             38.499            101.982
 Electronic               0.000              0.000              0.000
 Translational            0.889              2.981             40.409
 Rotational               0.889              2.981             29.420
 Vibrational            101.698             32.538             32.154
 Vibration     1          0.598              1.968              4.155
 Vibration     2          0.600              1.962              3.872
 Vibration     3          0.602              1.955              3.610
 Vibration     4          0.610              1.929              3.034
 Vibration     5          0.624              1.884              2.476
 Vibration     6          0.626              1.876              2.406
 Vibration     7          0.635              1.849              2.193
 Vibration     8          0.660              1.771              1.767
 Vibration     9          0.676              1.723              1.576
 Vibration    10          0.714              1.613              1.253
 Vibration    11          0.744              1.529              1.069
 Vibration    12          0.772              1.454              0.935
 Vibration    13          0.837              1.294              0.709
 Vibration    14          0.940              1.069              0.480

 Normal termination of Gaussian 09 at Tue Jan 28 12:46:38 2020.
