 Gaussian 09, Revision D.01,
 Gaussian 09:  ES64L-G09RevD.01 24-Apr-2013

 -----------------------------
 # b3lyp 6-31G(2df,p) opt Freq
 -----------------------------

 -----
 titel
 -----
 Symbolic Z-matrix:
 Charge =  0 Multiplicity = 1

 SCF Done:  E(RB3LYP) =  -423.123052320     A.U. after   13 cycles
 Optimization completed.
    -- Stationary point found.
 Normal termination of Gaussian 09 at Tue Jan 28 01:55:08 2020.

 ----------------------------------------------------------------------
 #N Geom=AllCheck Guess=TCheck SCRF=Check GenChk RB3LYP/6-31G(2df,p) Fr
 eq
 ----------------------------------------------------------------------

 Structure from the checkpoint file:  "/scratch/puck/g09_f7b67523-63b6-4a90-8ff3-051f2084510f/Gau-122281.chk"
 -----
 titel
 -----
 Charge =  0 Multiplicity = 1

                         Standard orientation:
 ---------------------------------------------------------------------
 Center     Atomic      Atomic             Coordinates (Angstroms)
 Number     Number       Type             X           Y           Z
 ---------------------------------------------------------------------
      1          6           0       -2.723307   -0.715128   -0.562554
      2          6           0       -1.881546    0.427026   -0.039166
      3          6           0       -1.216667    0.346469    1.330792
      4          6           0       -0.395053    0.312725    0.088445
      5          8           0        0.486350    1.390051   -0.286861
      6          6           0        1.437302    0.458260   -0.833796
      7          6           0        2.435397   -0.088442    0.200739
      8          8           0        1.539173   -1.177951    0.546705
      9          6           0        0.567449   -0.747088   -0.424662
     10          1           0       -2.799142   -0.691385   -1.655277
     11          1           0       -2.299028   -1.683829   -0.277779
     12          1           0       -3.739277   -0.671844   -0.155354
     13          1           0       -2.219276    1.421547   -0.320966
     14          1           0       -1.170507    1.252766    1.924853
     15          1           0       -1.309263   -0.571335    1.903611
     16          1           0        1.778487    0.731768   -1.832693
     17          1           0        3.376739   -0.469754   -0.214229
     18          1           0        2.637251    0.582077    1.042514
     19          1           0        0.198389   -1.559740   -1.052225
 ---------------------------------------------------------------------

 SCF Done:  E(RB3LYP) =  -423.123052320     A.U. after    1 cycles

 The electronic state is 1-A.
 Alpha  occ. eigenvalues --  -19.14160 -19.13756 -10.24125 -10.24028 -10.23772
 Alpha  occ. eigenvalues --  -10.23166 -10.19335 -10.18312 -10.18244  -1.07079
 Alpha  occ. eigenvalues --   -1.01431  -0.85691  -0.72406  -0.71498  -0.70397
 Alpha  occ. eigenvalues --   -0.60227  -0.58131  -0.52949  -0.51487  -0.49885
 Alpha  occ. eigenvalues --   -0.48241  -0.45388  -0.43044  -0.41441  -0.40303
 Alpha  occ. eigenvalues --   -0.39392  -0.37029  -0.35773  -0.35428  -0.32425
 Alpha  occ. eigenvalues --   -0.30112  -0.28293  -0.25271  -0.22957
 Alpha virt. eigenvalues --    0.05872   0.08827   0.10108   0.11056   0.12524
 Alpha virt. eigenvalues --    0.12977   0.13789   0.15288   0.16061   0.16443
 Alpha virt. eigenvalues --    0.17044   0.17659   0.19044   0.19337   0.20729

 Mulliken charges:
               1
     1  C   -0.409388
     2  C   -0.082282
     3  C   -0.356809
     4  C    0.440321
     5  O   -0.324717
     6  C    0.061357
     7  C   -0.095650
     8  O   -0.289783
     9  C   -0.049883
    10  H    0.119716
    11  H    0.118017
    12  H    0.122902
    13  H    0.097954
    14  H    0.123680
    15  H    0.122346
    16  H    0.092489
    17  H    0.104265
    18  H    0.115791
    19  H    0.089673
 Sum of Mulliken charges =   0.00000

 Dipole moment (field-independent basis, Debye):
    X=             -0.2986    Y=             -0.2258    Z=             -1.0941  Tot=              1.1564
 Quadrupole moment (field-independent basis, Debye-Ang):
   XX=            -48.7781   YY=            -56.8291   ZZ=            -51.9679
   XY=              1.8384   XZ=             -1.9617   YZ=              2.1206

  Exact polarizability:  93.563   1.500  65.095  -0.626   1.839  69.111
 Approx polarizability: 117.062   1.122 101.740  -0.748  -0.676 102.644

                      1                      2                      3
                      A                      A                      A
 Frequencies --     85.1856               131.7034               183.3770
 Red. masses --      3.1783                 3.2295                 2.1450
 Frc consts  --      0.0136                 0.0330                 0.0425
 IR Inten    --      2.5877                 0.1726                 1.0421

                      4                      5                      6
                      A                      A                      A
 Frequencies --    206.1756               245.4289               367.0008
 Red. masses --      1.3800                 2.6186                 3.1038
 Frc consts  --      0.0346                 0.0929                 0.2463
 IR Inten    --      0.1541                 3.1580                 3.1346

                      7                      8                      9
                      A                      A                      A
 Frequencies --    407.7797               440.2910               500.0936
 Red. masses --      2.2846                 2.7452                 3.7183
 Frc consts  --      0.2238                 0.3135                 0.5479
 IR Inten    --      5.3109                 2.5212                 1.2357

                     10                     11                     12
                      A                      A                      A
 Frequencies --    578.3534               781.1532               799.9641
 Red. masses --      4.0799                 3.6429                 1.6506
 Frc consts  --      0.8041                 1.3097                 0.6223
 IR Inten    --      0.3535                12.3513                 9.7134

                     13                     14                     15
                      A                      A                      A
 Frequencies --    810.7067               848.8649               877.5188
 Red. masses --      1.9141                 2.1692                 1.9336
 Frc consts  --      0.7412                 0.9209                 0.8773
 IR Inten    --      2.2613                 2.9501                21.4426

                     16                     17                     18
                      A                      A                      A
 Frequencies --    890.7399               942.6605               952.3868
 Red. masses --      1.5240                 2.6506                 3.4344
 Frc consts  --      0.7124                 1.3877                 1.8354
 IR Inten    --     20.1056                20.5755                37.8099

                     19                     20                     21
                      A                      A                      A
 Frequencies --    992.9375              1004.6540              1006.0866
 Red. masses --      2.3714                 5.1788                 2.1422
 Frc consts  --      1.3775                 3.0797                 1.2775
 IR Inten    --      7.4179                34.2311                 9.8838

                     22                     23                     24
                      A                      A                      A
 Frequencies --   1039.6309              1067.4225              1071.0575
 Red. masses --      1.5947                 2.9855                 2.3393
 Frc consts  --      1.0155                 2.0042                 1.5811
 IR Inten    --      2.7659               133.2215                12.0723

                     25                     26                     27
                      A                      A                      A
 Frequencies --   1102.7707              1124.4920              1159.4460
 Red. masses --      2.4654                 1.8341                 1.1788
 Frc consts  --      1.7665                 1.3664                 0.9336
 IR Inten    --      2.4833                 9.9259                 4.6115

                     28                     29                     30
                      A                      A                      A
 Frequencies --   1173.8666              1184.2252              1205.7991
 Red. masses --      1.6432                 1.6136                 1.8916
 Frc consts  --      1.3341                 1.3333                 1.6205
 IR Inten    --     16.0419                12.5744                21.3117

                     31                     32                     33
                      A                      A                      A
 Frequencies --   1228.7682              1281.8041              1323.8590
 Red. masses --      2.1451                 1.2932                 1.3892
 Frc consts  --      1.9082                 1.2518                 1.4345
 IR Inten    --     12.1190                11.3869                 6.3520

                     34                     35                     36
                      A                      A                      A
 Frequencies --   1339.1666              1361.2222              1408.9467
 Red. masses --      1.6356                 1.6451                 1.3107
 Frc consts  --      1.7282                 1.7960                 1.5330
 IR Inten    --      2.9134                 1.7268                 2.8114

                     37                     38                     39
                      A                      A                      A
 Frequencies --   1422.9490              1484.4737              1493.1881
 Red. masses --      1.5136                 1.5222                 1.0545
 Frc consts  --      1.8057                 1.9764                 1.3853
 IR Inten    --      0.7043                10.1803                 4.2154

                     40                     41                     42
                      A                      A                      A
 Frequencies --   1501.1012              1505.9099              3020.6012
 Red. masses --      1.0974                 1.2396                 1.0580
 Frc consts  --      1.4569                 1.6563                 5.6875
 IR Inten    --      1.6006                 4.3823                70.9100

                     43                     44                     45
                      A                      A                      A
 Frequencies --   3027.3101              3083.0641              3091.0856
 Red. masses --      1.0351                 1.1075                 1.1011
 Frc consts  --      5.5891                 6.2025                 6.1986
 IR Inten    --     27.0712                25.9539                26.2761

                     46                     47                     48
                      A                      A                      A
 Frequencies --   3093.4507              3097.3705              3111.4527
 Red. masses --      1.0976                 1.0910                 1.0933
 Frc consts  --      6.1885                 6.1670                 6.2361
 IR Inten    --     23.8023                22.7333                54.7201

                     49                     50                     51
                      A                      A                      A
 Frequencies --   3127.2131              3141.5669              3217.3497
 Red. masses --      1.0544                 1.0881                 1.1161
 Frc consts  --      6.0753                 6.3272                 6.8068
 IR Inten    --      5.4896                13.6377                 4.0968

 - Thermochemistry -
 -------------------
 Temperature   298.150 Kelvin.  Pressure   1.00000 Atm.
 Atom     1 has atomic number  6 and mass  12.00000

 Molecular mass:   126.06808 amu.
 Principal axes and moments of inertia in atomic units:
                           1         2         3
     Eigenvalues --   509.794531454.747501551.98474
           X            0.99979   0.02007   0.00383
           Y           -0.02040   0.99099   0.13237
           Z           -0.00114  -0.13242   0.99119
 This molecule is an asymmetric top.
 Rotational symmetry number  1.
 Warning -- assumption of classical behavior for rotation
           may cause significant error
 Rotational temperatures (Kelvin)      0.16990     0.05954     0.05581
 Rotational constants (GHZ):           3.54013     1.24059     1.16286
 Zero-point vibrational energy     415963.3 (Joules/Mol)
                                   99.41760 (Kcal/Mol)
 Warning -- explicit consideration of  10 degrees of freedom as
           vibrations may cause significant error
 Vibrational temperatures:    122.56   189.49   263.84   296.64   353.12
          (Kelvin)            528.03   586.70   633.48   719.52   832.12
                             1123.90  1150.97  1166.42  1221.33  1262.55
                             1281.57  1356.28  1370.27  1428.61  1445.47
                             1447.53  1495.80  1535.78  1541.01  1586.64
                             1617.89  1668.18  1688.93  1703.83  1734.87
                             1767.92  1844.23  1904.74  1926.76  1958.49
                             2027.16  2047.30  2135.82  2148.36  2159.75
                             2166.67  4345.97  4355.62  4435.84  4447.38
                             4450.78  4456.42  4476.68  4499.36  4520.01
                             4629.04

 Zero-point correction=                           0.158432 (Hartree/Particle)
 Thermal correction to Energy=                    0.166563
 Thermal correction to Enthalpy=                  0.167508
 Thermal correction to Gibbs Free Energy=         0.125645
 Sum of electronic and zero-point Energies=           -422.964620
 Sum of electronic and thermal Energies=              -422.956489
 Sum of electronic and thermal Enthalpies=            -422.955545
 Sum of electronic and thermal Free Energies=         -422.997407

                     E (Thermal)             CV                S
                      KCal/Mol        Cal/Mol-Kelvin    Cal/Mol-Kelvin
 Total                  104.520             31.196             88.107
 Electronic               0.000              0.000              0.000
 Translational            0.889              2.981             40.409
 Rotational               0.889              2.981             28.533
 Vibrational            102.743             25.234             19.165
 Vibration     1          0.601              1.959              3.768
 Vibration     2          0.612              1.922              2.921
 Vibration     3          0.631              1.862              2.294
 Vibration     4          0.641              1.831              2.077
 Vibration     5          0.660              1.770              1.763
 Vibration     6          0.740              1.540              1.092
 Vibration     7          0.772              1.453              0.934
 Vibration     8          0.800              1.382              0.826
 Vibration     9          0.856              1.250              0.658
 Vibration    10          0.935              1.078              0.488

 Optimization completed.
    -- Stationary point found.
 Normal termination of Gaussian 09 at Tue Jan 28 02:41:54 2020.
