 Gaussian 09, Revision D.01,
 Gaussian 09:  ES64L-G09RevD.01 24-Apr-2013

 -----------------------------
 # b3lyp 6-31G(2df,p) opt Freq
 -----------------------------

 -----
 titel
 -----
 Symbolic Z-matrix:
 Charge =  0 Multiplicity = 1

 SCF Done:  E(RB3LYP) =  -423.129084683     A.U. after   14 cycles
 Optimization completed.
    -- Stationary point found.
 Normal termination of Gaussian 09 at Tue Jan 28 11:55:01 2020.

 ----------------------------------------------------------------------
 #N Geom=AllCheck Guess=TCheck SCRF=Check GenChk RB3LYP/6-31G(2df,p) Fr
 eq
 ----------------------------------------------------------------------

 Structure from the checkpoint file:  "/scratch/puck/g09_87c5b991-ea39-4f19-931c-3ac910cb3d69/Gau-112652.chk"
 -----
 titel
 -----
 Charge =  0 Multiplicity = 1

                         Standard orientation:
 ---------------------------------------------------------------------
 Center     Atomic      Atomic             Coordinates (Angstroms)
 Number     Number       Type             X           Y           Z
 ---------------------------------------------------------------------
      1          6           0       -3.860539   -0.570178    0.261448
      2          6           0       -2.473673   -0.243327   -0.033860
      3          6           0       -1.329196    0.034266   -0.287575
      4          6           0        0.053772    0.361320   -0.584903
      5          8           0        0.335130    1.790544   -0.550993
      6          6           0        1.276753    1.636675    0.528709
      7          6           0        1.107484    0.103762    0.531863
      8          6           0        2.316290   -0.714124    0.105271
      9          8           0        1.977652   -2.045805   -0.244955
     10          1           0       -4.256897   -1.303655   -0.449207
     11          1           0       -3.969135   -0.988062    1.268407
     12          1           0       -4.493120    0.322467    0.203546
     13          1           0        0.342377   -0.065785   -1.553784
     14          1           0        2.276067    2.002046    0.257707
     15          1           0        0.945943    2.151536    1.438679
     16          1           0        0.673074   -0.299918    1.450580
     17          1           0        2.761057   -0.276603   -0.795952
     18          1           0        3.085578   -0.683006    0.894092
     19          1           0        1.587454   -2.467299    0.527799
 ---------------------------------------------------------------------

 SCF Done:  E(RB3LYP) =  -423.129084683     A.U. after    1 cycles

 The electronic state is 1-A.
 Alpha  occ. eigenvalues --  -19.14151 -19.13188 -10.24956 -10.23450 -10.23174
 Alpha  occ. eigenvalues --  -10.20560 -10.19767 -10.17863 -10.16704  -1.03709
 Alpha  occ. eigenvalues --   -1.02164  -0.78415  -0.77108  -0.73117  -0.67293
 Alpha  occ. eigenvalues --   -0.65841  -0.57341  -0.52309  -0.51102  -0.47910
 Alpha  occ. eigenvalues --   -0.46333  -0.44393  -0.42885  -0.42764  -0.42444
 Alpha  occ. eigenvalues --   -0.41578  -0.39931  -0.35475  -0.32547  -0.31264
 Alpha  occ. eigenvalues --   -0.27715  -0.25890  -0.25275  -0.24393
 Alpha virt. eigenvalues --    0.02933   0.05373   0.07021   0.10460   0.10926
 Alpha virt. eigenvalues --    0.11629   0.12013   0.15046   0.15701   0.16250
 Alpha virt. eigenvalues --    0.16723   0.18450   0.19080   0.20050   0.21571

 Mulliken charges:
               1
     1  C   -0.498770
     2  C    0.069373
     3  C    0.093931
     4  C   -0.064845
     5  O   -0.278081
     6  C   -0.091287
     7  C   -0.078036
     8  C   -0.077498
     9  O   -0.414689
    10  H    0.151038
    11  H    0.146908
    12  H    0.154705
    13  H    0.109288
    14  H    0.099682
    15  H    0.105522
    16  H    0.080563
    17  H    0.117221
    18  H    0.090299
    19  H    0.284676
 Sum of Mulliken charges =   0.00000

 Dipole moment (field-independent basis, Debye):
    X=             -0.3272    Y=             -1.0470    Z=              2.3838  Tot=              2.6241
 Quadrupole moment (field-independent basis, Debye-Ang):
   XX=            -45.1328   YY=            -56.7622   ZZ=            -52.0359
   XY=              4.5398   XZ=              1.6296   YZ=             -1.2966

  Exact polarizability: 111.068  10.642  70.737  -2.708   0.734  62.175
 Approx polarizability: 148.507  17.457 100.311  -8.626  -1.594  95.297

                      1                      2                      3
                      A                      A                      A
 Frequencies --     23.6154                34.5569                90.6190
 Red. masses --      1.0198                 3.9565                 3.2607
 Frc consts  --      0.0003                 0.0028                 0.0158
 IR Inten    --      0.0547                 1.2064                 3.9143

                      4                      5                      6
                      A                      A                      A
 Frequencies --    107.7999               136.5758               201.3646
 Red. masses --      4.0339                 3.7890                 2.7767
 Frc consts  --      0.0276                 0.0416                 0.0663
 IR Inten    --      0.1037                 1.3645                 4.1116

                      7                      8                      9
                      A                      A                      A
 Frequencies --    269.0422               308.0782               323.6617
 Red. masses --      2.5995                 1.3544                 3.4217
 Frc consts  --      0.1109                 0.0757                 0.2112
 IR Inten    --     26.9227                72.5535                26.8046

                     10                     11                     12
                      A                      A                      A
 Frequencies --    377.3878               449.4217               481.4746
 Red. masses --      2.8616                 4.0076                 4.7462
 Frc consts  --      0.2401                 0.4769                 0.6482
 IR Inten    --      6.9734                14.3314                 1.8471

                     13                     14                     15
                      A                      A                      A
 Frequencies --    519.8884               780.3524               797.2210
 Red. masses --      7.4861                 5.2620                 2.5249
 Frc consts  --      1.1921                 1.8879                 0.9455
 IR Inten    --      6.5245                 5.5907                 4.8761

                     16                     17                     18
                      A                      A                      A
 Frequencies --    883.0869               908.7066               956.2814
 Red. masses --      1.8504                 2.0014                 4.6062
 Frc consts  --      0.8502                 0.9737                 2.4818
 IR Inten    --     11.7883                10.2727                42.1850

                     19                     20                     21
                      A                      A                      A
 Frequencies --   1016.7776              1029.2265              1050.0996
 Red. masses --      5.6388                 3.2880                 1.4115
 Frc consts  --      3.4347                 2.0521                 0.9170
 IR Inten    --     75.8047                60.9442                 0.8784

                     22                     23                     24
                      A                      A                      A
 Frequencies --   1053.9584              1081.9464              1091.8080
 Red. masses --      1.4126                 2.7906                 2.4435
 Frc consts  --      0.9245                 1.9247                 1.7161
 IR Inten    --      1.4970                70.9035                 1.9410

                     25                     26                     27
                      A                      A                      A
 Frequencies --   1114.0826              1157.9200              1180.2027
 Red. masses --      2.0026                 1.1435                 2.9607
 Frc consts  --      1.4644                 0.9033                 2.4297
 IR Inten    --      6.2705                 3.8713                10.1926

                     28                     29                     30
                      A                      A                      A
 Frequencies --   1197.4301              1246.6920              1264.7713
 Red. masses --      1.3614                 1.3361                 1.4241
 Frc consts  --      1.1501                 1.2235                 1.3422
 IR Inten    --      7.6846                 2.7037                10.4707

                     31                     32                     33
                      A                      A                      A
 Frequencies --   1331.8009              1358.2957              1372.3204
 Red. masses --      1.2429                 1.3647                 1.3608
 Frc consts  --      1.2988                 1.4835                 1.5099
 IR Inten    --     17.3002                10.8754                 9.0402

                     34                     35                     36
                      A                      A                      A
 Frequencies --   1398.5035              1413.4310              1424.9379
 Red. masses --      1.4852                 1.2446                 1.2884
 Frc consts  --      1.7114                 1.4650                 1.5413
 IR Inten    --     23.8643                 6.2185                37.7924

                     37                     38                     39
                      A                      A                      A
 Frequencies --   1476.3675              1478.0994              1507.8812
 Red. masses --      1.0393                 1.0402                 1.0853
 Frc consts  --      1.3347                 1.3389                 1.4540
 IR Inten    --      5.9931                 5.5650                 0.9442

                     40                     41                     42
                      A                      A                      A
 Frequencies --   1527.0296              2366.2300              2972.8185
 Red. masses --      1.1003                11.8679                 1.0700
 Frc consts  --      1.5117                39.1507                 5.5716
 IR Inten    --      0.9930                17.0824                58.9872

                     43                     44                     45
                      A                      A                      A
 Frequencies --   3008.9738              3023.3809              3027.6084
 Red. masses --      1.0567                 1.0829                 1.0347
 Frc consts  --      5.6370                 5.8322                 5.5884
 IR Inten    --     94.3104                20.3835                27.9136

                     46                     47                     48
                      A                      A                      A
 Frequencies --   3049.8213              3058.8063              3080.2854
 Red. masses --      1.1068                 1.0900                 1.0915
 Frc consts  --      6.0657                 6.0089                 6.1015
 IR Inten    --     29.5391                 1.8034                54.6386

                     49                     50                     51
                      A                      A                      A
 Frequencies --   3088.1926              3090.4307              3812.4554
 Red. masses --      1.1003                 1.1000                 1.0661
 Frc consts  --      6.1825                 6.1899                 9.1300
 IR Inten    --     10.6130                 8.4282                16.7023

 - Thermochemistry -
 -------------------
 Temperature   298.150 Kelvin.  Pressure   1.00000 Atm.
 Atom     1 has atomic number  6 and mass  12.00000

 Molecular mass:   126.06808 amu.
 Principal axes and moments of inertia in atomic units:
                           1         2         3
     Eigenvalues --   749.032251951.687922494.74203
           X            0.99975   0.02239  -0.00047
           Y           -0.02239   0.99973   0.00610
           Z            0.00060  -0.00609   0.99998
 This molecule is an asymmetric top.
 Rotational symmetry number  1.
 Warning -- assumption of classical behavior for rotation
           may cause significant error
 Rotational temperatures (Kelvin)      0.11563     0.04438     0.03472
 Rotational constants (GHZ):           2.40943     0.92471     0.72342
 Zero-point vibrational energy     412721.9 (Joules/Mol)
                                   98.64291 (Kcal/Mol)
 Warning -- explicit consideration of  13 degrees of freedom as
           vibrations may cause significant error
 Vibrational temperatures:     33.98    49.72   130.38   155.10   196.50
          (Kelvin)            289.72   387.09   443.26   465.68   542.98
                              646.62   692.73   748.00  1122.75  1147.02
                             1270.56  1307.42  1375.87  1462.91  1480.83
                             1510.86  1516.41  1556.68  1570.87  1602.91
                             1665.99  1698.05  1722.83  1793.71  1819.72
                             1916.16  1954.28  1974.46  2012.13  2033.61
                             2050.17  2124.16  2126.65  2169.50  2197.05
                             3404.47  4277.22  4329.24  4349.97  4356.05
                             4388.01  4400.93  4431.84  4443.21  4446.43
                             5485.27

 Zero-point correction=                           0.157197 (Hartree/Particle)
 Thermal correction to Energy=                    0.167464
 Thermal correction to Enthalpy=                  0.168408
 Thermal correction to Gibbs Free Energy=         0.119467
 Sum of electronic and zero-point Energies=           -422.971887
 Sum of electronic and thermal Energies=              -422.961621
 Sum of electronic and thermal Enthalpies=            -422.960677
 Sum of electronic and thermal Free Energies=         -423.009618

                     E (Thermal)             CV                S
                      KCal/Mol        Cal/Mol-Kelvin    Cal/Mol-Kelvin
 Total                  105.085             34.944            103.006
 Electronic               0.000              0.000              0.000
 Translational            0.889              2.981             40.409
 Rotational               0.889              2.981             29.679
 Vibrational            103.308             28.982             32.918
 Vibration     1          0.593              1.985              6.304
 Vibration     2          0.594              1.983              5.549
 Vibration     3          0.602              1.956              3.647
 Vibration     4          0.606              1.943              3.308
 Vibration     5          0.614              1.917              2.851
 Vibration     6          0.638              1.838              2.121
 Vibration     7          0.673              1.730              1.602
 Vibration     8          0.698              1.658              1.373
 Vibration     9          0.708              1.628              1.292
 Vibration    10          0.748              1.518              1.050
 Vibration    11          0.808              1.362              0.798
 Vibration    12          0.838              1.291              0.706
 Vibration    13          0.875              1.206              0.610

 Optimization completed on the basis of negligible forces.
    -- Stationary point found.
 Normal termination of Gaussian 09 at Tue Jan 28 12:29:23 2020.
