 Gaussian 09, Revision D.01,
 Gaussian 09:  ES64L-G09RevD.01 24-Apr-2013

 -----------------------------
 # b3lyp 6-31G(2df,p) opt Freq
 -----------------------------

 -----
 titel
 -----
 Symbolic Z-matrix:
 Charge =  0 Multiplicity = 1

 SCF Done:  E(RB3LYP) =  -423.207250190     A.U. after   14 cycles
 Optimization completed.
    -- Stationary point found.
 Normal termination of Gaussian 09 at Tue Jan 28 08:11:07 2020.

 ----------------------------------------------------------------------
 #N Geom=AllCheck Guess=TCheck SCRF=Check GenChk RB3LYP/6-31G(2df,p) Fr
 eq
 ----------------------------------------------------------------------

 Structure from the checkpoint file:  "/scratch/puck/g09_61447df5-8d11-47c7-a2c2-e15f8ec83454/Gau-74210.chk"
 -----
 titel
 -----
 Charge =  0 Multiplicity = 1

                         Standard orientation:
 ---------------------------------------------------------------------
 Center     Atomic      Atomic             Coordinates (Angstroms)
 Number     Number       Type             X           Y           Z
 ---------------------------------------------------------------------
      1          8           0        2.619838   -0.423106   -0.332689
      2          6           0        1.415924   -0.473439    0.424903
      3          6           0        0.999543    0.915893    0.951729
      4          6           0        0.236652    1.563213   -0.223145
      5          6           0       -0.522926    0.386132   -0.870737
      6          6           0        0.223181   -0.931605   -0.434593
      7          6           0       -1.042694   -1.409540    0.343170
      8          6           0       -1.741195   -0.102857   -0.064451
      9          8           0       -2.816830    0.370381    0.162117
     10          1           0        2.487353    0.178781   -1.072763
     11          1           0        1.628941   -1.175829    1.236243
     12          1           0        0.331353    0.801457    1.813700
     13          1           0        1.867983    1.490269    1.282079
     14          1           0       -0.438075    2.363859    0.090912
     15          1           0        0.934177    2.001390   -0.947115
     16          1           0       -0.738865    0.537435   -1.931359
     17          1           0        0.551001   -1.608646   -1.223351
     18          1           0       -1.527823   -2.300110   -0.068188
     19          1           0       -0.931015   -1.553598    1.423161
 ---------------------------------------------------------------------

 SCF Done:  E(RB3LYP) =  -423.207250190     A.U. after    1 cycles

 The electronic state is 1-A.
 Alpha  occ. eigenvalues --  -19.13964 -19.13908 -10.26971 -10.23634 -10.19791
 Alpha  occ. eigenvalues --  -10.19699 -10.19587 -10.19525 -10.18784  -1.04739
 Alpha  occ. eigenvalues --   -1.02251  -0.86821  -0.77516  -0.71937  -0.66678
 Alpha  occ. eigenvalues --   -0.61038  -0.58249  -0.52201  -0.51082  -0.48780
 Alpha  occ. eigenvalues --   -0.46743  -0.45102  -0.43083  -0.42588  -0.40321
 Alpha  occ. eigenvalues --   -0.38746  -0.36810  -0.35596  -0.34940  -0.34016
 Alpha  occ. eigenvalues --   -0.32570  -0.31794  -0.26822  -0.24186
 Alpha virt. eigenvalues --   -0.02592   0.06111   0.08827   0.09453   0.11923
 Alpha virt. eigenvalues --    0.14171   0.14456   0.15358   0.15643   0.16991
 Alpha virt. eigenvalues --    0.17502   0.18722   0.19163   0.21044   0.22643

 Mulliken charges:
               1
     1  O   -0.440669
     2  C    0.137227
     3  C   -0.246667
     4  C   -0.238161
     5  C   -0.147705
     6  C   -0.052123
     7  C   -0.373779
     8  C    0.411056
     9  O   -0.298618
    10  H    0.279284
    11  H    0.087228
    12  H    0.110007
    13  H    0.110930
    14  H    0.123788
    15  H    0.098260
    16  H    0.095020
    17  H    0.081731
    18  H    0.134266
    19  H    0.128925
 Sum of Mulliken charges =   0.00000

 Dipole moment (field-independent basis, Debye):
    X=              1.2710    Y=             -0.0863    Z=             -0.7710  Tot=              1.4891
 Quadrupole moment (field-independent basis, Debye-Ang):
   XX=            -68.1227   YY=            -51.2728   ZZ=            -49.3912
   XY=              5.6490   XZ=              0.1122   YZ=             -1.0935

  Exact polarizability:  81.882   0.746  74.670  -1.596  -2.620  66.355
 Approx polarizability: 119.348  -4.431 108.228  -5.790  -4.120 102.464

                      1                      2                      3
                      A                      A                      A
 Frequencies --     59.9514               141.5665               231.5677
 Red. masses --      4.7152                 4.7521                 1.7498
 Frc consts  --      0.0100                 0.0561                 0.0553
 IR Inten    --      5.4194                 6.7247                20.6140

                      4                      5                      6
                      A                      A                      A
 Frequencies --    246.5496               264.1686               370.8701
 Red. masses --      2.1172                 1.4258                 5.8014
 Frc consts  --      0.0758                 0.0586                 0.4701
 IR Inten    --      5.4093                53.8024                12.9340

                      7                      8                      9
                      A                      A                      A
 Frequencies --    423.4663               435.2107               515.9340
 Red. masses --      2.3080                 3.6175                 2.1908
 Frc consts  --      0.2439                 0.4037                 0.3436
 IR Inten    --      1.4634                 1.6963                 0.3056

                     10                     11                     12
                      A                      A                      A
 Frequencies --    588.1197               674.7978               722.6738
 Red. masses --      2.7154                 2.7532                 3.1662
 Frc consts  --      0.5534                 0.7386                 0.9743
 IR Inten    --      1.5522                 3.0514                 2.0413

                     13                     14                     15
                      A                      A                      A
 Frequencies --    753.2237               827.7635               837.6154
 Red. masses --      2.9360                 2.1780                 2.6081
 Frc consts  --      0.9814                 0.8793                 1.0781
 IR Inten    --      1.7810                 3.5211                 4.2741

                     16                     17                     18
                      A                      A                      A
 Frequencies --    858.6589               923.9639               941.4484
 Red. masses --      3.0065                 2.5165                 1.8225
 Frc consts  --      1.3060                 1.2658                 0.9517
 IR Inten    --     15.5540                 6.4280                 1.8269

                     19                     20                     21
                      A                      A                      A
 Frequencies --    960.0432               986.5426              1013.0640
 Red. masses --      1.6487                 2.6911                 2.1924
 Frc consts  --      0.8953                 1.5432                 1.3257
 IR Inten    --      4.6669                16.3546                 8.1981

                     22                     23                     24
                      A                      A                      A
 Frequencies --   1036.3963              1073.4647              1092.0021
 Red. masses --      1.7908                 1.7316                 2.1400
 Frc consts  --      1.1333                 1.1756                 1.5035
 IR Inten    --     20.4525                14.9260                65.0293

                     25                     26                     27
                      A                      A                      A
 Frequencies --   1114.3126              1153.6567              1171.0365
 Red. masses --      1.8589                 1.3654                 1.6683
 Frc consts  --      1.3599                 1.0707                 1.3479
 IR Inten    --     18.0814                 2.7871                49.1450

                     28                     29                     30
                      A                      A                      A
 Frequencies --   1187.1309              1223.9719              1249.4997
 Red. masses --      1.6193                 1.7753                 1.5530
 Frc consts  --      1.3446                 1.5670                 1.4285
 IR Inten    --      3.8212                11.5960                 3.4809

                     31                     32                     33
                      A                      A                      A
 Frequencies --   1256.7088              1271.0906              1306.7742
 Red. masses --      1.3645                 1.3975                 1.3488
 Frc consts  --      1.2697                 1.3303                 1.3570
 IR Inten    --      0.2323                10.6232                 1.1759

                     34                     35                     36
                      A                      A                      A
 Frequencies --   1322.0895              1332.6388              1349.1937
 Red. masses --      1.6057                 1.5240                 1.4150
 Frc consts  --      1.6536                 1.5946                 1.5176
 IR Inten    --      3.5195                 0.5038                 1.7727

                     37                     38                     39
                      A                      A                      A
 Frequencies --   1428.8875              1433.7504              1484.4469
 Red. masses --      1.2089                 1.1105                 1.0894
 Frc consts  --      1.4543                 1.3450                 1.4144
 IR Inten    --     52.5489                17.7097                 9.8057

                     40                     41                     42
                      A                      A                      A
 Frequencies --   1501.2225              1888.3764              3033.0600
 Red. masses --      1.0924                12.7373                 1.0695
 Frc consts  --      1.4506                26.7611                 5.7971
 IR Inten    --      4.0228               257.3186                23.8639

                     43                     44                     45
                      A                      A                      A
 Frequencies --   3042.8695              3049.1324              3072.2313
 Red. masses --      1.0650                 1.0599                 1.0859
 Frc consts  --      5.8097                 5.8057                 6.0389
 IR Inten    --     14.4313                12.6620                37.4016

                     46                     47                     48
                      A                      A                      A
 Frequencies --   3083.4546              3097.3716              3098.9188
 Red. masses --      1.0862                 1.0957                 1.1022
 Frc consts  --      6.0847                 6.1933                 6.2365
 IR Inten    --     14.5711                14.2087                 5.0569

                     49                     50                     51
                      A                      A                      A
 Frequencies --   3110.3299              3116.2251              3809.9293
 Red. masses --      1.0987                 1.0904                 1.0659
 Frc consts  --      6.2623                 6.2385                 9.1156
 IR Inten    --     23.5361                20.0428                10.5826

 - Thermochemistry -
 -------------------
 Temperature   298.150 Kelvin.  Pressure   1.00000 Atm.
 Atom     1 has atomic number  8 and mass  15.99491

 Molecular mass:   126.06808 amu.
 Principal axes and moments of inertia in atomic units:
                           1         2         3
     Eigenvalues --   544.006611389.005801614.99956
           X            0.99967   0.02566   0.00285
           Y           -0.02561   0.99953  -0.01664
           Z           -0.00327   0.01657   0.99986
 This molecule is an asymmetric top.
 Rotational symmetry number  1.
 Warning -- assumption of classical behavior for rotation
           may cause significant error
 Rotational temperatures (Kelvin)      0.15921     0.06236     0.05363
 Rotational constants (GHZ):           3.31750     1.29930     1.11749
 Zero-point vibrational energy     419694.1 (Joules/Mol)
                                  100.30929 (Kcal/Mol)
 Warning -- explicit consideration of  10 degrees of freedom as
           vibrations may cause significant error
 Vibrational temperatures:     86.26   203.68   333.17   354.73   380.08
          (Kelvin)            533.60   609.27   626.17   742.31   846.17
                              970.88  1039.77  1083.72  1190.97  1205.14
                             1235.42  1329.38  1354.53  1381.29  1419.41
                             1457.57  1491.14  1544.47  1571.15  1603.25
                             1659.85  1684.86  1708.01  1761.02  1797.75
                             1808.12  1828.81  1880.15  1902.19  1917.37
                             1941.19  2055.85  2062.84  2135.79  2159.92
                             2716.95  4363.89  4378.01  4387.02  4420.25
                             4436.40  4456.42  4458.65  4475.07  4483.55
                             5481.63

 Zero-point correction=                           0.159853 (Hartree/Particle)
 Thermal correction to Energy=                    0.167930
 Thermal correction to Enthalpy=                  0.168874
 Thermal correction to Gibbs Free Energy=         0.127049
 Sum of electronic and zero-point Energies=           -423.047397
 Sum of electronic and thermal Energies=              -423.039320
 Sum of electronic and thermal Enthalpies=            -423.038376
 Sum of electronic and thermal Free Energies=         -423.080201

                     E (Thermal)             CV                S
                      KCal/Mol        Cal/Mol-Kelvin    Cal/Mol-Kelvin
 Total                  105.378             31.481             88.028
 Electronic               0.000              0.000              0.000
 Translational            0.889              2.981             40.409
 Rotational               0.889              2.981             28.591
 Vibrational            103.600             25.520             19.028
 Vibration     1          0.597              1.973              4.459
 Vibration     2          0.615              1.912              2.783
 Vibration     3          0.653              1.793              1.867
 Vibration     4          0.661              1.768              1.755
 Vibration     5          0.671              1.739              1.634
 Vibration     6          0.743              1.532              1.076
 Vibration     7          0.786              1.419              0.880
 Vibration     8          0.796              1.393              0.842
 Vibration     9          0.871              1.215              0.619
 Vibration    10          0.945              1.057              0.471

 Normal termination of Gaussian 09 at Tue Jan 28 09:00:56 2020.
