 Gaussian 09, Revision D.01,
 Gaussian 09:  ES64L-G09RevD.01 24-Apr-2013

 -----------------------------
 # b3lyp 6-31G(2df,p) opt Freq
 -----------------------------

 -----
 titel
 -----
 Symbolic Z-matrix:
 Charge =  0 Multiplicity = 1

 SCF Done:  E(RB3LYP) =  -423.216668663     A.U. after   14 cycles
 Optimization completed.
    -- Stationary point found.
 Normal termination of Gaussian 09 at Tue Jan 28 08:13:36 2020.

 ----------------------------------------------------------------------
 #N Geom=AllCheck Guess=TCheck SCRF=Check GenChk RB3LYP/6-31G(2df,p) Fr
 eq
 ----------------------------------------------------------------------

 Structure from the checkpoint file:  "/scratch/puck/g09_784511b9-8697-40f1-bd7a-3fb4aadf2b7c/Gau-14129.chk"
 -----
 titel
 -----
 Charge =  0 Multiplicity = 1

                         Standard orientation:
 ---------------------------------------------------------------------
 Center     Atomic      Atomic             Coordinates (Angstroms)
 Number     Number       Type             X           Y           Z
 ---------------------------------------------------------------------
      1          8           0       -2.310287   -0.917588   -0.047913
      2          6           0       -1.018951   -0.593206    0.390242
      3          6           0        0.000699   -1.566805   -0.239336
      4          6           0        1.459460   -1.387723    0.221918
      5          6           0        2.144628   -0.183248   -0.381002
      6          6           0        1.747435    1.077345   -0.215006
      7          6           0        0.555911    1.493188    0.627689
      8          6           0       -0.732089    0.882446    0.099748
      9          8           0       -1.548383    1.529855   -0.522079
     10          1           0       -2.635672   -0.115177   -0.488398
     11          1           0       -0.957678   -0.707618    1.488182
     12          1           0       -0.348214   -2.572437    0.017883
     13          1           0       -0.063829   -1.477398   -1.329050
     14          1           0        1.484529   -1.325882    1.320714
     15          1           0        2.021047   -2.289173   -0.038646
     16          1           0        3.011175   -0.373807   -1.008856
     17          1           0        2.281653    1.880099   -0.713612
     18          1           0        0.699352    1.173756    1.668622
     19          1           0        0.434443    2.577524    0.617582
 ---------------------------------------------------------------------

 SCF Done:  E(RB3LYP) =  -423.216668664     A.U. after    1 cycles

 The electronic state is 1-A.
 Alpha  occ. eigenvalues --  -19.14706 -19.12658 -10.27839 -10.24019 -10.20475
 Alpha  occ. eigenvalues --  -10.19804 -10.19784 -10.19360 -10.19221  -1.06270
 Alpha  occ. eigenvalues --   -1.00944  -0.83402  -0.77299  -0.74839  -0.66534
 Alpha  occ. eigenvalues --   -0.63281  -0.55461  -0.53982  -0.50388  -0.49077
 Alpha  occ. eigenvalues --   -0.48148  -0.45211  -0.43712  -0.42785  -0.40917
 Alpha  occ. eigenvalues --   -0.39229  -0.38034  -0.36069  -0.35583  -0.33703
 Alpha  occ. eigenvalues --   -0.33507  -0.28097  -0.26507  -0.24482
 Alpha virt. eigenvalues --   -0.02687   0.00538   0.08039   0.09157   0.11845
 Alpha virt. eigenvalues --    0.12566   0.14149   0.15135   0.16569   0.17114
 Alpha virt. eigenvalues --    0.18673   0.19424   0.19827   0.21851   0.22838

 Mulliken charges:
               1
     1  O   -0.437487
     2  C    0.039700
     3  C   -0.199026
     4  C   -0.273043
     5  C   -0.038669
     6  C   -0.068527
     7  C   -0.346953
     8  C    0.374141
     9  O   -0.327838
    10  H    0.291293
    11  H    0.085156
    12  H    0.115077
    13  H    0.111514
    14  H    0.109394
    15  H    0.109603
    16  H    0.096696
    17  H    0.103938
    18  H    0.125378
    19  H    0.129654
 Sum of Mulliken charges =   0.00000

 Dipole moment (field-independent basis, Debye):
    X=              2.8210    Y=             -0.1663    Z=              0.9467  Tot=              2.9802
 Quadrupole moment (field-independent basis, Debye-Ang):
   XX=            -57.4654   YY=            -54.0851   ZZ=            -52.1620
   XY=             -0.8146   XZ=             -1.4335   YZ=              1.5309

  Exact polarizability:  83.356  -3.642  86.854  -1.096  -0.725  60.020
 Approx polarizability: 116.654 -11.578 132.375   2.161  -3.666  96.955

                      1                      2                      3
                      A                      A                      A
 Frequencies --     83.3619               103.5763               226.9100
 Red. masses --      3.6516                 4.0924                 2.0943
 Frc consts  --      0.0150                 0.0259                 0.0635
 IR Inten    --      0.1730                 0.2930                 1.5971

                      4                      5                      6
                      A                      A                      A
 Frequencies --    287.6985               301.1920               322.3062
 Red. masses --      3.1554                 4.5151                 2.7310
 Frc consts  --      0.1539                 0.2413                 0.1672
 IR Inten    --      3.6665                 2.5861                 1.4946

                      7                      8                      9
                      A                      A                      A
 Frequencies --    369.1404               437.5299               463.4794
 Red. masses --      4.4828                 2.8344                 1.4901
 Frc consts  --      0.3599                 0.3197                 0.1886
 IR Inten    --     18.2257                19.4114                31.5442

                     10                     11                     12
                      A                      A                      A
 Frequencies --    514.0224               596.7018               621.2782
 Red. masses --      1.9824                 2.4359                 2.9862
 Frc consts  --      0.3086                 0.5110                 0.6791
 IR Inten    --      9.0536                 3.7630                 8.1782

                     13                     14                     15
                      A                      A                      A
 Frequencies --    693.7399               747.2905               804.9686
 Red. masses --      2.3915                 1.8072                 2.4103
 Frc consts  --      0.6781                 0.5946                 0.9202
 IR Inten    --      7.7696                22.1235                11.4224

                     16                     17                     18
                      A                      A                      A
 Frequencies --    858.2203               894.2984               937.3163
 Red. masses --      2.8377                 2.3944                 2.1254
 Frc consts  --      1.2314                 1.1283                 1.1002
 IR Inten    --      6.8862                 2.7203                 1.3375

                     19                     20                     21
                      A                      A                      A
 Frequencies --    981.5522               991.5608              1027.5020
 Red. masses --      2.4654                 1.2854                 2.1725
 Frc consts  --      1.3995                 0.7446                 1.3514
 IR Inten    --      8.5809                 0.4265                 5.6170

                     22                     23                     24
                      A                      A                      A
 Frequencies --   1058.7967              1063.0066              1112.2720
 Red. masses --      2.4129                 2.4720                 3.2458
 Frc consts  --      1.5937                 1.6458                 2.3659
 IR Inten    --      1.9388                18.9834               109.7411

                     25                     26                     27
                      A                      A                      A
 Frequencies --   1154.1854              1174.4061              1226.6374
 Red. masses --      1.9985                 1.3991                 1.3135
 Frc consts  --      1.5685                 1.1370                 1.1644
 IR Inten    --     20.1674                 1.4822                15.9703

                     28                     29                     30
                      A                      A                      A
 Frequencies --   1252.3743              1260.4062              1296.8592
 Red. masses --      1.2085                 1.1486                 1.3761
 Frc consts  --      1.1167                 1.0750                 1.3636
 IR Inten    --      6.2821                 1.2410                51.7439

                     31                     32                     33
                      A                      A                      A
 Frequencies --   1309.4599              1334.0258              1354.2298
 Red. masses --      1.3699                 1.2848                 1.3081
 Frc consts  --      1.3839                 1.3472                 1.4134
 IR Inten    --      6.7897                 3.4423                 1.6445

                     34                     35                     36
                      A                      A                      A
 Frequencies --   1375.5937              1408.1324              1449.6011
 Red. masses --      1.4577                 1.4499                 1.3524
 Frc consts  --      1.6251                 1.6939                 1.6744
 IR Inten    --      6.8192                 3.1122                83.4873

                     37                     38                     39
                      A                      A                      A
 Frequencies --   1468.1601              1486.5283              1489.5339
 Red. masses --      1.0956                 1.0962                 1.0941
 Frc consts  --      1.3913                 1.4272                 1.4302
 IR Inten    --      8.9726                 6.4759                 1.1665

                     40                     41                     42
                      A                      A                      A
 Frequencies --   1715.6716              1791.2462              2938.6626
 Red. masses --      6.7676                10.6960                 1.0800
 Frc consts  --     11.7368                20.2200                 5.4951
 IR Inten    --      5.8055               160.0340                30.9696

                     43                     44                     45
                      A                      A                      A
 Frequencies --   2993.8556              3021.2172              3043.9037
 Red. masses --      1.0708                 1.0672                 1.0595
 Frc consts  --      5.6549                 5.7393                 5.7840
 IR Inten    --     24.7964                11.1813                21.3584

                     46                     47                     48
                      A                      A                      A
 Frequencies --   3081.3229              3090.0458              3119.1128
 Red. masses --      1.0901                 1.1046                 1.0943
 Frc consts  --      6.0982                 6.2144                 6.2728
 IR Inten    --     26.4255                23.6844                 6.9178

                     49                     50                     51
                      A                      A                      A
 Frequencies --   3155.3975              3182.3625              3669.7007
 Red. masses --      1.0850                 1.0962                 1.0643
 Frc consts  --      6.3647                 6.5410                 8.4446
 IR Inten    --      6.1729                21.8162                70.5435

 - Thermochemistry -
 -------------------
 Temperature   298.150 Kelvin.  Pressure   1.00000 Atm.
 Atom     1 has atomic number  8 and mass  15.99491

 Molecular mass:   126.06808 amu.
 Principal axes and moments of inertia in atomic units:
                           1         2         3
     Eigenvalues --   755.752491136.491641711.23818
           X            0.99998   0.00321  -0.00492
           Y           -0.00315   0.99993   0.01109
           Z            0.00496  -0.01108   0.99993
 This molecule is an asymmetric top.
 Rotational symmetry number  1.
 Warning -- assumption of classical behavior for rotation
           may cause significant error
 Rotational temperatures (Kelvin)      0.11461     0.07621     0.05061
 Rotational constants (GHZ):           2.38801     1.58799     1.05464
 Zero-point vibrational energy     420728.7 (Joules/Mol)
                                  100.55658 (Kcal/Mol)
 Warning -- explicit consideration of  11 degrees of freedom as
           vibrations may cause significant error
 Vibrational temperatures:    119.94   149.02   326.47   413.93   433.35
          (Kelvin)            463.73   531.11   629.51   666.84   739.56
                              858.52   893.88   998.14  1075.18  1158.17
                             1234.79  1286.69  1348.59  1412.23  1426.63
                             1478.34  1523.37  1529.43  1600.31  1660.61
                             1689.71  1764.86  1801.89  1813.44  1865.89
                             1884.02  1919.36  1948.43  1979.17  2025.99
                             2085.65  2112.35  2138.78  2143.10  2468.47
                             2577.20  4228.07  4307.49  4346.85  4379.49
                             4433.33  4445.88  4487.70  4539.91  4578.70
                             5279.87

 Zero-point correction=                           0.160247 (Hartree/Particle)
 Thermal correction to Energy=                    0.168541
 Thermal correction to Enthalpy=                  0.169485
 Thermal correction to Gibbs Free Energy=         0.127327
 Sum of electronic and zero-point Energies=           -423.056422
 Sum of electronic and thermal Energies=              -423.048128
 Sum of electronic and thermal Enthalpies=            -423.047184
 Sum of electronic and thermal Free Energies=         -423.089342

                     E (Thermal)             CV                S
                      KCal/Mol        Cal/Mol-Kelvin    Cal/Mol-Kelvin
 Total                  105.761             32.090             88.730
 Electronic               0.000              0.000              0.000
 Translational            0.889              2.981             40.409
 Rotational               0.889              2.981             28.776
 Vibrational            103.984             26.129             19.545
 Vibration     1          0.600              1.961              3.810
 Vibration     2          0.605              1.946              3.386
 Vibration     3          0.651              1.800              1.903
 Vibration     4          0.685              1.697              1.487
 Vibration     5          0.693              1.671              1.410
 Vibration     6          0.707              1.631              1.298
 Vibration     7          0.741              1.536              1.083
 Vibration     8          0.798              1.388              0.834
 Vibration     9          0.821              1.331              0.756
 Vibration    10          0.869              1.219              0.624
 Vibration    11          0.955              1.039              0.455

 Optimization completed.
    -- Stationary point found.
 Normal termination of Gaussian 09 at Tue Jan 28 08:57:07 2020.
