 Gaussian 09, Revision D.01,
 Gaussian 09:  ES64L-G09RevD.01 24-Apr-2013

 -----------------------------
 # b3lyp 6-31G(2df,p) opt Freq
 -----------------------------

 -----
 titel
 -----
 Symbolic Z-matrix:
 Charge =  0 Multiplicity = 1

 SCF Done:  E(RB3LYP) =  -423.130111217     A.U. after   13 cycles
 Optimization completed.
    -- Stationary point found.
 Normal termination of Gaussian 09 at Tue Jan 28 02:11:39 2020.

 ----------------------------------------------------------------------
 #N Geom=AllCheck Guess=TCheck SCRF=Check GenChk RB3LYP/6-31G(2df,p) Fr
 eq
 ----------------------------------------------------------------------

 Structure from the checkpoint file:  "/scratch/puck/g09_bf27a2cb-6827-440a-89a2-33f4e072aabd/Gau-171118.chk"
 -----
 titel
 -----
 Charge =  0 Multiplicity = 1

                         Standard orientation:
 ---------------------------------------------------------------------
 Center     Atomic      Atomic             Coordinates (Angstroms)
 Number     Number       Type             X           Y           Z
 ---------------------------------------------------------------------
      1          6           0       -3.279302    0.266008   -0.357105
      2          6           0       -1.887759   -0.306607   -0.298690
      3          8           0       -1.415904   -0.733413    0.986036
      4          6           0       -0.775080    0.389838    0.366468
      5          6           0        0.634700    0.189143   -0.035500
      6          6           0        1.309606   -1.072033   -0.598777
      7          6           0        2.653655   -0.581020    0.047144
      8          6           0        1.900526    0.648727    0.571634
      9          8           0        1.339294    1.322860   -0.562966
     10          1           0       -3.434124    0.800493   -1.300318
     11          1           0       -4.026689   -0.531733   -0.294532
     12          1           0       -3.448470    0.959816    0.470721
     13          1           0       -1.628432   -0.995939   -1.104198
     14          1           0       -0.975297    1.353581    0.836059
     15          1           0        0.932846   -1.987813   -0.139718
     16          1           0        1.288219   -1.161768   -1.687295
     17          1           0        3.002330   -1.243431    0.842405
     18          1           0        3.477497   -0.360224   -0.635223
     19          1           0        2.086928    1.247102    1.456507
 ---------------------------------------------------------------------

 SCF Done:  E(RB3LYP) =  -423.130111217     A.U. after    1 cycles

 The electronic state is 1-A.
 Alpha  occ. eigenvalues --  -19.15189 -19.15156 -10.24148 -10.24134 -10.24096
 Alpha  occ. eigenvalues --  -10.23606 -10.19111 -10.18930 -10.18626  -1.08049
 Alpha  occ. eigenvalues --   -1.06905  -0.80166  -0.74806  -0.71341  -0.65317
 Alpha  occ. eigenvalues --   -0.61772  -0.59534  -0.54726  -0.52864  -0.48368
 Alpha  occ. eigenvalues --   -0.45921  -0.45070  -0.43753  -0.41942  -0.40252
 Alpha  occ. eigenvalues --   -0.38988  -0.37050  -0.36350  -0.34483  -0.33391
 Alpha  occ. eigenvalues --   -0.32167  -0.28609  -0.27051  -0.24833
 Alpha virt. eigenvalues --    0.07053   0.10172   0.11027   0.11327   0.11600
 Alpha virt. eigenvalues --    0.12111   0.12690   0.13631   0.14567   0.16476
 Alpha virt. eigenvalues --    0.17147   0.17461   0.18346   0.19778   0.20345

 Mulliken charges:
               1
     1  C   -0.419907
     2  C    0.077263
     3  O   -0.260444
     4  C   -0.098659
     5  C    0.464779
     6  C   -0.305034
     7  C   -0.241254
     8  C   -0.053164
     9  O   -0.297541
    10  H    0.127308
    11  H    0.130613
    12  H    0.129256
    13  H    0.093038
    14  H    0.094211
    15  H    0.124654
    16  H    0.106324
    17  H    0.111065
    18  H    0.113000
    19  H    0.104493
 Sum of Mulliken charges =   0.00000

 Dipole moment (field-independent basis, Debye):
    X=             -0.2215    Y=             -0.3546    Z=             -0.1978  Tot=              0.4625
 Quadrupole moment (field-independent basis, Debye-Ang):
   XX=            -48.7840   YY=            -54.8881   ZZ=            -53.7851
   XY=             -3.1650   XZ=              4.7001   YZ=              4.1054

  Exact polarizability:  97.309   0.547  68.435   5.235   4.457  64.370
 Approx polarizability: 119.254   6.452 107.808   7.545   0.427 103.023

                      1                      2                      3
                      A                      A                      A
 Frequencies --     64.4209               115.8793               146.3623
 Red. masses --      3.5818                 3.2663                 2.8039
 Frc consts  --      0.0088                 0.0258                 0.0354
 IR Inten    --      3.4293                 2.6148                 2.9155

                      4                      5                      6
                      A                      A                      A
 Frequencies --    202.3229               245.7885               297.9303
 Red. masses --      1.1687                 2.0897                 2.5554
 Frc consts  --      0.0282                 0.0744                 0.1336
 IR Inten    --      0.3005                 0.3387                 1.1032

                      7                      8                      9
                      A                      A                      A
 Frequencies --    379.3131               403.4112               480.6027
 Red. masses --      3.8770                 2.8722                 3.4635
 Frc consts  --      0.3287                 0.2754                 0.4713
 IR Inten    --      0.3212                 4.4760                11.1197

                     10                     11                     12
                      A                      A                      A
 Frequencies --    528.2295               692.7043               745.7757
 Red. masses --      4.9591                 3.8907                 4.1826
 Frc consts  --      0.8153                 1.1000                 1.3706
 IR Inten    --      2.9486                 1.0178                 0.5947

                     13                     14                     15
                      A                      A                      A
 Frequencies --    778.2428               796.0886               872.0770
 Red. masses --      1.3897                 3.8278                 2.7707
 Frc consts  --      0.4959                 1.4293                 1.2415
 IR Inten    --      1.3883                12.7160                49.2983

                     16                     17                     18
                      A                      A                      A
 Frequencies --    883.3433               920.6260               934.2323
 Red. masses --      2.8194                 2.2838                 2.9937
 Frc consts  --      1.2962                 1.1404                 1.5394
 IR Inten    --      9.9808                 0.2387                 8.8921

                     19                     20                     21
                      A                      A                      A
 Frequencies --    952.0891               980.6036              1011.1462
 Red. masses --      2.8374                 2.2585                 1.5267
 Frc consts  --      1.5154                 1.2795                 0.9197
 IR Inten    --     19.4066                14.4304                 3.0711

                     22                     23                     24
                      A                      A                      A
 Frequencies --   1042.4777              1054.1843              1087.5806
 Red. masses --      1.5405                 1.8746                 1.7852
 Frc consts  --      0.9864                 1.2274                 1.2441
 IR Inten    --      4.3961                 0.1805                 4.4566

                     25                     26                     27
                      A                      A                      A
 Frequencies --   1145.3173              1165.8297              1172.5424
 Red. masses --      1.4449                 1.5573                 1.6983
 Frc consts  --      1.1167                 1.2471                 1.3757
 IR Inten    --      5.9160                 3.4842                 8.1915

                     28                     29                     30
                      A                      A                      A
 Frequencies --   1201.0920              1211.8881              1219.6154
 Red. masses --      2.1352                 1.1941                 1.3588
 Frc consts  --      1.8149                 1.0333                 1.1908
 IR Inten    --      7.5210                 1.4275                 4.8760

                     31                     32                     33
                      A                      A                      A
 Frequencies --   1264.2195              1265.5077              1304.8148
 Red. masses --      1.5868                 1.4990                 2.0292
 Frc consts  --      1.4943                 1.4145                 2.0355
 IR Inten    --      4.4181                 1.8860                10.9625

                     34                     35                     36
                      A                      A                      A
 Frequencies --   1338.5152              1407.7807              1430.6530
 Red. masses --      1.3118                 1.3054                 2.3505
 Frc consts  --      1.3847                 1.5243                 2.8346
 IR Inten    --     16.4535                 2.4382                17.0071

                     37                     38                     39
                      A                      A                      A
 Frequencies --   1464.0602              1478.3770              1486.9746
 Red. masses --      1.0888                 1.1537                 1.1290
 Frc consts  --      1.3751                 1.4856                 1.4708
 IR Inten    --      0.2029                 4.6433                 2.7551

                     40                     41                     42
                      A                      A                      A
 Frequencies --   1494.9328              1522.9601              3037.6764
 Red. masses --      1.1328                 3.1289                 1.0354
 Frc consts  --      1.4916                 4.2758                 5.6291
 IR Inten    --      2.2291                 3.2733                20.7218

                     43                     44                     45
                      A                      A                      A
 Frequencies --   3067.9222              3074.4449              3093.0643
 Red. masses --      1.0565                 1.0599                 1.0880
 Frc consts  --      5.8587                 5.9024                 6.1328
 IR Inten    --     31.3153                25.1038                10.0949

                     46                     47                     48
                      A                      A                      A
 Frequencies --   3103.6670              3108.4062              3121.9915
 Red. masses --      1.1009                 1.0875                 1.1088
 Frc consts  --      6.2479                 6.1908                 6.3676
 IR Inten    --     15.7516                18.7319                 2.5403

                     49                     50                     51
                      A                      A                      A
 Frequencies --   3125.1420              3138.9122              3182.7608
 Red. masses --      1.1005                 1.1077                 1.0940
 Frc consts  --      6.3328                 6.4301                 6.5294
 IR Inten    --     30.2587                25.3445                19.0425

 - Thermochemistry -
 -------------------
 Temperature   298.150 Kelvin.  Pressure   1.00000 Atm.
 Atom     1 has atomic number  6 and mass  12.00000

 Molecular mass:   126.06808 amu.
 Principal axes and moments of inertia in atomic units:
                           1         2         3
     Eigenvalues --   428.026841813.169271938.38483
           X            0.99961  -0.02574   0.01109
           Y            0.02393   0.98980   0.14045
           Z           -0.01459  -0.14013   0.99003
 This molecule is an asymmetric top.
 Rotational symmetry number  1.
 Rotational temperatures (Kelvin)      0.20236     0.04777     0.04468
 Rotational constants (GHZ):           4.21642     0.99535     0.93105
 Zero-point vibrational energy     414174.1 (Joules/Mol)
                                   98.98998 (Kcal/Mol)
 Warning -- explicit consideration of  10 degrees of freedom as
           vibrations may cause significant error
 Vibrational temperatures:     92.69   166.72   210.58   291.10   353.63
          (Kelvin)            428.65   545.75   580.42   691.48   760.00
                              996.65  1073.00  1119.72  1145.39  1254.72
                             1270.93  1324.57  1344.15  1369.84  1410.87
                             1454.81  1499.89  1516.73  1564.78  1647.85
                             1677.37  1687.02  1728.10  1743.63  1754.75
                             1818.93  1820.78  1877.34  1925.82  2025.48
                             2058.39  2106.45  2127.05  2139.42  2150.87
                             2191.20  4370.53  4414.05  4423.43  4450.22
                             4465.48  4472.30  4491.84  4496.38  4516.19
                             4579.28

 Zero-point correction=                           0.157751 (Hartree/Particle)
 Thermal correction to Energy=                    0.166284
 Thermal correction to Enthalpy=                  0.167228
 Thermal correction to Gibbs Free Energy=         0.124198
 Sum of electronic and zero-point Energies=           -422.972361
 Sum of electronic and thermal Energies=              -422.963828
 Sum of electronic and thermal Enthalpies=            -422.962883
 Sum of electronic and thermal Free Energies=         -423.005913

                     E (Thermal)             CV                S
                      KCal/Mol        Cal/Mol-Kelvin    Cal/Mol-Kelvin
 Total                  104.345             32.068             90.564
 Electronic               0.000              0.000              0.000
 Translational            0.889              2.981             40.409
 Rotational               0.889              2.981             28.799
 Vibrational            102.567             26.106             21.356
 Vibration     1          0.597              1.971              4.317
 Vibration     2          0.608              1.936              3.168
 Vibration     3          0.617              1.907              2.719
 Vibration     4          0.639              1.837              2.112
 Vibration     5          0.660              1.770              1.761
 Vibration     6          0.691              1.678              1.429
 Vibration     7          0.749              1.514              1.042
 Vibration     8          0.769              1.463              0.950
 Vibration     9          0.837              1.293              0.708
 Vibration    10          0.883              1.188              0.591

 Optimization completed.
    -- Stationary point found.
 Normal termination of Gaussian 09 at Tue Jan 28 02:43:34 2020.
