 Gaussian 09, Revision D.01,
 Gaussian 09:  ES64L-G09RevD.01 24-Apr-2013

 -----------------------------
 # b3lyp 6-31G(2df,p) opt Freq
 -----------------------------

 -----
 titel
 -----
 Symbolic Z-matrix:
 Charge =  0 Multiplicity = 1

 SCF Done:  E(RB3LYP) =  -423.205077091     A.U. after   14 cycles
 Optimization completed.
    -- Stationary point found.
 Normal termination of Gaussian 09 at Tue Jan 28 09:04:34 2020.

 ----------------------------------------------------------------------
 #N Geom=AllCheck Guess=TCheck SCRF=Check GenChk RB3LYP/6-31G(2df,p) Fr
 eq
 ----------------------------------------------------------------------

 Structure from the checkpoint file:  "/scratch/puck/g09_f5c7a78e-6089-4b91-8745-abddf2cfe1a0/Gau-16486.chk"
 -----
 titel
 -----
 Charge =  0 Multiplicity = 1

                         Standard orientation:
 ---------------------------------------------------------------------
 Center     Atomic      Atomic             Coordinates (Angstroms)
 Number     Number       Type             X           Y           Z
 ---------------------------------------------------------------------
      1          8           0       -1.717688    1.610139    0.087640
      2          6           0       -0.765164    0.916949    0.864241
      3          6           0       -0.041732   -0.199129    0.083538
      4          6           0        0.702755    0.393216   -1.161019
      5          6           0        2.137419    0.485194   -0.705134
      6          6           0        2.348886   -0.167404    0.434150
      7          6           0        1.091666   -0.820628    0.957347
      8          6           0       -1.027575   -1.248694   -0.373511
      9          8           0       -2.231029   -1.159514   -0.294976
     10          1           0       -2.402508    0.961066   -0.120025
     11          1           0       -0.024766    1.654027    1.193156
     12          1           0       -1.222445    0.478607    1.764582
     13          1           0        0.618286   -0.256168   -2.045180
     14          1           0        0.250840    1.350155   -1.439078
     15          1           0        2.892351    1.010538   -1.279352
     16          1           0        3.302412   -0.261802    0.941274
     17          1           0        1.143649   -1.914074    0.850053
     18          1           0        0.915819   -0.631027    2.023516
     19          1           0       -0.561432   -2.153350   -0.827941
 ---------------------------------------------------------------------

 SCF Done:  E(RB3LYP) =  -423.205077091     A.U. after    1 cycles

 The electronic state is 1-A.
 Alpha  occ. eigenvalues --  -19.15357 -19.12719 -10.27953 -10.22671 -10.20695
 Alpha  occ. eigenvalues --  -10.20171 -10.19649 -10.19078 -10.18984  -1.06019
 Alpha  occ. eigenvalues --   -1.01065  -0.86143  -0.75592  -0.72105  -0.66706
 Alpha  occ. eigenvalues --   -0.62488  -0.55953  -0.54776  -0.51799  -0.48312
 Alpha  occ. eigenvalues --   -0.47527  -0.45994  -0.41854  -0.41452  -0.40913
 Alpha  occ. eigenvalues --   -0.39298  -0.38949  -0.37271  -0.35979  -0.34398
 Alpha  occ. eigenvalues --   -0.32614  -0.26759  -0.25689  -0.25263
 Alpha virt. eigenvalues --   -0.03256   0.01469   0.09433   0.10545   0.12258
 Alpha virt. eigenvalues --    0.13033   0.13439   0.14210   0.15327   0.16370
 Alpha virt. eigenvalues --    0.16643   0.17025   0.19954   0.20084   0.22347

 Mulliken charges:
               1
     1  O   -0.428250
     2  C   -0.113653
     3  C    0.196172
     4  C   -0.311776
     5  C   -0.057589
     6  C   -0.058108
     7  C   -0.328847
     8  C    0.119244
     9  O   -0.277428
    10  H    0.295336
    11  H    0.111848
    12  H    0.094791
    13  H    0.106241
    14  H    0.140430
    15  H    0.100420
    16  H    0.099721
    17  H    0.108691
    18  H    0.114523
    19  H    0.088234
 Sum of Mulliken charges =   0.00000

 Dipole moment (field-independent basis, Debye):
    X=              2.6006    Y=             -1.2186    Z=              0.1841  Tot=              2.8778
 Quadrupole moment (field-independent basis, Debye-Ang):
   XX=            -56.9697   YY=            -56.6165   ZZ=            -50.7829
   XY=              0.2735   XZ=             -0.1613   YZ=             -0.7915

  Exact polarizability:  87.725   1.278  69.029   1.728  -5.238  72.618
 Approx polarizability: 126.264   0.561 105.309   4.645 -13.655 116.658

                      1                      2                      3
                      A                      A                      A
 Frequencies --     89.7575                97.4867               167.5368
 Red. masses --      3.0530                 4.3688                 3.2101
 Frc consts  --      0.0145                 0.0245                 0.0531
 IR Inten    --      0.5722                 3.3842                 8.4290

                      4                      5                      6
                      A                      A                      A
 Frequencies --    219.3509               272.5717               330.3176
 Red. masses --      4.6102                 2.8306                 2.4114
 Frc consts  --      0.1307                 0.1239                 0.1550
 IR Inten    --      1.9417                 5.3151                 3.0032

                      7                      8                      9
                      A                      A                      A
 Frequencies --    363.2134               384.8863               438.8619
 Red. masses --      2.2034                 1.9780                 6.5271
 Frc consts  --      0.1713                 0.1726                 0.7407
 IR Inten    --      0.6434                 0.1913                 1.8921

                     10                     11                     12
                      A                      A                      A
 Frequencies --    477.0790               575.9185               688.0085
 Red. masses --      3.0211                 1.1187                 1.3772
 Frc consts  --      0.4051                 0.2186                 0.3841
 IR Inten    --      2.5743               123.1967                41.5480

                     13                     14                     15
                      A                      A                      A
 Frequencies --    739.0165               772.8534               821.6096
 Red. masses --      2.7861                 3.7969                 4.7074
 Frc consts  --      0.8965                 1.3362                 1.8722
 IR Inten    --      7.9728                 3.1154                 5.2809

                     16                     17                     18
                      A                      A                      A
 Frequencies --    901.4690               919.1174               938.9308
 Red. masses --      2.0464                 1.7919                 1.7293
 Frc consts  --      0.9798                 0.8919                 0.8982
 IR Inten    --      3.6988                 6.2578                 9.7707

                     19                     20                     21
                      A                      A                      A
 Frequencies --    956.8158               973.3483               979.8264
 Red. masses --      1.7870                 1.3706                 2.8300
 Frc consts  --      0.9639                 0.7650                 1.6008
 IR Inten    --     14.1052                 0.3541                 0.3228

                     22                     23                     24
                      A                      A                      A
 Frequencies --   1014.1415              1080.0390              1089.9037
 Red. masses --      1.8989                 3.0354                 2.9104
 Frc consts  --      1.1507                 2.0861                 2.0370
 IR Inten    --      2.4788                 2.2617               111.5518

                     25                     26                     27
                      A                      A                      A
 Frequencies --   1121.1752              1130.8762              1131.9370
 Red. masses --      2.0932                 1.8845                 1.1374
 Frc consts  --      1.5503                 1.4200                 0.8586
 IR Inten    --     13.1697                11.4072                 1.0783

                     28                     29                     30
                      A                      A                      A
 Frequencies --   1185.9681              1240.1443              1296.4161
 Red. masses --      1.1685                 1.2834                 1.4383
 Frc consts  --      0.9683                 1.1630                 1.4243
 IR Inten    --      3.7869                17.4262                 6.2496

                     31                     32                     33
                      A                      A                      A
 Frequencies --   1310.9619              1342.1163              1355.0966
 Red. masses --      1.9626                 1.7371                 1.6552
 Frc consts  --      1.9873                 1.8435                 1.7908
 IR Inten    --      4.6957                 4.5497                 2.8415

                     34                     35                     36
                      A                      A                      A
 Frequencies --   1386.4478              1425.9631              1438.8151
 Red. masses --      1.2438                 1.2244                 1.2217
 Frc consts  --      1.4087                 1.4668                 1.4902
 IR Inten    --      0.2681                14.7161                60.8707

                     37                     38                     39
                      A                      A                      A
 Frequencies --   1483.4302              1491.7795              1497.9093
 Red. masses --      1.0822                 1.0927                 1.0777
 Frc consts  --      1.4031                 1.4327                 1.4247
 IR Inten    --      4.2276                 2.7417                 3.0099

                     40                     41                     42
                      A                      A                      A
 Frequencies --   1693.2165              1803.2320              2867.4387
 Red. masses --      6.1142                10.4512                 1.0830
 Frc consts  --     10.3279                20.0225                 5.2465
 IR Inten    --      6.9452               185.8842                96.5577

                     43                     44                     45
                      A                      A                      A
 Frequencies --   2986.9842              2996.6919              3000.8492
 Red. masses --      1.0673                 1.0709                 1.0689
 Frc consts  --      5.6105                 5.6659                 5.6711
 IR Inten    --     41.0066                35.0296                33.2676

                     46                     47                     48
                      A                      A                      A
 Frequencies --   3044.2485              3072.2864              3082.5713
 Red. masses --      1.0930                 1.0955                 1.0889
 Frc consts  --      5.9679                 6.0925                 6.0961
 IR Inten    --     24.6723                21.8102                 6.4934

                     49                     50                     51
                      A                      A                      A
 Frequencies --   3186.3871              3211.5566              3768.3098
 Red. masses --      1.0843                 1.1046                 1.0650
 Frc consts  --      6.4863                 6.7127                 8.9106
 IR Inten    --      4.0365                20.3068                59.7681

 - Thermochemistry -
 -------------------
 Temperature   298.150 Kelvin.  Pressure   1.00000 Atm.
 Atom     1 has atomic number  8 and mass  15.99491

 Molecular mass:   126.06808 amu.
 Principal axes and moments of inertia in atomic units:
                           1         2         3
     Eigenvalues --   669.976561370.822581565.34082
           X            0.99993  -0.01145  -0.00287
           Y            0.01138   0.99963  -0.02487
           Z            0.00316   0.02484   0.99969
 This molecule is an asymmetric top.
 Rotational symmetry number  1.
 Warning -- assumption of classical behavior for rotation
           may cause significant error
 Rotational temperatures (Kelvin)      0.12928     0.06318     0.05533
 Rotational constants (GHZ):           2.69374     1.31654     1.15294
 Zero-point vibrational energy     417765.1 (Joules/Mol)
                                   99.84825 (Kcal/Mol)
 Warning -- explicit consideration of  11 degrees of freedom as
           vibrations may cause significant error
 Vibrational temperatures:    129.14   140.26   241.05   315.60   392.17
          (Kelvin)            475.25   522.58   553.76   631.42   686.41
                              828.62   989.89  1063.28  1111.96  1182.11
                             1297.01  1322.40  1350.91  1376.64  1400.43
                             1409.75  1459.12  1553.93  1568.13  1613.12
                             1627.08  1628.60  1706.34  1784.29  1865.25
                             1886.18  1931.00  1949.68  1994.79  2051.64
                             2070.13  2134.32  2146.34  2155.15  2436.16
                             2594.45  4125.60  4297.60  4311.57  4317.55
                             4379.99  4420.33  4435.13  4584.49  4620.71
                             5421.75

 Zero-point correction=                           0.159118 (Hartree/Particle)
 Thermal correction to Energy=                    0.167704
 Thermal correction to Enthalpy=                  0.168649
 Thermal correction to Gibbs Free Energy=         0.125822
 Sum of electronic and zero-point Energies=           -423.045959
 Sum of electronic and thermal Energies=              -423.037373
 Sum of electronic and thermal Enthalpies=            -423.036428
 Sum of electronic and thermal Free Energies=         -423.079256

                     E (Thermal)             CV                S
                      KCal/Mol        Cal/Mol-Kelvin    Cal/Mol-Kelvin
 Total                  105.236             32.553             90.137
 Electronic               0.000              0.000              0.000
 Translational            0.889              2.981             40.409
 Rotational               0.889              2.981             28.754
 Vibrational            103.459             26.591             20.974
 Vibration     1          0.602              1.956              3.665
 Vibration     2          0.603              1.951              3.504
 Vibration     3          0.624              1.882              2.463
 Vibration     4          0.647              1.812              1.964
 Vibration     5          0.676              1.724              1.580
 Vibration     6          0.713              1.615              1.259
 Vibration     7          0.737              1.548              1.108
 Vibration     8          0.754              1.502              1.020
 Vibration     9          0.799              1.385              0.830
 Vibration    10          0.834              1.301              0.718
 Vibration    11          0.932              1.083              0.493

 Optimization completed.
    -- Stationary point found.
 Normal termination of Gaussian 09 at Tue Jan 28 09:47:25 2020.
