 Gaussian 09, Revision D.01,
 Gaussian 09:  ES64L-G09RevD.01 24-Apr-2013

 -----------------------------
 # b3lyp 6-31G(2df,p) opt Freq
 -----------------------------

 -----
 titel
 -----
 Symbolic Z-matrix:
 Charge =  0 Multiplicity = 1

 SCF Done:  E(RB3LYP) =  -423.118853077     A.U. after   13 cycles
 Optimization completed.
    -- Stationary point found.
 Normal termination of Gaussian 09 at Mon Jan 27 11:18:27 2020.

 ----------------------------------------------------------------------
 #N Geom=AllCheck Guess=TCheck SCRF=Check GenChk RB3LYP/6-31G(2df,p) Fr
 eq
 ----------------------------------------------------------------------

 Structure from the checkpoint file:  "/scratch/puck/g09_c0f740e0-4459-4efa-8757-201dcb6b736a/Gau-150502.chk"
 -----
 titel
 -----
 Charge =  0 Multiplicity = 1

                         Standard orientation:
 ---------------------------------------------------------------------
 Center     Atomic      Atomic             Coordinates (Angstroms)
 Number     Number       Type             X           Y           Z
 ---------------------------------------------------------------------
      1          6           0        2.294131    0.000007    0.365163
      2          6           0        0.861545   -0.000014    0.965602
      3          6           0        0.526198    1.079444   -0.112747
      4          8           0       -0.794639    1.321586   -0.525096
      5          6           0       -1.813838    0.781355    0.285680
      6          6           0       -1.813787   -0.781383    0.285721
      7          8           0       -0.794627   -1.321573   -0.525131
      8          6           0        0.526215   -1.079439   -0.112787
      9          6           0        1.356757    0.000022   -0.870981
     10          1           0        2.885065    0.902936    0.530727
     11          1           0        2.885078   -0.902919    0.530696
     12          1           0        0.597485   -0.000034    2.023648
     13          1           0        1.029137    2.044708    0.020126
     14          1           0       -1.735868    1.159080    1.316039
     15          1           0       -2.749907    1.161722   -0.132895
     16          1           0       -1.735678   -1.159056    1.316086
     17          1           0       -2.749878   -1.161831   -0.132732
     18          1           0        1.029162   -2.044704    0.020050
     19          1           0        1.636205    0.000043   -1.923848
 ---------------------------------------------------------------------

 SCF Done:  E(RB3LYP) =  -423.118853077     A.U. after    1 cycles

 The electronic state is 1-A.
 Alpha  occ. eigenvalues --  -19.13755 -19.13754 -10.23804 -10.23803 -10.22805
 Alpha  occ. eigenvalues --  -10.22788 -10.20499 -10.19531 -10.19484  -1.05097
 Alpha  occ. eigenvalues --   -1.01731  -0.90783  -0.74356  -0.68758  -0.64759
 Alpha  occ. eigenvalues --   -0.63433  -0.59046  -0.55618  -0.50393  -0.49782
 Alpha  occ. eigenvalues --   -0.46940  -0.46815  -0.43376  -0.42536  -0.39040
 Alpha  occ. eigenvalues --   -0.39012  -0.36807  -0.34595  -0.33145  -0.32444
 Alpha  occ. eigenvalues --   -0.29263  -0.29201  -0.24672  -0.24599
 Alpha virt. eigenvalues --    0.08003   0.08939   0.11024   0.12932   0.13247
 Alpha virt. eigenvalues --    0.14267   0.15396   0.15976   0.16500   0.16535
 Alpha virt. eigenvalues --    0.16915   0.17747   0.19448   0.20228   0.22200

 Mulliken charges:
               1
     1  C   -0.253053
     2  C   -0.154625
     3  C    0.164691
     4  O   -0.262613
     5  C   -0.096884
     6  C   -0.096894
     7  O   -0.262611
     8  C    0.164688
     9  C   -0.112841
    10  H    0.101890
    11  H    0.101890
    12  H    0.077979
    13  H    0.071400
    14  H    0.090747
    15  H    0.112033
    16  H    0.090750
    17  H    0.112031
    18  H    0.071399
    19  H    0.080022
 Sum of Mulliken charges =   0.00000

 Dipole moment (field-independent basis, Debye):
    X=              0.3987    Y=             -0.0001    Z=              1.7798  Tot=              1.8239
 Quadrupole moment (field-independent basis, Debye-Ang):
   XX=            -48.5564   YY=            -55.9155   ZZ=            -53.6989
   XY=              0.0001   XZ=             -2.0200   YZ=             -0.0001

  Exact polarizability:  89.245   0.000  69.749  -1.203   0.000  65.022
 Approx polarizability: 117.754   0.000 103.689  -0.507   0.000 105.121

                      1                      2                      3
                      A                      A                      A
 Frequencies --     88.7079               223.9611               275.4497
 Red. masses --      1.7925                 3.4185                 3.4103
 Frc consts  --      0.0083                 0.1010                 0.1524
 IR Inten    --      0.2191                 3.9819                 5.5289

                      4                      5                      6
                      A                      A                      A
 Frequencies --    339.3076               387.2101               482.2521
 Red. masses --      7.3975                 3.4468                 3.7873
 Frc consts  --      0.5018                 0.3045                 0.5190
 IR Inten    --      0.6595                 0.6270                 0.9492

                      7                      8                      9
                      A                      A                      A
 Frequencies --    502.6145               651.1540               681.9918
 Red. masses --      3.3208                 4.2292                 5.2777
 Frc consts  --      0.4943                 1.0565                 1.4463
 IR Inten    --      2.2398                10.2032                17.9545

                     10                     11                     12
                      A                      A                      A
 Frequencies --    766.5357               840.4364               846.0449
 Red. masses --      3.0477                 1.3079                 2.4025
 Frc consts  --      1.0551                 0.5443                 1.0132
 IR Inten    --      2.3468                 0.5826                 0.0003

                     13                     14                     15
                      A                      A                      A
 Frequencies --    870.7013               875.5101               896.2034
 Red. masses --      2.3034                 3.2313                 2.3161
 Frc consts  --      1.0289                 1.4593                 1.0960
 IR Inten    --      6.9688                 8.6381                 3.6721

                     16                     17                     18
                      A                      A                      A
 Frequencies --    914.7797               974.9543               976.8779
 Red. masses --      1.8961                 1.9638                 5.2114
 Frc consts  --      0.9349                 1.0998                 2.9301
 IR Inten    --      5.5377                 7.2264                 0.8746

                     19                     20                     21
                      A                      A                      A
 Frequencies --   1016.9039              1048.1055              1067.3068
 Red. masses --      1.0327                 4.4720                 1.9802
 Frc consts  --      0.6292                 2.8945                 1.3290
 IR Inten    --      0.2133                23.3667                 0.6611

                     22                     23                     24
                      A                      A                      A
 Frequencies --   1089.0975              1095.2892              1123.6845
 Red. masses --      1.4864                 1.4413                 4.2632
 Frc consts  --      1.0388                 1.0187                 3.1716
 IR Inten    --      2.4441                 0.0115                34.8299

                     25                     26                     27
                      A                      A                      A
 Frequencies --   1155.3896              1173.7743              1176.2680
 Red. masses --      4.7335                 2.0832                 1.3626
 Frc consts  --      3.7229                 1.6910                 1.1108
 IR Inten    --      0.7505                 0.0058                 4.4639

                     28                     29                     30
                      A                      A                      A
 Frequencies --   1216.6917              1219.4450              1240.6122
 Red. masses --      3.1262                 1.4706                 2.2832
 Frc consts  --      2.7267                 1.2884                 2.0705
 IR Inten    --    170.8538                 0.0745               177.9494

                     31                     32                     33
                      A                      A                      A
 Frequencies --   1260.8392              1272.7390              1288.8909
 Red. masses --      1.7987                 1.6972                 1.1681
 Frc consts  --      1.6847                 1.6198                 1.1433
 IR Inten    --     37.9674                14.6285                 1.5074

                     34                     35                     36
                      A                      A                      A
 Frequencies --   1313.7636              1378.9973              1397.6850
 Red. masses --      1.2017                 1.1444                 1.2410
 Frc consts  --      1.2220                 1.2822                 1.4284
 IR Inten    --     17.3481                 0.2376                 0.2544

                     37                     38                     39
                      A                      A                      A
 Frequencies --   1413.8210              1427.8259              1500.8947
 Red. masses --      1.2860                 1.1781                 1.0896
 Frc consts  --      1.5145                 1.4150                 1.4462
 IR Inten    --      7.9283                23.1031                 0.7711

                     40                     41                     42
                      A                      A                      A
 Frequencies --   1514.7648              1519.1963              2980.5290
 Red. masses --      1.0824                 1.1279                 1.0712
 Frc consts  --      1.4632                 1.5337                 5.6066
 IR Inten    --      2.6394                 5.5207                22.8777

                     43                     44                     45
                      A                      A                      A
 Frequencies --   2998.0590              3031.1667              3035.2735
 Red. masses --      1.0688                 1.0845                 1.0857
 Frc consts  --      5.6599                 5.8711                 5.8934
 IR Inten    --     91.5977               100.0702                24.1085

                     46                     47                     48
                      A                      A                      A
 Frequencies --   3069.3464              3072.6034              3094.1474
 Red. masses --      1.0543                 1.0915                 1.0966
 Frc consts  --      5.8519                 6.0711                 6.1858
 IR Inten    --     47.2607                 7.8771                55.0119

                     49                     50                     51
                      A                      A                      A
 Frequencies --   3107.9987              3126.4099              3133.7342
 Red. masses --      1.0912                 1.0933                 1.1113
 Frc consts  --      6.2104                 6.2963                 6.4298
 IR Inten    --     56.1115                31.7576                28.2987

 - Thermochemistry -
 -------------------
 Temperature   298.150 Kelvin.  Pressure   1.00000 Atm.
 Atom     1 has atomic number  6 and mass  12.00000

 Molecular mass:   126.06808 amu.
 Principal axes and moments of inertia in atomic units:
                           1         2         3
     Eigenvalues --   567.032251028.692321275.78432
           X            0.99991   0.00000  -0.01319
           Y            0.00000   1.00000   0.00000
           Z            0.01319   0.00000   0.99991
 This molecule is an asymmetric top.
 Rotational symmetry number  1.
 Warning -- assumption of classical behavior for rotation
           may cause significant error
 Rotational temperatures (Kelvin)      0.15275     0.08420     0.06789
 Rotational constants (GHZ):           3.18278     1.75440     1.41461
 Zero-point vibrational energy     425607.1 (Joules/Mol)
                                  101.72253 (Kcal/Mol)
 Warning -- explicit consideration of   7 degrees of freedom as
           vibrations may cause significant error
 Vibrational temperatures:    127.63   322.23   396.31   488.19   557.11
          (Kelvin)            693.85   723.15   936.86   981.23  1102.87
                             1209.20  1217.27  1252.74  1259.66  1289.44
                             1316.16  1402.74  1405.51  1463.10  1507.99
                             1535.61  1566.97  1575.87  1616.73  1662.35
                             1688.80  1692.39  1750.55  1754.51  1784.96
                             1814.06  1831.19  1854.42  1890.21  1984.07
                             2010.95  2034.17  2054.32  2159.45  2179.41
                             2185.78  4288.31  4313.53  4361.17  4367.08
                             4416.10  4420.79  4451.78  4471.71  4498.20
                             4508.74

 Zero-point correction=                           0.162105 (Hartree/Particle)
 Thermal correction to Energy=                    0.168969
 Thermal correction to Enthalpy=                  0.169913
 Thermal correction to Gibbs Free Energy=         0.130840
 Sum of electronic and zero-point Energies=           -422.956748
 Sum of electronic and thermal Energies=              -422.949884
 Sum of electronic and thermal Enthalpies=            -422.948940
 Sum of electronic and thermal Free Energies=         -422.988014

                     E (Thermal)             CV                S
                      KCal/Mol        Cal/Mol-Kelvin    Cal/Mol-Kelvin
 Total                  106.030             27.937             82.237
 Electronic               0.000              0.000              0.000
 Translational            0.889              2.981             40.409
 Rotational               0.889              2.981             28.100
 Vibrational            104.252             21.975             13.729
 Vibration     1          0.602              1.957              3.688
 Vibration     2          0.649              1.805              1.927
 Vibration     3          0.677              1.719              1.562
 Vibration     4          0.719              1.597              1.215
 Vibration     5          0.756              1.498              1.011
 Vibration     6          0.838              1.289              0.704
 Vibration     7          0.858              1.244              0.652

 Optimization completed.
    -- Stationary point found.
 Normal termination of Gaussian 09 at Mon Jan 27 12:07:52 2020.
