 Gaussian 09, Revision D.01,
 Gaussian 09:  ES64L-G09RevD.01 24-Apr-2013

 -----------------------------
 # b3lyp 6-31G(2df,p) opt Freq
 -----------------------------

 -----
 titel
 -----
 Symbolic Z-matrix:
 Charge =  0 Multiplicity = 1

 SCF Done:  E(RB3LYP) =  -423.127341782     A.U. after   14 cycles
 Optimization completed.
    -- Stationary point found.
 Normal termination of Gaussian 09 at Tue Jan 28 12:40:06 2020.

 ----------------------------------------------------------------------
 #N Geom=AllCheck Guess=TCheck SCRF=Check GenChk RB3LYP/6-31G(2df,p) Fr
 eq
 ----------------------------------------------------------------------

 Structure from the checkpoint file:  "/scratch/puck/g09_b4022673-49a9-4c5f-b63d-73f51f673262/Gau-106757.chk"
 -----
 titel
 -----
 Charge =  0 Multiplicity = 1

                         Standard orientation:
 ---------------------------------------------------------------------
 Center     Atomic      Atomic             Coordinates (Angstroms)
 Number     Number       Type             X           Y           Z
 ---------------------------------------------------------------------
      1          6           0       -2.645184   -0.571970   -0.452270
      2          6           0       -1.167172   -0.357340   -0.687689
      3          6           0       -0.119745   -0.938486    0.231090
      4          6           0        1.178651   -1.501928   -0.305739
      5          8           0        2.279889   -1.244575    0.550600
      6          6           0       -0.371546    0.568387    0.214422
      7          8           0       -1.095195    1.120067    1.282275
      8          6           0        0.642758    1.429688   -0.340308
      9          6           0        1.528207    2.134227   -0.753959
     10          1           0       -2.955325   -1.546754   -0.843351
     11          1           0       -2.883859   -0.532843    0.611896
     12          1           0       -3.237702    0.197843   -0.957015
     13          1           0       -0.875624   -0.306689   -1.733820
     14          1           0       -0.492801   -1.409602    1.137258
     15          1           0        1.104433   -2.591769   -0.387498
     16          1           0        1.361570   -1.110788   -1.317151
     17          1           0        2.434859   -0.293311    0.517770
     18          1           0       -0.487088    1.237679    2.020788
     19          1           0        2.278167    2.776830   -1.145158
 ---------------------------------------------------------------------

 SCF Done:  E(RB3LYP) =  -423.127341782     A.U. after    1 cycles

 The electronic state is 1-A.
 Alpha  occ. eigenvalues --  -19.15473 -19.12846 -10.26460 -10.22815 -10.20408
 Alpha  occ. eigenvalues --  -10.19482 -10.19399 -10.18699 -10.17984  -1.04218
 Alpha  occ. eigenvalues --   -1.01064  -0.86897  -0.76099  -0.72389  -0.68706
 Alpha  occ. eigenvalues --   -0.62139  -0.57728  -0.56112  -0.51683  -0.49819
 Alpha  occ. eigenvalues --   -0.48812  -0.43863  -0.43057  -0.41068  -0.40960
 Alpha  occ. eigenvalues --   -0.38087  -0.36468  -0.35152  -0.33639  -0.31743
 Alpha  occ. eigenvalues --   -0.28372  -0.28065  -0.26230  -0.24525
 Alpha virt. eigenvalues --    0.02593   0.03771   0.08088   0.09937   0.10531
 Alpha virt. eigenvalues --    0.11865   0.12467   0.13566   0.15413   0.16198
 Alpha virt. eigenvalues --    0.17396   0.17952   0.19155   0.20865   0.22277

 Mulliken charges:
               1
     1  C   -0.413134
     2  C   -0.074076
     3  C   -0.112423
     4  C   -0.099393
     5  O   -0.423198
     6  C    0.194927
     7  O   -0.448438
     8  C    0.290370
     9  C   -0.473284
    10  H    0.118161
    11  H    0.136616
    12  H    0.125170
    13  H    0.099267
    14  H    0.098336
    15  H    0.111264
    16  H    0.094042
    17  H    0.284810
    18  H    0.288719
    19  H    0.202265
 Sum of Mulliken charges =   0.00000

 Dipole moment (field-independent basis, Debye):
    X=             -0.1205    Y=              0.5113    Z=             -0.4205  Tot=              0.6729
 Quadrupole moment (field-independent basis, Debye-Ang):
   XX=            -55.5596   YY=            -53.4828   ZZ=            -50.0446
   XY=              8.1849   XZ=             -1.0956   YZ=              1.2379

  Exact polarizability:  89.382  12.836  82.131  -2.837  -3.312  65.640
 Approx polarizability: 126.872  22.915 120.817  -7.535  -8.425 101.997

                      1                      2                      3
                      A                      A                      A
 Frequencies --     83.6901               123.4008               138.1531
 Red. masses --      4.4547                 3.7210                 2.7231
 Frc consts  --      0.0184                 0.0334                 0.0306
 IR Inten    --      2.5290                 3.5079                 0.4283

                      4                      5                      6
                      A                      A                      A
 Frequencies --    168.8096               174.4279               223.1498
 Red. masses --      2.7874                 1.2471                 2.5709
 Frc consts  --      0.0468                 0.0224                 0.0754
 IR Inten    --      0.5509                 1.0394                 5.1734

                      7                      8                      9
                      A                      A                      A
 Frequencies --    278.7387               305.0757               317.3270
 Red. masses --      2.1444                 1.4052                 3.4074
 Frc consts  --      0.0982                 0.0771                 0.2022
 IR Inten    --     10.9552                72.9833                 3.9467

                     10                     11                     12
                      A                      A                      A
 Frequencies --    378.0592               420.6648               471.7612
 Red. masses --      2.9651                 1.3063                 4.4155
 Frc consts  --      0.2497                 0.1362                 0.5790
 IR Inten    --      6.4884                74.2547                12.6604

                     13                     14                     15
                      A                      A                      A
 Frequencies --    499.2679               556.3354               592.2824
 Red. masses --      3.8306                 4.5227                 1.2544
 Frc consts  --      0.5626                 0.8247                 0.2593
 IR Inten    --     16.4472                 8.9068                47.8802

                     16                     17                     18
                      A                      A                      A
 Frequencies --    629.3059               680.6157               685.6810
 Red. masses --      3.3273                 1.4377                 3.5064
 Frc consts  --      0.7764                 0.3924                 0.9713
 IR Inten    --      0.6427                38.5858                 0.8684

                     19                     20                     21
                      A                      A                      A
 Frequencies --    796.1035               877.1826               967.6664
 Red. masses --      3.4336                 1.8539                 1.3392
 Frc consts  --      1.2821                 0.8405                 0.7388
 IR Inten    --     23.1168                 4.0568                19.6228

                     22                     23                     24
                      A                      A                      A
 Frequencies --    981.1955              1029.5655              1053.4507
 Red. masses --      2.0401                 1.4472                 4.1611
 Frc consts  --      1.1572                 0.9038                 2.7207
 IR Inten    --      5.6924                26.1362                65.2114

                     25                     26                     27
                      A                      A                      A
 Frequencies --   1071.6273              1099.4772              1129.5456
 Red. masses --      2.3509                 3.6116                 1.8880
 Frc consts  --      1.5906                 2.5723                 1.4192
 IR Inten    --      9.3859                41.8014                15.8655

                     28                     29                     30
                      A                      A                      A
 Frequencies --   1154.8117              1215.0353              1233.0116
 Red. masses --      1.5153                 1.8133                 1.6619
 Frc consts  --      1.1906                 1.5772                 1.4887
 IR Inten    --      5.0552                25.2366                65.6202

                     31                     32                     33
                      A                      A                      A
 Frequencies --   1262.3185              1319.4767              1337.8553
 Red. masses --      1.9544                 1.3392                 1.3414
 Frc consts  --      1.8348                 1.3738                 1.4146
 IR Inten    --     22.0173                32.4662                13.5622

                     34                     35                     36
                      A                      A                      A
 Frequencies --   1399.1779              1413.4227              1423.0139
 Red. masses --      1.2288                 1.2521                 1.2251
 Frc consts  --      1.4174                 1.4738                 1.4616
 IR Inten    --      2.1972                 0.3551                59.7002

                     37                     38                     39
                      A                      A                      A
 Frequencies --   1456.3310              1491.3316              1495.1915
 Red. masses --      2.4477                 1.0693                 1.0797
 Frc consts  --      3.0587                 1.4012                 1.4222
 IR Inten    --      8.0513                 1.7584                 2.2657

                     40                     41                     42
                      A                      A                      A
 Frequencies --   1500.7603              2217.7171              2998.1928
 Red. masses --      1.0879                 6.0299                 1.0670
 Frc consts  --      1.4437                17.4732                 5.6510
 IR Inten    --      6.3294                 7.7648                37.8496

                     43                     44                     45
                      A                      A                      A
 Frequencies --   3039.5168              3069.1690              3098.7405
 Red. masses --      1.0375                 1.0956                 1.1013
 Frc consts  --      5.6474                 6.0806                 6.2306
 IR Inten    --     34.7617                33.5739                21.2895

                     46                     47                     48
                      A                      A                      A
 Frequencies --   3130.5702              3143.2030              3151.0147
 Red. masses --      1.0935                 1.0919                 1.0886
 Frc consts  --      6.3144                 6.3558                 6.3680
 IR Inten    --      0.9737                 2.4762                24.1497

                     49                     50                     51
                      A                      A                      A
 Frequencies --   3497.7521              3790.4233              3798.0155
 Red. masses --      1.1592                 1.0659                 1.0663
 Frc consts  --      8.3554                 9.0226                 9.0628
 IR Inten    --     84.2790                26.2411                26.6328

 - Thermochemistry -
 -------------------
 Temperature   298.150 Kelvin.  Pressure   1.00000 Atm.
 Atom     1 has atomic number  6 and mass  12.00000

 Molecular mass:   126.06808 amu.
 Principal axes and moments of inertia in atomic units:
                           1         2         3
     Eigenvalues --   915.611841290.973031751.55305
           X            0.99771   0.06761   0.00157
           Y           -0.06762   0.99765   0.01095
           Z           -0.00082  -0.01103   0.99994
 This molecule is an asymmetric top.
 Rotational symmetry number  1.
 Warning -- assumption of classical behavior for rotation
           may cause significant error
 Rotational temperatures (Kelvin)      0.09460     0.06709     0.04945
 Rotational constants (GHZ):           1.97108     1.39797     1.03037
 Zero-point vibrational energy     408935.1 (Joules/Mol)
                                   97.73784 (Kcal/Mol)
 Warning -- explicit consideration of  15 degrees of freedom as
           vibrations may cause significant error
 Vibrational temperatures:    120.41   177.55   198.77   242.88   250.96
          (Kelvin)            321.06   401.04   438.94   456.56   543.94
                              605.24   678.76   718.33   800.44   852.16
                              905.43   979.25   986.54  1145.41  1262.07
                             1392.25  1411.72  1481.31  1515.68  1541.83
                             1581.90  1625.16  1661.51  1748.16  1774.03
                             1816.19  1898.43  1924.87  2013.10  2033.60
                             2047.40  2095.33  2145.69  2151.24  2159.26
                             3190.80  4313.73  4373.18  4415.84  4458.39
                             4504.19  4522.36  4533.60  5032.48  5453.57
                             5464.49

 Zero-point correction=                           0.155755 (Hartree/Particle)
 Thermal correction to Energy=                    0.166016
 Thermal correction to Enthalpy=                  0.166961
 Thermal correction to Gibbs Free Energy=         0.120954
 Sum of electronic and zero-point Energies=           -422.971587
 Sum of electronic and thermal Energies=              -422.961325
 Sum of electronic and thermal Enthalpies=            -422.960381
 Sum of electronic and thermal Free Energies=         -423.006388

                     E (Thermal)             CV                S
                      KCal/Mol        Cal/Mol-Kelvin    Cal/Mol-Kelvin
 Total                  104.177             37.909             96.830
 Electronic               0.000              0.000              0.000
 Translational            0.889              2.981             40.409
 Rotational               0.889              2.981             29.117
 Vibrational            102.399             31.948             27.305
 Vibration     1          0.601              1.960              3.802
 Vibration     2          0.610              1.930              3.046
 Vibration     3          0.614              1.915              2.829
 Vibration     4          0.625              1.881              2.449
 Vibration     5          0.627              1.874              2.387
 Vibration     6          0.649              1.806              1.933
 Vibration     7          0.679              1.713              1.541
 Vibration     8          0.696              1.664              1.389
 Vibration     9          0.704              1.641              1.324
 Vibration    10          0.748              1.517              1.047
 Vibration    11          0.783              1.425              0.890
 Vibration    12          0.829              1.313              0.733
 Vibration    13          0.855              1.252              0.660
 Vibration    14          0.912              1.126              0.531
 Vibration    15          0.950              1.048              0.463

 Normal termination of Gaussian 09 at Tue Jan 28 13:21:33 2020.
