 Gaussian 09, Revision D.01,
 Gaussian 09:  ES64L-G09RevD.01 24-Apr-2013

 -----------------------------
 # b3lyp 6-31G(2df,p) opt Freq
 -----------------------------

 -----
 titel
 -----
 Symbolic Z-matrix:
 Charge =  0 Multiplicity = 1

 SCF Done:  E(RB3LYP) =  -423.110069510     A.U. after   14 cycles
 Optimization completed.
    -- Stationary point found.
 Normal termination of Gaussian 09 at Mon Jan 27 11:15:06 2020.

 ----------------------------------------------------------------------
 #N Geom=AllCheck Guess=TCheck SCRF=Check GenChk RB3LYP/6-31G(2df,p) Fr
 eq
 ----------------------------------------------------------------------

 Structure from the checkpoint file:  "/scratch/puck/g09_80ddf422-d6f6-4c29-96a3-34ce60b276f7/Gau-18561.chk"
 -----
 titel
 -----
 Charge =  0 Multiplicity = 1

                         Standard orientation:
 ---------------------------------------------------------------------
 Center     Atomic      Atomic             Coordinates (Angstroms)
 Number     Number       Type             X           Y           Z
 ---------------------------------------------------------------------
      1          6           0       -4.671901    0.281971   -0.277186
      2          6           0       -3.579651   -0.168903   -0.058354
      3          6           0       -2.241366   -0.682354    0.199081
      4          6           0       -1.162065    0.385662   -0.007583
      5          8           0        0.084017   -0.211653    0.270052
      6          6           0        1.173066    0.672807    0.122851
      7          6           0        2.439482   -0.069885    0.446280
      8          6           0        3.730385    0.351642   -0.108431
      9          8           0        3.054480   -0.796936   -0.617523
     10          1           0       -5.643145    0.666024   -0.467962
     11          1           0       -2.168274   -1.059483    1.225994
     12          1           0       -2.023978   -1.530568   -0.460569
     13          1           0       -1.196673    0.761507   -1.042270
     14          1           0       -1.345398    1.242953    0.660075
     15          1           0        1.231482    1.062706   -0.906017
     16          1           0        1.063820    1.534843    0.804583
     17          1           0        2.426561   -0.596130    1.401093
     18          1           0        3.774846    1.205644   -0.783903
     19          1           0        4.645090    0.155580    0.448798
 ---------------------------------------------------------------------

 SCF Done:  E(RB3LYP) =  -423.110069510     A.U. after    1 cycles

 The electronic state is 1-A.
 Alpha  occ. eigenvalues --  -19.15286 -19.14827 -10.24182 -10.23875 -10.23872
 Alpha  occ. eigenvalues --  -10.23830 -10.20905 -10.18257 -10.17148  -1.07544
 Alpha  occ. eigenvalues --   -1.04278  -0.80384  -0.74795  -0.70832  -0.66366
 Alpha  occ. eigenvalues --   -0.62698  -0.60132  -0.53298  -0.51647  -0.49871
 Alpha  occ. eigenvalues --   -0.48889  -0.48111  -0.44343  -0.43451  -0.42275
 Alpha  occ. eigenvalues --   -0.39300  -0.37482  -0.36824  -0.33177  -0.31263
 Alpha  occ. eigenvalues --   -0.27170  -0.26652  -0.26575  -0.26219
 Alpha virt. eigenvalues --    0.05264   0.05842   0.08118   0.09826   0.10821
 Alpha virt. eigenvalues --    0.11962   0.12230   0.13003   0.14110   0.14731
 Alpha virt. eigenvalues --    0.15808   0.16610   0.18117   0.18750   0.21278

 Mulliken charges:
               1
     1  C   -0.447963
     2  C    0.286366
     3  C   -0.350321
     4  C   -0.045488
     5  O   -0.246639
     6  C   -0.077373
     7  C    0.082215
     8  C   -0.181363
     9  O   -0.225382
    10  H    0.196644
    11  H    0.140038
    12  H    0.144461
    13  H    0.102963
    14  H    0.098894
    15  H    0.097813
    16  H    0.091114
    17  H    0.101834
    18  H    0.114010
    19  H    0.118178
 Sum of Mulliken charges =   0.00000

 Dipole moment (field-independent basis, Debye):
    X=              0.4393    Y=              2.1050    Z=              0.8911  Tot=              2.3277
 Quadrupole moment (field-independent basis, Debye-Ang):
   XX=            -48.9548   YY=            -53.7752   ZZ=            -53.4363
   XY=              3.5576   XZ=              3.7941   YZ=             -1.8595

  Exact polarizability: 115.668  -4.501  63.079   2.674  -3.319  60.129
 Approx polarizability: 141.564 -12.600  98.752   4.718  -3.510  92.354

                      1                      2                      3
                      A                      A                      A
 Frequencies --     39.1159                62.8818                84.2051
 Red. masses --      4.8907                 2.9504                 3.4747
 Frc consts  --      0.0044                 0.0069                 0.0145
 IR Inten    --      0.4685                 1.3928                 1.6006

                      4                      5                      6
                      A                      A                      A
 Frequencies --    115.6840               145.8465               172.3029
 Red. masses --      2.7570                 4.1109                 3.4915
 Frc consts  --      0.0217                 0.0515                 0.0611
 IR Inten    --      0.7334                 3.1872                 0.2886

                      7                      8                      9
                      A                      A                      A
 Frequencies --    298.1363               321.3948               355.0051
 Red. masses --      3.7095                 4.1855                 3.1996
 Frc consts  --      0.1943                 0.2547                 0.2376
 IR Inten    --      0.3056                 0.9182                 4.7456

                     10                     11                     12
                      A                      A                      A
 Frequencies --    445.7101               475.9417               550.8808
 Red. masses --      2.7719                 3.8900                 4.7005
 Frc consts  --      0.3244                 0.5192                 0.8404
 IR Inten    --      4.7383                 8.4128                 6.1769

                     13                     14                     15
                      A                      A                      A
 Frequencies --    623.4174               649.8822               798.6598
 Red. masses --      1.2076                 1.2310                 1.1908
 Frc consts  --      0.2765                 0.3063                 0.4475
 IR Inten    --     44.5858                42.2382                 0.6228

                     16                     17                     18
                      A                      A                      A
 Frequencies --    806.5301               870.6705               944.5372
 Red. masses --      3.1990                 1.7346                 4.1287
 Frc consts  --      1.2260                 0.7747                 2.1702
 IR Inten    --     12.2414                17.1208                34.6190

                     19                     20                     21
                      A                      A                      A
 Frequencies --    969.8356               994.9608              1035.6084
 Red. masses --      3.5308                 1.7369                 2.7529
 Frc consts  --      1.9567                 1.0131                 1.7395
 IR Inten    --      5.2421                 1.5418                14.0315

                     22                     23                     24
                      A                      A                      A
 Frequencies --   1064.5609              1090.0175              1109.1571
 Red. masses --      2.6744                 1.5330                 1.7717
 Frc consts  --      1.7857                 1.0731                 1.2842
 IR Inten    --      1.7463                 1.0312                 3.6315

                     25                     26                     27
                      A                      A                      A
 Frequencies --   1149.5038              1159.0289              1167.2743
 Red. masses --      2.1796                 1.6010                 2.3676
 Frc consts  --      1.6969                 1.2672                 1.9007
 IR Inten    --    100.0277                34.7409               125.6925

                     28                     29                     30
                      A                      A                      A
 Frequencies --   1176.2934              1229.1142              1271.6368
 Red. masses --      1.7778                 1.2033                 1.1605
 Frc consts  --      1.4493                 1.0711                 1.1057
 IR Inten    --     28.2679                 2.5256                 5.4627

                     31                     32                     33
                      A                      A                      A
 Frequencies --   1293.4851              1301.0271              1306.2143
 Red. masses --      1.5202                 1.0907                 1.3745
 Frc consts  --      1.4986                 1.0877                 1.3817
 IR Inten    --      3.6495                 1.1380                11.9291

                     34                     35                     36
                      A                      A                      A
 Frequencies --   1367.8597              1421.5508              1469.0726
 Red. masses --      1.3296                 1.4876                 1.6153
 Frc consts  --      1.4658                 1.7711                 2.0540
 IR Inten    --     45.4124                19.3262                 0.8085

                     37                     38                     39
                      A                      A                      A
 Frequencies --   1477.1912              1497.7638              1529.3652
 Red. masses --      1.0867                 1.0887                 1.1257
 Frc consts  --      1.3971                 1.4389                 1.5512
 IR Inten    --      2.1844                 9.0726                 2.8378

                     40                     41                     42
                      A                      A                      A
 Frequencies --   1534.0488              2242.4398              2949.8878
 Red. masses --      1.3688                 5.9279                 1.0598
 Frc consts  --      1.8978                17.5629                 5.4336
 IR Inten    --      2.2378                 3.1417                34.5721

                     43                     44                     45
                      A                      A                      A
 Frequencies --   2972.3726              2997.0600              3003.7683
 Red. masses --      1.0561                 1.0976                 1.1061
 Frc consts  --      5.4973                 5.8086                 5.8798
 IR Inten    --     47.2110                50.7108                25.7939

                     46                     47                     48
                      A                      A                      A
 Frequencies --   3036.8920              3074.5529              3082.0979
 Red. masses --      1.0581                 1.1029                 1.0503
 Frc consts  --      5.7498                 6.1425                 5.8784
 IR Inten    --     14.6149                14.4078                28.3846

                     49                     50                     51
                      A                      A                      A
 Frequencies --   3115.2976              3167.8488              3507.4122
 Red. masses --      1.0887                 1.1190                 1.1625
 Frc consts  --      6.2251                 6.6159                 8.4258
 IR Inten    --     18.6854                28.6161                68.8433

 - Thermochemistry -
 -------------------
 Temperature   298.150 Kelvin.  Pressure   1.00000 Atm.
 Atom     1 has atomic number  6 and mass  12.00000

 Molecular mass:   126.06808 amu.
 Principal axes and moments of inertia in atomic units:
                           1         2         3
     Eigenvalues --   203.525953586.457543655.03833
           X            0.99997   0.00650   0.00290
           Y           -0.00611   0.99298  -0.11811
           Z           -0.00364   0.11809   0.99300
 This molecule is an asymmetric top.
 Rotational symmetry number  1.
 Rotational temperatures (Kelvin)      0.42557     0.02415     0.02370
 Rotational constants (GHZ):           8.86738     0.50321     0.49377
 Zero-point vibrational energy     409870.5 (Joules/Mol)
                                   97.96141 (Kcal/Mol)
 Warning -- explicit consideration of  12 degrees of freedom as
           vibrations may cause significant error
 Vibrational temperatures:     56.28    90.47   121.15   166.44   209.84
          (Kelvin)            247.91   428.95   462.41   510.77   641.28
                              684.77   792.59   896.96   935.03  1149.09
                             1160.42  1252.70  1358.98  1395.38  1431.52
                             1490.01  1531.66  1568.29  1595.83  1653.88
                             1667.58  1679.45  1692.42  1768.42  1829.60
                             1861.03  1871.89  1879.35  1968.04  2045.29
                             2113.67  2125.35  2154.95  2200.41  2207.15
                             3226.37  4244.23  4276.58  4312.10  4321.75
                             4369.40  4423.59  4434.45  4482.21  4557.82
                             5046.38

 Zero-point correction=                           0.156111 (Hartree/Particle)
 Thermal correction to Energy=                    0.166120
 Thermal correction to Enthalpy=                  0.167064
 Thermal correction to Gibbs Free Energy=         0.119611
 Sum of electronic and zero-point Energies=           -422.953958
 Sum of electronic and thermal Energies=              -422.943950
 Sum of electronic and thermal Enthalpies=            -422.943006
 Sum of electronic and thermal Free Energies=         -422.990459

                     E (Thermal)             CV                S
                      KCal/Mol        Cal/Mol-Kelvin    Cal/Mol-Kelvin
 Total                  104.242             34.786             99.874
 Electronic               0.000              0.000              0.000
 Translational            0.889              2.981             40.409
 Rotational               0.889              2.981             29.369
 Vibrational            102.464             28.825             30.096
 Vibration     1          0.594              1.981              5.303
 Vibration     2          0.597              1.972              4.365
 Vibration     3          0.601              1.960              3.790
 Vibration     4          0.608              1.936              3.171
 Vibration     5          0.617              1.907              2.726
 Vibration     6          0.626              1.877              2.410
 Vibration     7          0.691              1.677              1.427
 Vibration     8          0.707              1.633              1.303
 Vibration     9          0.731              1.565              1.144
 Vibration    10          0.805              1.370              0.809
 Vibration    11          0.833              1.303              0.721
 Vibration    12          0.906              1.138              0.542

 Optimization completed.
    -- Stationary point found.
 Normal termination of Gaussian 09 at Mon Jan 27 11:44:47 2020.
