 Gaussian 09, Revision D.01,
 Gaussian 09:  ES64L-G09RevD.01 24-Apr-2013

 -----------------------------
 # b3lyp 6-31G(2df,p) opt Freq
 -----------------------------

 -----
 titel
 -----
 Symbolic Z-matrix:
 Charge =  0 Multiplicity = 1

 SCF Done:  E(RB3LYP) =  -423.153275398     A.U. after   13 cycles
 Optimization completed.
    -- Stationary point found.
 Normal termination of Gaussian 09 at Mon Jan 27 12:15:01 2020.

 ----------------------------------------------------------------------
 #N Geom=AllCheck Guess=TCheck SCRF=Check GenChk RB3LYP/6-31G(2df,p) Fr
 eq
 ----------------------------------------------------------------------

 Structure from the checkpoint file:  "/scratch/puck/g09_bd700b18-40cd-4875-8928-8dab9dc92d30/Gau-71787.chk"
 -----
 titel
 -----
 Charge =  0 Multiplicity = 1

                         Standard orientation:
 ---------------------------------------------------------------------
 Center     Atomic      Atomic             Coordinates (Angstroms)
 Number     Number       Type             X           Y           Z
 ---------------------------------------------------------------------
      1          6           0       -1.558743   -1.000434    0.648156
      2          8           0       -2.261302    0.022879   -0.099495
      3          6           0       -1.063284    0.394629   -0.823944
      4          6           0       -0.369213    1.651279   -0.265822
      5          6           0        0.411571    0.757087    0.746654
      6          6           0        1.909668    0.550412    0.490890
      7          8           0        2.012213   -0.425758   -0.547080
      8          6           0        0.961659   -1.364730   -0.337410
      9          6           0       -0.217115   -0.525845    0.096746
     10          1           0       -1.719210   -0.915723    1.730048
     11          1           0       -1.856503   -2.006992    0.320752
     12          1           0       -1.178795    0.276211   -1.905704
     13          1           0        0.282871    2.139657   -0.996983
     14          1           0       -1.048564    2.390336    0.163973
     15          1           0        0.189097    0.933292    1.800951
     16          1           0        2.433678    1.448034    0.150023
     17          1           0        2.403433    0.185771    1.406255
     18          1           0        0.808145   -1.907112   -1.274859
     19          1           0        1.231301   -2.094831    0.446522
 ---------------------------------------------------------------------

 SCF Done:  E(RB3LYP) =  -423.153275398     A.U. after    1 cycles

 The electronic state is 1-A.
 Alpha  occ. eigenvalues --  -19.14039 -19.13350 -10.23361 -10.23109 -10.23065
 Alpha  occ. eigenvalues --  -10.22908 -10.19631 -10.19347 -10.18299  -1.04296
 Alpha  occ. eigenvalues --   -1.03273  -0.83016  -0.74962  -0.71583  -0.65606
 Alpha  occ. eigenvalues --   -0.63114  -0.59158  -0.52306  -0.51229  -0.49659
 Alpha  occ. eigenvalues --   -0.47339  -0.45695  -0.44069  -0.42322  -0.41886
 Alpha  occ. eigenvalues --   -0.39151  -0.38139  -0.34722  -0.33220  -0.30944
 Alpha  occ. eigenvalues --   -0.30745  -0.27893  -0.25828  -0.24384
 Alpha virt. eigenvalues --    0.06678   0.08889   0.09662   0.11250   0.11830
 Alpha virt. eigenvalues --    0.12850   0.13301   0.14620   0.16243   0.16781
 Alpha virt. eigenvalues --    0.17561   0.17971   0.18580   0.20415   0.20890

 Mulliken charges:
               1
     1  C   -0.164349
     2  O   -0.298658
     3  C    0.086660
     4  C   -0.253422
     5  C   -0.083111
     6  C   -0.096549
     7  O   -0.253477
     8  C   -0.203060
     9  C    0.297975
    10  H    0.102168
    11  H    0.099114
    12  H    0.074504
    13  H    0.105380
    14  H    0.110560
    15  H    0.073888
    16  H    0.110769
    17  H    0.089584
    18  H    0.113728
    19  H    0.088295
 Sum of Mulliken charges =   0.00000

 Dipole moment (field-independent basis, Debye):
    X=              0.6000    Y=             -0.2434    Z=              0.9944  Tot=              1.1866
 Quadrupole moment (field-independent basis, Debye-Ang):
   XX=            -62.2610   YY=            -49.8241   ZZ=            -51.3230
   XY=              2.5396   XZ=              1.7882   YZ=             -0.4139

  Exact polarizability:  75.729   3.459  77.964   1.452  -1.501  68.647
 Approx polarizability: 105.157   3.727 110.180   0.318  -2.369 105.633

                      1                      2                      3
                      A                      A                      A
 Frequencies --    101.9677               194.3321               241.7658
 Red. masses --      3.1110                 3.9553                 2.3522
 Frc consts  --      0.0191                 0.0880                 0.0810
 IR Inten    --      3.0488                 6.3935                 1.5023

                      4                      5                      6
                      A                      A                      A
 Frequencies --    330.5776               351.2407               401.3171
 Red. masses --      2.6450                 1.9017                 2.0471
 Frc consts  --      0.1703                 0.1382                 0.1942
 IR Inten    --      1.7272                 2.3104                 1.3582

                      7                      8                      9
                      A                      A                      A
 Frequencies --    460.0532               636.9318               693.7006
 Red. masses --      3.9319                 3.8487                 3.2155
 Frc consts  --      0.4903                 0.9199                 0.9117
 IR Inten    --      0.7093                 2.3001                 0.8260

                     10                     11                     12
                      A                      A                      A
 Frequencies --    729.7637               796.3834               849.1011
 Red. masses --      3.5771                 2.5127                 2.7666
 Frc consts  --      1.1224                 0.9389                 1.1752
 IR Inten    --      9.0812                 0.5086                15.9704

                     13                     14                     15
                      A                      A                      A
 Frequencies --    872.2637               882.8542               933.4524
 Red. masses --      2.5257                 2.2865                 3.2541
 Frc consts  --      1.1322                 1.0500                 1.6706
 IR Inten    --      5.4328                 4.5738                29.5735

                     16                     17                     18
                      A                      A                      A
 Frequencies --    950.0826               976.3581               999.7845
 Red. masses --      1.8469                 2.1633                 3.7847
 Frc consts  --      0.9823                 1.2150                 2.2289
 IR Inten    --      0.3254                 8.4938                39.1391

                     19                     20                     21
                      A                      A                      A
 Frequencies --   1011.1067              1038.1092              1081.0047
 Red. masses --      2.1234                 2.4852                 2.5706
 Frc consts  --      1.2790                 1.5780                 1.7699
 IR Inten    --     11.4820                56.9823                17.7595

                     22                     23                     24
                      A                      A                      A
 Frequencies --   1092.2575              1131.7172              1136.9818
 Red. masses --      2.5333                 2.2925                 1.6115
 Frc consts  --      1.7807                 1.7300                 1.2274
 IR Inten    --     18.5922                 9.4281                 2.5680

                     25                     26                     27
                      A                      A                      A
 Frequencies --   1153.5337              1183.3046              1191.0810
 Red. masses --      1.7240                 1.4626                 1.7144
 Frc consts  --      1.3516                 1.2066                 1.4330
 IR Inten    --     16.2741                 8.0869                 2.8217

                     28                     29                     30
                      A                      A                      A
 Frequencies --   1222.1654              1246.8575              1260.9279
 Red. masses --      1.4310                 1.6778                 1.6457
 Frc consts  --      1.2593                 1.5368                 1.5416
 IR Inten    --      7.1733                 2.3372                 3.3101

                     31                     32                     33
                      A                      A                      A
 Frequencies --   1269.9166              1287.8488              1302.5274
 Red. masses --      1.4348                 1.3823                 1.4437
 Frc consts  --      1.3633                 1.3508                 1.4431
 IR Inten    --      1.0121                 1.2360                 2.6178

                     34                     35                     36
                      A                      A                      A
 Frequencies --   1334.5123              1349.9937              1381.6055
 Red. masses --      1.4742                 1.3043                 1.8614
 Frc consts  --      1.5468                 1.4005                 2.0934
 IR Inten    --      9.6095                 2.2585                 1.3560

                     37                     38                     39
                      A                      A                      A
 Frequencies --   1399.1202              1458.9085              1499.9542
 Red. masses --      1.5381                 1.1136                 1.0871
 Frc consts  --      1.7740                 1.3964                 1.4410
 IR Inten    --      8.0495                 3.7535                 0.2369

                     40                     41                     42
                      A                      A                      A
 Frequencies --   1512.7914              1521.8082              2946.9328
 Red. masses --      1.1001                 1.1007                 1.0713
 Frc consts  --      1.4834                 1.5018                 5.4813
 IR Inten    --      1.0460                 0.5412                57.5765

                     43                     44                     45
                      A                      A                      A
 Frequencies --   2972.4631              2993.4828              3046.3439
 Red. masses --      1.0711                 1.0597                 1.1048
 Frc consts  --      5.5757                 5.5950                 6.0407
 IR Inten    --     76.2832                88.5113                43.5918

                     46                     47                     48
                      A                      A                      A
 Frequencies --   3049.9166              3063.7136              3082.9085
 Red. masses --      1.0662                 1.0827                 1.0893
 Frc consts  --      5.8435                 5.9875                 6.0998
 IR Inten    --     20.1753                55.5442                47.5219

                     49                     50                     51
                      A                      A                      A
 Frequencies --   3086.4630              3087.3869              3119.5801
 Red. masses --      1.0917                 1.0909                 1.1051
 Frc consts  --      6.1276                 6.1265                 6.3363
 IR Inten    --      8.4900                23.9898                21.3402

 - Thermochemistry -
 -------------------
 Temperature   298.150 Kelvin.  Pressure   1.00000 Atm.
 Atom     1 has atomic number  6 and mass  12.00000

 Molecular mass:   126.06808 amu.
 Principal axes and moments of inertia in atomic units:
                           1         2         3
     Eigenvalues --   560.760001129.897781369.80997
           X            0.99978   0.01944   0.00792
           Y           -0.01935   0.99974  -0.01193
           Z           -0.00815   0.01177   0.99990
 This molecule is an asymmetric top.
 Rotational symmetry number  1.
 Warning -- assumption of classical behavior for rotation
           may cause significant error
 Rotational temperatures (Kelvin)      0.15446     0.07666     0.06323
 Rotational constants (GHZ):           3.21838     1.59726     1.31751
 Zero-point vibrational energy     424190.7 (Joules/Mol)
                                  101.38402 (Kcal/Mol)
 Warning -- explicit consideration of   7 degrees of freedom as
           vibrations may cause significant error
 Vibrational temperatures:    146.71   279.60   347.85   475.63   505.36
          (Kelvin)            577.41   661.91   916.40   998.08  1049.97
                             1145.82  1221.67  1254.99  1270.23  1343.03
                             1366.96  1404.76  1438.47  1454.76  1493.61
                             1555.32  1571.51  1628.29  1635.86  1659.68
                             1702.51  1713.70  1758.42  1793.95  1814.19
                             1827.12  1852.92  1874.04  1920.06  1942.34
                             1987.82  2013.02  2099.04  2158.10  2176.57
                             2189.54  4239.97  4276.71  4306.95  4383.00
                             4388.14  4407.99  4435.61  4440.73  4442.06
                             4488.37

 Zero-point correction=                           0.161566 (Hartree/Particle)
 Thermal correction to Energy=                    0.168643
 Thermal correction to Enthalpy=                  0.169588
 Thermal correction to Gibbs Free Energy=         0.130075
 Sum of electronic and zero-point Energies=           -422.991710
 Sum of electronic and thermal Energies=              -422.984632
 Sum of electronic and thermal Enthalpies=            -422.983688
 Sum of electronic and thermal Free Energies=         -423.023200

                     E (Thermal)             CV                S
                      KCal/Mol        Cal/Mol-Kelvin    Cal/Mol-Kelvin
 Total                  105.825             28.294             83.160
 Electronic               0.000              0.000              0.000
 Translational            0.889              2.981             40.409
 Rotational               0.889              2.981             28.253
 Vibrational            104.048             22.333             14.499
 Vibration     1          0.604              1.948              3.416
 Vibration     2          0.635              1.848              2.186
 Vibration     3          0.658              1.776              1.790
 Vibration     4          0.713              1.614              1.257
 Vibration     5          0.728              1.573              1.161
 Vibration     6          0.767              1.467              0.958
 Vibration     7          0.818              1.339              0.766

 Normal termination of Gaussian 09 at Mon Jan 27 13:01:31 2020.
