 Gaussian 09, Revision D.01,
 Gaussian 09:  ES64L-G09RevD.01 24-Apr-2013

 -----------------------------
 # b3lyp 6-31G(2df,p) opt Freq
 -----------------------------

 -----
 titel
 -----
 Symbolic Z-matrix:
 Charge =  0 Multiplicity = 1

 SCF Done:  E(RB3LYP) =  -423.166199859     A.U. after   14 cycles
 Optimization completed.
    -- Stationary point found.
 Normal termination of Gaussian 09 at Tue Jan 28 12:43:42 2020.

 ----------------------------------------------------------------------
 #N Geom=AllCheck Guess=TCheck SCRF=Check GenChk RB3LYP/6-31G(2df,p) Fr
 eq
 ----------------------------------------------------------------------

 Structure from the checkpoint file:  "/scratch/puck/g09_65f49d44-5b84-40d8-a174-af1acdaa4dc2/Gau-92351.chk"
 -----
 titel
 -----
 Charge =  0 Multiplicity = 1

                         Standard orientation:
 ---------------------------------------------------------------------
 Center     Atomic      Atomic             Coordinates (Angstroms)
 Number     Number       Type             X           Y           Z
 ---------------------------------------------------------------------
      1          8           0       -3.220859   -0.058882    0.572871
      2          6           0       -2.369611   -0.582680   -0.444814
      3          6           0       -0.945977   -0.162953   -0.265600
      4          6           0        0.142005   -0.923289   -0.142704
      5          6           0        1.336967   -0.071214    0.020131
      6          6           0        2.515326   -0.411262    0.895255
      7          6           0        2.676882   -0.356687   -0.611459
      8          8           0        0.880823    1.267664    0.026608
      9          6           0       -0.531177    1.286942   -0.180835
     10          1           0       -2.885281   -0.378726    1.417201
     11          1           0       -2.434454   -1.679225   -0.503818
     12          1           0       -2.773531   -0.181472   -1.382573
     13          1           0        0.183987   -2.005317   -0.166224
     14          1           0        2.932013    0.407997    1.470449
     15          1           0        2.536406   -1.375995    1.391368
     16          1           0        3.198902    0.499094   -1.024663
     17          1           0        2.810011   -1.283536   -1.159587
     18          1           0       -1.023327    1.815835    0.647237
     19          1           0       -0.770923    1.837954   -1.105063
 ---------------------------------------------------------------------

 SCF Done:  E(RB3LYP) =  -423.166199859     A.U. after    1 cycles

 The electronic state is 1-A.
 Alpha  occ. eigenvalues --  -19.14037 -19.13698 -10.24205 -10.23727 -10.22882
 Alpha  occ. eigenvalues --  -10.19038 -10.18949 -10.18365 -10.18317  -1.03859
 Alpha  occ. eigenvalues --   -1.01969  -0.84930  -0.80261  -0.70073  -0.67963
 Alpha  occ. eigenvalues --   -0.60363  -0.56555  -0.55967  -0.51405  -0.48415
 Alpha  occ. eigenvalues --   -0.46772  -0.46056  -0.45661  -0.42952  -0.40753
 Alpha  occ. eigenvalues --   -0.37544  -0.36880  -0.35227  -0.33893  -0.32806
 Alpha  occ. eigenvalues --   -0.29699  -0.28214  -0.26678  -0.21180
 Alpha virt. eigenvalues --    0.00658   0.08288   0.09189   0.11175   0.11917
 Alpha virt. eigenvalues --    0.13207   0.13939   0.14778   0.16924   0.17545
 Alpha virt. eigenvalues --    0.18493   0.18650   0.20502   0.21363   0.22605

 Mulliken charges:
               1
     1  O   -0.412007
     2  C   -0.170058
     3  C    0.252602
     4  C   -0.300259
     5  C    0.457225
     6  C   -0.325277
     7  C   -0.324038
     8  O   -0.313612
     9  C   -0.164893
    10  H    0.283774
    11  H    0.095616
    12  H    0.118146
    13  H    0.107459
    14  H    0.126811
    15  H    0.111706
    16  H    0.126692
    17  H    0.112169
    18  H    0.113940
    19  H    0.104003
 Sum of Mulliken charges =   0.00000

 Dipole moment (field-independent basis, Debye):
    X=              0.3609    Y=             -1.8616    Z=              0.1558  Tot=              1.9026
 Quadrupole moment (field-independent basis, Debye-Ang):
   XX=            -58.9433   YY=            -51.8540   ZZ=            -50.5038
   XY=              0.0937   XZ=             -0.1822   YZ=             -0.9984

  Exact polarizability: 106.274  -8.956  73.189   2.945  -0.792  64.042
 Approx polarizability: 142.102 -19.142 111.364   4.047  -1.716  96.494

                      1                      2                      3
                      A                      A                      A
 Frequencies --     54.6424                95.6623               123.9684
 Red. masses --      4.1638                 2.9184                 3.5533
 Frc consts  --      0.0073                 0.0157                 0.0322
 IR Inten    --      0.2751                 4.8718                 0.6952

                      4                      5                      6
                      A                      A                      A
 Frequencies --    212.1795               253.3664               328.5572
 Red. masses --      2.6100                 2.5358                 2.2672
 Frc consts  --      0.0692                 0.0959                 0.1442
 IR Inten    --      3.4442                 2.7295                16.3523

                      7                      8                      9
                      A                      A                      A
 Frequencies --    342.6311               396.2523               451.6854
 Red. masses --      1.6444                 1.6197                 3.9225
 Frc consts  --      0.1137                 0.1498                 0.4715
 IR Inten    --     45.7496                67.0268                 0.9463

                     10                     11                     12
                      A                      A                      A
 Frequencies --    539.9410               566.2162               657.8084
 Red. masses --      3.0331                 3.7075                 4.1299
 Frc consts  --      0.5210                 0.7003                 1.0529
 IR Inten    --      0.2158                 1.9000                18.2234

                     13                     14                     15
                      A                      A                      A
 Frequencies --    764.6074               833.0645               839.3677
 Red. masses --      1.0476                 2.1988                 2.3805
 Frc consts  --      0.3608                 0.8991                 0.9881
 IR Inten    --      1.5963                 5.8593                 8.0125

                     16                     17                     18
                      A                      A                      A
 Frequencies --    890.2295               906.3587               912.5094
 Red. masses --      2.0403                 1.5083                 2.6741
 Frc consts  --      0.9527                 0.7300                 1.3119
 IR Inten    --      4.2919                18.9371                11.2263

                     19                     20                     21
                      A                      A                      A
 Frequencies --    917.4510               968.4838               976.4210
 Red. masses --      3.2867                 1.7738                 2.2754
 Frc consts  --      1.6300                 0.9802                 1.2781
 IR Inten    --     24.3239                23.7807                31.8716

                     22                     23                     24
                      A                      A                      A
 Frequencies --   1043.6420              1048.0157              1053.4392
 Red. masses --      2.3555                 1.6555                 2.2466
 Frc consts  --      1.5116                 1.0713                 1.4689
 IR Inten    --     55.5008                 0.5279                15.1704

                     25                     26                     27
                      A                      A                      A
 Frequencies --   1063.0352              1085.1156              1157.3981
 Red. masses --      1.4286                 5.6618                 2.2371
 Frc consts  --      0.9512                 3.9279                 1.7657
 IR Inten    --      1.2670                76.3636                 3.7761

                     28                     29                     30
                      A                      A                      A
 Frequencies --   1182.7875              1192.0846              1199.2125
 Red. masses --      1.0770                 1.2746                 1.1397
 Frc consts  --      0.8878                 1.0672                 0.9656
 IR Inten    --      6.1000                 0.0586                11.2706

                     31                     32                     33
                      A                      A                      A
 Frequencies --   1245.6380              1312.1791              1357.3846
 Red. masses --      1.6810                 3.0564                 1.4152
 Frc consts  --      1.5368                 3.1006                 1.5363
 IR Inten    --     22.8197                31.8745                 3.2091

                     34                     35                     36
                      A                      A                      A
 Frequencies --   1386.2922              1394.5632              1416.3728
 Red. masses --      1.8149                 1.9298                 1.2457
 Frc consts  --      2.0550                 2.2112                 1.4724
 IR Inten    --      4.0595                 1.2698                87.5469

                     37                     38                     39
                      A                      A                      A
 Frequencies --   1448.8107              1489.6721              1497.6021
 Red. masses --      1.0893                 1.4974                 1.1004
 Frc consts  --      1.3471                 1.9578                 1.4541
 IR Inten    --      1.2994                 7.8908                 1.4278

                     40                     41                     42
                      A                      A                      A
 Frequencies --   1523.4196              1717.2886              2969.4444
 Red. masses --      1.0877                 7.8422                 1.0692
 Frc consts  --      1.4873                13.6262                 5.5547
 IR Inten    --      3.3915                 2.6213                77.4499

                     43                     44                     45
                      A                      A                      A
 Frequencies --   2994.3033              3013.9359              3050.9629
 Red. masses --      1.0650                 1.0918                 1.0970
 Frc consts  --      5.6258                 5.8434                 6.0165
 IR Inten    --     53.8106                42.7137                30.3958

                     46                     47                     48
                      A                      A                      A
 Frequencies --   3129.3005              3131.7926              3210.2694
 Red. masses --      1.0503                 1.0581                 1.0957
 Frc consts  --      6.0596                 6.1143                 6.6528
 IR Inten    --     16.3581                 7.8625                 4.1555

                     49                     50                     51
                      A                      A                      A
 Frequencies --   3215.3974              3230.3491              3807.0447
 Red. masses --      1.1184                 1.1156                 1.0662
 Frc consts  --      6.8125                 6.8591                 9.1050
 IR Inten    --      0.2833                10.2981                16.0711

 - Thermochemistry -
 -------------------
 Temperature   298.150 Kelvin.  Pressure   1.00000 Atm.
 Atom     1 has atomic number  8 and mass  15.99491

 Molecular mass:   126.06808 amu.
 Principal axes and moments of inertia in atomic units:
                           1         2         3
     Eigenvalues --   418.706511915.208062079.35194
           X            0.99997  -0.00538   0.00520
           Y            0.00542   0.99996  -0.00656
           Z           -0.00516   0.00659   0.99996
 This molecule is an asymmetric top.
 Rotational symmetry number  1.
 Rotational temperatures (Kelvin)      0.20686     0.04522     0.04165
 Rotational constants (GHZ):           4.31028     0.94232     0.86793
 Zero-point vibrational energy     416289.4 (Joules/Mol)
                                   99.49556 (Kcal/Mol)
 Warning -- explicit consideration of  11 degrees of freedom as
           vibrations may cause significant error
 Vibrational temperatures:     78.62   137.64   178.36   305.28   364.54
          (Kelvin)            472.72   492.97   570.12   649.87   776.85
                              814.66   946.44  1100.10  1198.59  1207.66
                             1280.84  1304.05  1312.90  1320.01  1393.43
                             1404.85  1501.57  1507.86  1515.66  1529.47
                             1561.24  1665.24  1701.77  1715.14  1725.40
                             1792.19  1887.93  1952.97  1994.56  2006.46
                             2037.84  2084.51  2143.30  2154.71  2191.86
                             2470.79  4272.36  4308.13  4336.38  4389.65
                             4502.36  4505.95  4618.86  4626.23  4647.75
                             5477.48

 Zero-point correction=                           0.158556 (Hartree/Particle)
 Thermal correction to Energy=                    0.167324
 Thermal correction to Enthalpy=                  0.168268
 Thermal correction to Gibbs Free Energy=         0.124545
 Sum of electronic and zero-point Energies=           -423.007644
 Sum of electronic and thermal Energies=              -422.998876
 Sum of electronic and thermal Enthalpies=            -422.997932
 Sum of electronic and thermal Free Energies=         -423.041655

                     E (Thermal)             CV                S
                      KCal/Mol        Cal/Mol-Kelvin    Cal/Mol-Kelvin
 Total                  104.997             32.860             92.022
 Electronic               0.000              0.000              0.000
 Translational            0.889              2.981             40.409
 Rotational               0.889              2.981             28.902
 Vibrational            103.220             26.898             22.712
 Vibration     1          0.596              1.976              4.642
 Vibration     2          0.603              1.952              3.541
 Vibration     3          0.610              1.929              3.038
 Vibration     4          0.643              1.822              2.025
 Vibration     5          0.665              1.757              1.707
 Vibration     6          0.712              1.618              1.267
 Vibration     7          0.722              1.590              1.200
 Vibration     8          0.763              1.478              0.977
 Vibration     9          0.810              1.357              0.791
 Vibration    10          0.895              1.162              0.565
 Vibration    11          0.922              1.104              0.512

 Normal termination of Gaussian 09 at Tue Jan 28 14:07:17 2020.
