 Gaussian 09, Revision D.01,
 Gaussian 09:  ES64L-G09RevD.01 24-Apr-2013

 -----------------------------
 # b3lyp 6-31G(2df,p) opt Freq
 -----------------------------

 -----
 titel
 -----
 Symbolic Z-matrix:
 Charge =  0 Multiplicity = 1

 SCF Done:  E(RB3LYP) =  -423.194994200     A.U. after   14 cycles
 Optimization completed.
    -- Stationary point found.
 Normal termination of Gaussian 09 at Tue Jan 28 03:17:09 2020.

 ----------------------------------------------------------------------
 #N Geom=AllCheck Guess=TCheck SCRF=Check GenChk RB3LYP/6-31G(2df,p) Fr
 eq
 ----------------------------------------------------------------------

 Structure from the checkpoint file:  "/scratch/puck/g09_54073a58-955c-4639-87c3-f614a2c7519d/Gau-1278.chk"
 -----
 titel
 -----
 Charge =  0 Multiplicity = 1

                         Standard orientation:
 ---------------------------------------------------------------------
 Center     Atomic      Atomic             Coordinates (Angstroms)
 Number     Number       Type             X           Y           Z
 ---------------------------------------------------------------------
      1          6           0       -2.786123   -0.852046   -0.159653
      2          6           0       -1.611045   -0.011335    0.308235
      3          6           0       -1.154253    1.098049   -0.672857
      4          6           0        0.350989    1.154434   -0.492068
      5          6           0        0.906149    1.194402    0.904016
      6          6           0        0.693609   -0.146016    0.227539
      7          8           0       -0.471614   -0.868785    0.497819
      8          6           0        1.847612   -0.975612   -0.180788
      9          8           0        2.958302   -0.540356   -0.374030
     10          1           0       -3.006735   -1.639921    0.565557
     11          1           0       -3.679121   -0.229286   -0.272082
     12          1           0       -2.562640   -1.320918   -1.122738
     13          1           0       -1.859968    0.446199    1.276735
     14          1           0       -1.387098    0.818047   -1.706189
     15          1           0       -1.658780    2.045595   -0.461029
     16          1           0        0.978510    1.491916   -1.308283
     17          1           0        1.942798    1.495031    1.006047
     18          1           0        0.258565    1.445990    1.736832
     19          1           0        1.599348   -2.050772   -0.311712
 ---------------------------------------------------------------------

 SCF Done:  E(RB3LYP) =  -423.194994200     A.U. after    1 cycles

 The electronic state is 1-A.
 Alpha  occ. eigenvalues --  -19.15249 -19.13379 -10.26728 -10.24646 -10.24510
 Alpha  occ. eigenvalues --  -10.20852 -10.19890 -10.19808 -10.18469  -1.05877
 Alpha  occ. eigenvalues --   -1.03864  -0.86199  -0.79350  -0.71133  -0.67544
 Alpha  occ. eigenvalues --   -0.60860  -0.58004  -0.55299  -0.51704  -0.49794
 Alpha  occ. eigenvalues --   -0.46346  -0.44458  -0.42912  -0.41855  -0.40776
 Alpha  occ. eigenvalues --   -0.40134  -0.39127  -0.38750  -0.35580  -0.33653
 Alpha  occ. eigenvalues --   -0.32346  -0.30629  -0.25184  -0.24111
 Alpha virt. eigenvalues --   -0.02455   0.08547   0.09261   0.11041   0.12124
 Alpha virt. eigenvalues --    0.12840   0.14213   0.15377   0.15872   0.17139
 Alpha virt. eigenvalues --    0.17363   0.18849   0.19001   0.20759   0.22507

 Mulliken charges:
               1
     1  C   -0.405985
     2  C    0.127776
     3  C   -0.255655
     4  C   -0.096591
     5  C   -0.344829
     6  C    0.335177
     7  O   -0.317723
     8  C    0.087070
     9  O   -0.275127
    10  H    0.130934
    11  H    0.119435
    12  H    0.124388
    13  H    0.080633
    14  H    0.110414
    15  H    0.112897
    16  H    0.114428
    17  H    0.143379
    18  H    0.123205
    19  H    0.086174
 Sum of Mulliken charges =   0.00000

 Dipole moment (field-independent basis, Debye):
    X=             -3.0875    Y=              1.1781    Z=             -0.0467  Tot=              3.3050
 Quadrupole moment (field-independent basis, Debye-Ang):
   XX=            -60.0085   YY=            -52.4845   ZZ=            -51.9460
   XY=              0.1910   XZ=              1.5681   YZ=              0.8270

  Exact polarizability:  91.815  -0.885  74.966  -0.101   2.120  63.212
 Approx polarizability: 124.785  -2.140 112.962  -2.228   1.407  97.731

                      1                      2                      3
                      A                      A                      A
 Frequencies --     94.0653               128.0070               187.1693
 Red. masses --      4.2283                 3.3695                 2.1879
 Frc consts  --      0.0220                 0.0325                 0.0452
 IR Inten    --      0.5318                 6.5059                 2.6478

                      4                      5                      6
                      A                      A                      A
 Frequencies --    207.7319               241.1082               309.0569
 Red. masses --      2.5776                 1.2332                 2.6529
 Frc consts  --      0.0655                 0.0422                 0.1493
 IR Inten    --      5.9687                 1.3116                 5.1715

                      7                      8                      9
                      A                      A                      A
 Frequencies --    374.5321               395.3730               434.6844
 Red. masses --      2.5092                 3.0577                 2.8332
 Frc consts  --      0.2074                 0.2816                 0.3154
 IR Inten    --      1.6395                 1.0821                 1.3853

                     10                     11                     12
                      A                      A                      A
 Frequencies --    535.2286               625.7334               699.3627
 Red. masses --      3.4365                 2.9349                 4.2081
 Frc consts  --      0.5800                 0.6770                 1.2127
 IR Inten    --      2.2243                 1.6573                18.1922

                     13                     14                     15
                      A                      A                      A
 Frequencies --    726.5261               797.7140               841.8617
 Red. masses --      4.0978                 4.2873                 2.6030
 Frc consts  --      1.2744                 1.6074                 1.0869
 IR Inten    --      5.4343                 9.6205                 6.9893

                     16                     17                     18
                      A                      A                      A
 Frequencies --    867.9372               904.0364               921.0683
 Red. masses --      1.7521                 1.8716                 1.7259
 Frc consts  --      0.7777                 0.9012                 0.8627
 IR Inten    --     15.5823                31.8560                 1.6986

                     19                     20                     21
                      A                      A                      A
 Frequencies --    951.2390               995.2402              1043.5864
 Red. masses --      1.6987                 1.6151                 1.3676
 Frc consts  --      0.9056                 0.9426                 0.8775
 IR Inten    --     13.7061                 7.6702                 3.2222

                     22                     23                     24
                      A                      A                      A
 Frequencies --   1054.4404              1072.5691              1085.4276
 Red. masses --      1.3334                 1.5687                 2.5391
 Frc consts  --      0.8735                 1.0632                 1.7625
 IR Inten    --     20.1327                 3.2911                55.1666

                     25                     26                     27
                      A                      A                      A
 Frequencies --   1106.9335              1149.1439              1154.2162
 Red. masses --      2.5645                 2.0676                 1.9968
 Frc consts  --      1.8513                 1.6086                 1.5673
 IR Inten    --     58.3841                 7.0879                10.2275

                     28                     29                     30
                      A                      A                      A
 Frequencies --   1220.1123              1235.1877              1278.0669
 Red. masses --      1.3921                 2.8653                 1.8670
 Frc consts  --      1.2210                 2.5757                 1.7968
 IR Inten    --      3.9480                92.1332                13.7915

                     31                     32                     33
                      A                      A                      A
 Frequencies --   1310.8233              1366.6988              1381.4985
 Red. masses --      1.5300                 1.3901                 1.6734
 Frc consts  --      1.5490                 1.5299                 1.8817
 IR Inten    --      2.1591                 9.7007                21.1784

                     34                     35                     36
                      A                      A                      A
 Frequencies --   1394.8863              1408.7076              1425.8402
 Red. masses --      1.3943                 1.3208                 1.5798
 Frc consts  --      1.5985                 1.5443                 1.8923
 IR Inten    --      9.1946                16.3340                 7.3312

                     37                     38                     39
                      A                      A                      A
 Frequencies --   1462.3573              1484.4237              1492.4970
 Red. masses --      1.2998                 1.0549                 1.0996
 Frc consts  --      1.6377                 1.3695                 1.4431
 IR Inten    --     20.8872                 2.6270                 2.1598

                     40                     41                     42
                      A                      A                      A
 Frequencies --   1498.5481              1810.4301              2907.6766
 Red. masses --      1.0519                10.0798                 1.0840
 Frc consts  --      1.3918                19.4656                 5.3996
 IR Inten    --      3.5690               164.9046                97.5550

                     43                     44                     45
                      A                      A                      A
 Frequencies --   2990.0663              3040.5849              3044.8327
 Red. masses --      1.0835                 1.0402                 1.0546
 Frc consts  --      5.7075                 5.6661                 5.7607
 IR Inten    --     33.9197                 8.4612                33.8922

                     46                     47                     48
                      A                      A                      A
 Frequencies --   3089.7964              3115.7232              3122.0106
 Red. masses --      1.1041                 1.1017                 1.1021
 Frc consts  --      6.2103                 6.3012                 6.3293
 IR Inten    --     17.0579                23.1969                19.3713

                     49                     50                     51
                      A                      A                      A
 Frequencies --   3136.8190              3186.5882              3232.9332
 Red. masses --      1.0535                 1.0912                 1.1173
 Frc consts  --      6.1072                 6.5281                 6.8804
 IR Inten    --      7.5079                 5.0224                 1.7391

 - Thermochemistry -
 -------------------
 Temperature   298.150 Kelvin.  Pressure   1.00000 Atm.
 Atom     1 has atomic number  6 and mass  12.00000

 Molecular mass:   126.06808 amu.
 Principal axes and moments of inertia in atomic units:
                           1         2         3
     Eigenvalues --   514.734941519.082341754.77007
           X            0.99979   0.01758   0.01062
           Y           -0.01783   0.99955   0.02392
           Z           -0.01020  -0.02410   0.99966
 This molecule is an asymmetric top.
 Rotational symmetry number  1.
 Warning -- assumption of classical behavior for rotation
           may cause significant error
 Rotational temperatures (Kelvin)      0.16827     0.05702     0.04936
 Rotational constants (GHZ):           3.50616     1.18805     1.02848
 Zero-point vibrational energy     415948.2 (Joules/Mol)
                                   99.41400 (Kcal/Mol)
 Warning -- explicit consideration of  10 degrees of freedom as
           vibrations may cause significant error
 Vibrational temperatures:    135.34   184.17   269.29   298.88   346.90
          (Kelvin)            444.66   538.87   568.85   625.41   770.07
                              900.29  1006.23  1045.31  1147.73  1211.25
                             1248.77  1300.71  1325.21  1368.62  1431.93
                             1501.49  1517.10  1543.19  1561.69  1592.63
                             1653.36  1660.66  1755.47  1777.16  1838.85
                             1885.98  1966.37  1987.67  2006.93  2026.81
                             2051.46  2104.00  2135.75  2147.37  2156.07
                             2604.80  4183.49  4302.03  4374.72  4380.83
                             4445.52  4482.83  4491.87  4513.18  4584.78
                             4651.46

 Zero-point correction=                           0.158426 (Hartree/Particle)
 Thermal correction to Energy=                    0.166898
 Thermal correction to Enthalpy=                  0.167842
 Thermal correction to Gibbs Free Energy=         0.125392
 Sum of electronic and zero-point Energies=           -423.036568
 Sum of electronic and thermal Energies=              -423.028097
 Sum of electronic and thermal Enthalpies=            -423.027152
 Sum of electronic and thermal Free Energies=         -423.069602

                     E (Thermal)             CV                S
                      KCal/Mol        Cal/Mol-Kelvin    Cal/Mol-Kelvin
 Total                  104.730             32.245             89.343
 Electronic               0.000              0.000              0.000
 Translational            0.889              2.981             40.409
 Rotational               0.889              2.981             28.708
 Vibrational            102.952             26.284             20.226
 Vibration     1          0.603              1.953              3.574
 Vibration     2          0.611              1.925              2.976
 Vibration     3          0.632              1.857              2.256
 Vibration     4          0.641              1.829              2.064
 Vibration     5          0.658              1.777              1.795
 Vibration     6          0.698              1.656              1.367
 Vibration     7          0.746              1.524              1.061
 Vibration     8          0.762              1.480              0.980
 Vibration     9          0.795              1.395              0.843
 Vibration    10          0.890              1.172              0.576

 Optimization completed.
    -- Stationary point found.
 Normal termination of Gaussian 09 at Tue Jan 28 03:58:53 2020.
