 Gaussian 09, Revision D.01,
 Gaussian 09:  ES64L-G09RevD.01 24-Apr-2013

 -----------------------------
 # b3lyp 6-31G(2df,p) opt Freq
 -----------------------------

 -----
 titel
 -----
 Symbolic Z-matrix:
 Charge =  0 Multiplicity = 1

 SCF Done:  E(RB3LYP) =  -423.233889254     A.U. after   14 cycles
 Optimization completed.
    -- Stationary point found.
 Normal termination of Gaussian 09 at Mon Jan 27 18:30:44 2020.

 ----------------------------------------------------------------------
 #N Geom=AllCheck Guess=TCheck SCRF=Check GenChk RB3LYP/6-31G(2df,p) Fr
 eq
 ----------------------------------------------------------------------

 Structure from the checkpoint file:  "/scratch/puck/g09_24a6750a-211a-47f6-86fd-78bad9b86803/Gau-42516.chk"
 -----
 titel
 -----
 Charge =  0 Multiplicity = 1

                         Standard orientation:
 ---------------------------------------------------------------------
 Center     Atomic      Atomic             Coordinates (Angstroms)
 Number     Number       Type             X           Y           Z
 ---------------------------------------------------------------------
      1          8           0        1.601117   -1.423683    0.348481
      2          6           0        0.473322   -0.636944    0.149428
      3          6           0       -0.475444   -1.117221   -0.993844
      4          6           0       -1.801960   -0.351754   -0.719646
      5          6           0       -1.453233    0.517100    0.515074
      6          6           0       -0.463599    1.622569    0.073210
      7          6           0        0.811551    0.815200   -0.166768
      8          8           0        1.911821    1.196086   -0.485136
      9          6           0       -0.528567   -0.431735    1.314392
     10          1           0        2.355376   -0.875002    0.082216
     11          1           0       -0.053014   -0.920821   -1.982979
     12          1           0       -0.589228   -2.200045   -0.895881
     13          1           0       -2.126079    0.254597   -1.570179
     14          1           0       -2.616630   -1.042610   -0.485540
     15          1           0       -2.322344    0.898973    1.051221
     16          1           0       -0.766502    2.184314   -0.815513
     17          1           0       -0.274759    2.349711    0.871547
     18          1           0       -0.068625    0.032362    2.192178
     19          1           0       -1.014123   -1.363987    1.615099
 ---------------------------------------------------------------------

 SCF Done:  E(RB3LYP) =  -423.233889254     A.U. after    1 cycles

 The electronic state is 1-A.
 Alpha  occ. eigenvalues --  -19.14341 -19.13648 -10.26984 -10.23909 -10.20237
 Alpha  occ. eigenvalues --  -10.19820 -10.19127 -10.18965 -10.18888  -1.05828
 Alpha  occ. eigenvalues --   -1.01926  -0.87719  -0.74952  -0.71741  -0.69803
 Alpha  occ. eigenvalues --   -0.60126  -0.56947  -0.55182  -0.50332  -0.48438
 Alpha  occ. eigenvalues --   -0.47303  -0.46013  -0.42140  -0.41064  -0.39131
 Alpha  occ. eigenvalues --   -0.38417  -0.37597  -0.36512  -0.35367  -0.34944
 Alpha  occ. eigenvalues --   -0.33370  -0.32150  -0.26277  -0.24741
 Alpha virt. eigenvalues --   -0.02097   0.07297   0.09776   0.11289   0.13028
 Alpha virt. eigenvalues --    0.14123   0.15263   0.15720   0.16589   0.16797
 Alpha virt. eigenvalues --    0.17564   0.18908   0.20357   0.21083   0.23174

 Mulliken charges:
               1
     1  O   -0.507790
     2  C    0.349054
     3  C   -0.264994
     4  C   -0.215920
     5  C   -0.026494
     6  C   -0.333903
     7  C    0.373432
     8  O   -0.353921
     9  C   -0.285052
    10  H    0.287575
    11  H    0.109893
    12  H    0.117601
    13  H    0.100262
    14  H    0.104635
    15  H    0.072257
    16  H    0.128151
    17  H    0.133704
    18  H    0.104051
    19  H    0.107462
 Sum of Mulliken charges =   0.00000

 Dipole moment (field-independent basis, Debye):
    X=             -2.7112    Y=              0.5452    Z=              0.2184  Tot=              2.7741
 Quadrupole moment (field-independent basis, Debye-Ang):
   XX=            -55.6992   YY=            -55.6634   ZZ=            -52.1217
   XY=             -1.1113   XZ=              0.5407   YZ=              2.0300

  Exact polarizability:  80.300   1.047  74.469  -1.093   0.267  66.522
 Approx polarizability: 119.671   4.283 109.555  -4.007  -2.446  99.947

                      1                      2                      3
                      A                      A                      A
 Frequencies --    114.8131               206.4364               290.9450
 Red. masses --      4.2074                 2.0317                 5.6893
 Frc consts  --      0.0327                 0.0510                 0.2837
 IR Inten    --      0.7226                 0.9108                18.9838

                      4                      5                      6
                      A                      A                      A
 Frequencies --    349.6487               361.1893               416.3110
 Red. masses --      4.2401                 1.9064                 1.7564
 Frc consts  --      0.3054                 0.1465                 0.1794
 IR Inten    --     20.6898                 0.4179                12.5356

                      7                      8                      9
                      A                      A                      A
 Frequencies --    419.3810               500.1481               517.3836
 Red. masses --      1.2525                 3.9745                 3.7181
 Frc consts  --      0.1298                 0.5858                 0.5864
 IR Inten    --     29.9795                 2.7174                 4.3359

                     10                     11                     12
                      A                      A                      A
 Frequencies --    606.8408               636.7544               705.8508
 Red. masses --      2.3529                 5.3927                 3.6082
 Frc consts  --      0.5105                 1.2882                 1.0592
 IR Inten    --      4.2827                 1.3894                 3.5047

                     13                     14                     15
                      A                      A                      A
 Frequencies --    748.9625               818.5112               852.2695
 Red. masses --      3.7022                 1.4311                 2.3972
 Frc consts  --      1.2236                 0.5649                 1.0259
 IR Inten    --      7.2520                 0.7285                 0.7334

                     16                     17                     18
                      A                      A                      A
 Frequencies --    890.2514               921.5835               928.9888
 Red. masses --      2.6410                 2.0341                 1.8701
 Frc consts  --      1.2332                 1.0178                 0.9509
 IR Inten    --      2.5380                 0.6667                 3.9185

                     19                     20                     21
                      A                      A                      A
 Frequencies --    947.0263               981.7522               995.0610
 Red. masses --      2.2994                 2.2260                 1.7777
 Frc consts  --      1.2150                 1.2641                 1.0371
 IR Inten    --      2.0295                 2.9057                 5.6177

                     22                     23                     24
                      A                      A                      A
 Frequencies --   1040.8953              1077.8897              1106.5097
 Red. masses --      1.7187                 2.3111                 2.4499
 Frc consts  --      1.0972                 1.5820                 1.7673
 IR Inten    --      5.1617                35.0146                33.9734

                     25                     26                     27
                      A                      A                      A
 Frequencies --   1130.1159              1142.7910              1192.8015
 Red. masses --      1.2831                 1.5323                 1.5442
 Frc consts  --      0.9655                 1.1791                 1.2945
 IR Inten    --     13.4227                 2.8490                91.9137

                     28                     29                     30
                      A                      A                      A
 Frequencies --   1196.7750              1239.1774              1250.8544
 Red. masses --      1.6849                 1.5082                 1.2339
 Frc consts  --      1.4219                 1.3645                 1.1374
 IR Inten    --     11.2673                 0.3804                 6.3818

                     31                     32                     33
                      A                      A                      A
 Frequencies --   1272.9531              1287.2264              1327.6987
 Red. masses --      1.5772                 1.8798                 1.5879
 Frc consts  --      1.5058                 1.8351                 1.6492
 IR Inten    --      1.0497                 6.3241                 2.9700

                     34                     35                     36
                      A                      A                      A
 Frequencies --   1341.6487              1358.5140              1417.6588
 Red. masses --      1.4715                 2.5571                 1.4651
 Frc consts  --      1.5606                 2.7805                 1.7349
 IR Inten    --      5.4968                23.1783                53.3435

                     37                     38                     39
                      A                      A                      A
 Frequencies --   1444.0182              1490.2327              1494.7880
 Red. masses --      1.0903                 1.0780                 1.0973
 Frc consts  --      1.3395                 1.4105                 1.4446
 IR Inten    --     14.1662                 0.6760                 4.3395

                     40                     41                     42
                      A                      A                      A
 Frequencies --   1517.5486              1840.5864              3046.3340
 Red. masses --      1.1132                12.5395                 1.0615
 Frc consts  --      1.5104                25.0289                 5.8039
 IR Inten    --      1.1808               211.4956                11.1798

                     43                     44                     45
                      A                      A                      A
 Frequencies --   3052.8943              3056.0805              3063.8490
 Red. masses --      1.0589                 1.0584                 1.0605
 Frc consts  --      5.8146                 5.8244                 5.8653
 IR Inten    --     31.0712                24.5130                23.1012

                     46                     47                     48
                      A                      A                      A
 Frequencies --   3089.2462              3094.7327              3108.5355
 Red. masses --      1.1067                 1.1012                 1.0993
 Frc consts  --      6.2231                 6.2140                 6.2588
 IR Inten    --      2.6743                 8.0122                15.9840

                     49                     50                     51
                      A                      A                      A
 Frequencies --   3109.4209              3112.4856              3699.4158
 Red. masses --      1.0984                 1.1048                 1.0652
 Frc consts  --      6.2571                 6.3061                 8.5887
 IR Inten    --     26.5847                45.0962                49.6049

 - Thermochemistry -
 -------------------
 Temperature   298.150 Kelvin.  Pressure   1.00000 Atm.
 Atom     1 has atomic number  8 and mass  15.99491

 Molecular mass:   126.06808 amu.
 Principal axes and moments of inertia in atomic units:
                           1         2         3
     Eigenvalues --   743.47996 974.642901248.50316
           X            0.99965  -0.02413   0.01072
           Y            0.02371   0.99902   0.03738
           Z           -0.01162  -0.03711   0.99924
 This molecule is an asymmetric top.
 Rotational symmetry number  1.
 Warning -- assumption of classical behavior for rotation
           may cause significant error
 Rotational temperatures (Kelvin)      0.11650     0.08887     0.06937
 Rotational constants (GHZ):           2.42742     1.85169     1.44552
 Zero-point vibrational energy     423560.5 (Joules/Mol)
                                  101.23339 (Kcal/Mol)
 Warning -- explicit consideration of  10 degrees of freedom as
           vibrations may cause significant error
 Vibrational temperatures:    165.19   297.02   418.60   503.07   519.67
          (Kelvin)            598.98   603.39   719.60   744.40   873.11
                              916.15  1015.56  1077.59  1177.65  1226.22
                             1280.87  1325.95  1336.61  1362.56  1412.52
                             1431.67  1497.61  1550.84  1592.02  1625.98
                             1644.22  1716.17  1721.89  1782.90  1799.70
                             1831.49  1852.03  1910.26  1930.33  1954.60
                             2039.69  2077.62  2144.11  2150.66  2183.41
                             2648.19  4382.99  4392.43  4397.01  4408.19
                             4444.73  4452.62  4472.48  4473.76  4478.17
                             5322.63

 Zero-point correction=                           0.161326 (Hartree/Particle)
 Thermal correction to Energy=                    0.168764
 Thermal correction to Enthalpy=                  0.169708
 Thermal correction to Gibbs Free Energy=         0.129841
 Sum of electronic and zero-point Energies=           -423.072564
 Sum of electronic and thermal Energies=              -423.065125
 Sum of electronic and thermal Enthalpies=            -423.064181
 Sum of electronic and thermal Free Energies=         -423.104048

                     E (Thermal)             CV                S
                      KCal/Mol        Cal/Mol-Kelvin    Cal/Mol-Kelvin
 Total                  105.901             30.576             83.908
 Electronic               0.000              0.000              0.000
 Translational            0.889              2.981             40.409
 Rotational               0.889              2.981             28.294
 Vibrational            104.124             24.614             15.205
 Vibration     1          0.608              1.937              3.186
 Vibration     2          0.641              1.831              2.075
 Vibration     3          0.687              1.691              1.468
 Vibration     4          0.727              1.576              1.168
 Vibration     5          0.735              1.552              1.117
 Vibration     6          0.780              1.435              0.905
 Vibration     7          0.782              1.428              0.894
 Vibration     8          0.856              1.250              0.658
 Vibration     9          0.872              1.211              0.616
 Vibration    10          0.966              1.017              0.438

 Normal termination of Gaussian 09 at Mon Jan 27 19:27:44 2020.
