 Gaussian 09, Revision D.01,
 Gaussian 09:  ES64L-G09RevD.01 24-Apr-2013

 -----------------------------
 # b3lyp 6-31G(2df,p) opt Freq
 -----------------------------

 -----
 titel
 -----
 Symbolic Z-matrix:
 Charge =  0 Multiplicity = 1

 SCF Done:  E(RB3LYP) =  -423.098245618     A.U. after   14 cycles
 Optimization completed.
    -- Stationary point found.
 Normal termination of Gaussian 09 at Tue Jan 28 09:51:02 2020.

 ----------------------------------------------------------------------
 #N Geom=AllCheck Guess=TCheck SCRF=Check GenChk RB3LYP/6-31G(2df,p) Fr
 eq
 ----------------------------------------------------------------------

 Structure from the checkpoint file:  "/scratch/puck/g09_631aedc1-ddd3-443e-9d15-d3761fd9c392/Gau-96550.chk"
 -----
 titel
 -----
 Charge =  0 Multiplicity = 1

                         Standard orientation:
 ---------------------------------------------------------------------
 Center     Atomic      Atomic             Coordinates (Angstroms)
 Number     Number       Type             X           Y           Z
 ---------------------------------------------------------------------
      1          6           0        2.494322   -1.035469   -0.125448
      2          6           0        1.149666   -0.398843    0.010324
      3          8           0       -0.004010   -1.246907    0.333058
      4          6           0       -0.556775    0.109224    0.233975
      5          6           0       -2.035090    0.232071    0.432604
      6          8           0       -2.735153   -0.559975   -0.509638
      7          6           0        0.670167    0.797243    0.907239
      8          6           0        0.822274    1.806114   -0.251829
      9          6           0        0.350732    0.523244   -0.968951
     10          1           0        2.781209   -1.530444    0.807323
     11          1           0        2.485504   -1.782433   -0.925176
     12          1           0        3.250074   -0.280755   -0.364666
     13          1           0       -2.283563   -0.053277    1.467595
     14          1           0       -2.351264    1.270529    0.286363
     15          1           0       -2.305740   -1.424014   -0.507706
     16          1           0        0.843996    0.919006    1.976978
     17          1           0        0.131010    2.652953   -0.258171
     18          1           0        1.837768    2.145563   -0.473235
     19          1           0        0.152543    0.336420   -2.024162
 ---------------------------------------------------------------------

 SCF Done:  E(RB3LYP) =  -423.098245618     A.U. after    1 cycles

 The electronic state is 1-A.
 Alpha  occ. eigenvalues --  -19.13307 -19.12750 -10.25321 -10.24666 -10.23157
 Alpha  occ. eigenvalues --  -10.20149 -10.19855 -10.19256 -10.18845  -1.06047
 Alpha  occ. eigenvalues --   -1.01410  -0.86722  -0.75434  -0.71215  -0.64881
 Alpha  occ. eigenvalues --   -0.64599  -0.58273  -0.51129  -0.50374  -0.48049
 Alpha  occ. eigenvalues --   -0.46805  -0.45439  -0.43663  -0.42653  -0.40987
 Alpha  occ. eigenvalues --   -0.39959  -0.36838  -0.34994  -0.32465  -0.31102
 Alpha  occ. eigenvalues --   -0.30335  -0.29257  -0.26489  -0.23516
 Alpha virt. eigenvalues --    0.07616   0.09583   0.10717   0.11362   0.12312
 Alpha virt. eigenvalues --    0.13238   0.13600   0.13963   0.15285   0.15323
 Alpha virt. eigenvalues --    0.15999   0.18364   0.19257   0.19737   0.20935

 Mulliken charges:
               1
     1  C   -0.524776
     2  C    0.465277
     3  O   -0.406884
     4  C    0.456385
     5  C   -0.204882
     6  O   -0.416016
     7  C   -0.194182
     8  C   -0.285907
     9  C   -0.169591
    10  H    0.135885
    11  H    0.135902
    12  H    0.130386
    13  H    0.099021
    14  H    0.116404
    15  H    0.295333
    16  H    0.080442
    17  H    0.102233
    18  H    0.099215
    19  H    0.085756
 Sum of Mulliken charges =   0.00000

 Dipole moment (field-independent basis, Debye):
    X=              1.9885    Y=              0.9923    Z=              0.3372  Tot=              2.2478
 Quadrupole moment (field-independent basis, Debye-Ang):
   XX=            -55.4799   YY=            -52.7383   ZZ=            -52.5810
   XY=             -0.9012   XZ=             -2.4951   YZ=              1.3937

  Exact polarizability:  84.220  -1.648  75.119  -0.982   0.863  67.589
 Approx polarizability: 112.314   0.025 113.712   0.668   0.831 105.746

                      1                      2                      3
                      A                      A                      A
 Frequencies --     90.8909               133.1735               203.1060
 Red. masses --      4.0814                 4.1818                 1.0467
 Frc consts  --      0.0199                 0.0437                 0.0254
 IR Inten    --      4.9014                 0.3324                 0.0137

                      4                      5                      6
                      A                      A                      A
 Frequencies --    227.8430               255.8708               288.0625
 Red. masses --      2.1242                 2.2796                 2.8279
 Frc consts  --      0.0650                 0.0879                 0.1383
 IR Inten    --      0.6633                 2.6772                 5.0303

                      7                      8                      9
                      A                      A                      A
 Frequencies --    374.2874               425.0189               500.7463
 Red. masses --      1.4333                 2.0630                 2.6371
 Frc consts  --      0.1183                 0.2196                 0.3896
 IR Inten    --     77.7451                53.9346                 1.8103

                     10                     11                     12
                      A                      A                      A
 Frequencies --    546.4344               621.2242               678.2092
 Red. masses --      4.1345                 3.3887                 3.3864
 Frc consts  --      0.7274                 0.7705                 0.9177
 IR Inten    --      2.3005                 0.9280                17.6269

                     13                     14                     15
                      A                      A                      A
 Frequencies --    733.8454               755.2688               784.9471
 Red. masses --      3.6344                 3.5199                 3.6792
 Frc consts  --      1.1532                 1.1830                 1.3356
 IR Inten    --     10.8163                24.5171                 5.4168

                     16                     17                     18
                      A                      A                      A
 Frequencies --    856.5099               870.4750               919.6738
 Red. masses --      2.2867                 2.2291                 1.9042
 Frc consts  --      0.9884                 0.9952                 0.9489
 IR Inten    --     11.4321                15.1645                 4.4531

                     19                     20                     21
                      A                      A                      A
 Frequencies --    952.8505               995.5677              1036.4218
 Red. masses --      1.7998                 1.2685                 1.7336
 Frc consts  --      0.9628                 0.7408                 1.0971
 IR Inten    --      6.2672                 1.1507                26.9948

                     22                     23                     24
                      A                      A                      A
 Frequencies --   1040.9365              1073.1376              1084.6817
 Red. masses --      2.1610                 4.1311                 3.0690
 Frc consts  --      1.3796                 2.8030                 2.1274
 IR Inten    --     54.3485                 1.8516                25.6065

                     25                     26                     27
                      A                      A                      A
 Frequencies --   1110.7731              1117.7981              1136.4934
 Red. masses --      1.7460                 1.7508                 1.4108
 Frc consts  --      1.2693                 1.2889                 1.0736
 IR Inten    --      2.2639                 8.4387                 2.8952

                     28                     29                     30
                      A                      A                      A
 Frequencies --   1164.0262              1166.0466              1231.4013
 Red. masses --      1.9026                 1.8235                 1.5741
 Frc consts  --      1.5188                 1.4608                 1.4063
 IR Inten    --      7.5846                 7.1023                10.8328

                     31                     32                     33
                      A                      A                      A
 Frequencies --   1242.7199              1259.5455              1279.9402
 Red. masses --      1.7071                 2.2529                 2.5819
 Frc consts  --      1.5533                 2.1058                 2.4921
 IR Inten    --     16.3073                11.2194                65.2442

                     34                     35                     36
                      A                      A                      A
 Frequencies --   1367.9532              1394.4813              1423.9944
 Red. masses --      1.2622                 1.4095                 1.7415
 Frc consts  --      1.3916                 1.6148                 2.0806
 IR Inten    --      2.7206                16.2858                18.2274

                     37                     38                     39
                      A                      A                      A
 Frequencies --   1454.7982              1473.5615              1490.7508
 Red. masses --      2.3740                 1.0461                 1.0579
 Frc consts  --      2.9603                 1.3383                 1.3852
 IR Inten    --     42.9497                 4.3751                 3.1364

                     40                     41                     42
                      A                      A                      A
 Frequencies --   1492.4498              1514.7005              2978.1697
 Red. masses --      1.0885                 1.1221                 1.0698
 Frc consts  --      1.4285                 1.5169                 5.5904
 IR Inten    --      2.2308                 1.4904                50.9485

                     43                     44                     45
                      A                      A                      A
 Frequencies --   3038.8286              3054.3249              3074.0399
 Red. masses --      1.0346                 1.0550                 1.0916
 Frc consts  --      5.6289                 5.7986                 6.0778
 IR Inten    --     16.5658                39.8195                21.5118

                     46                     47                     48
                      A                      A                      A
 Frequencies --   3109.0016              3112.4726              3113.9954
 Red. masses --      1.1094                 1.1017                 1.0962
 Frc consts  --      6.3178                 6.2879                 6.2630
 IR Inten    --     30.1452                15.4374                28.4126

                     49                     50                     51
                      A                      A                      A
 Frequencies --   3114.5166              3125.1270              3791.0546
 Red. masses --      1.0965                 1.0928                 1.0659
 Frc consts  --      6.2668                 6.2880                 9.0254
 IR Inten    --     32.4710                18.1057                26.7186

 - Thermochemistry -
 -------------------
 Temperature   298.150 Kelvin.  Pressure   1.00000 Atm.
 Atom     1 has atomic number  6 and mass  12.00000

 Molecular mass:   126.06808 amu.
 Principal axes and moments of inertia in atomic units:
                           1         2         3
     Eigenvalues --   574.270971310.395741574.74259
           X            0.99974  -0.01890  -0.01305
           Y            0.01908   0.99973   0.01354
           Z            0.01279  -0.01378   0.99982
 This molecule is an asymmetric top.
 Rotational symmetry number  1.
 Warning -- assumption of classical behavior for rotation
           may cause significant error
 Rotational temperatures (Kelvin)      0.15082     0.06610     0.05500
 Rotational constants (GHZ):           3.14266     1.37725     1.14605
 Zero-point vibrational energy     414399.3 (Joules/Mol)
                                   99.04380 (Kcal/Mol)
 Warning -- explicit consideration of  10 degrees of freedom as
           vibrations may cause significant error
 Vibrational temperatures:    130.77   191.61   292.22   327.81   368.14
          (Kelvin)            414.46   538.52   611.51   720.46   786.20
                              893.80   975.79  1055.84  1086.66  1129.36
                             1232.33  1252.42  1323.20  1370.94  1432.40
                             1491.18  1497.67  1544.00  1560.61  1598.15
                             1608.26  1635.16  1674.77  1677.68  1771.71
                             1787.99  1812.20  1841.55  1968.18  2006.35
                             2048.81  2093.13  2120.12  2144.86  2147.30
                             2179.31  4284.92  4372.19  4394.49  4422.85
                             4473.15  4478.15  4480.34  4481.09  4496.36
                             5454.48

 Zero-point correction=                           0.157836 (Hartree/Particle)
 Thermal correction to Energy=                    0.166248
 Thermal correction to Enthalpy=                  0.167192
 Thermal correction to Gibbs Free Energy=         0.125005
 Sum of electronic and zero-point Energies=           -422.940409
 Sum of electronic and thermal Energies=              -422.931998
 Sum of electronic and thermal Enthalpies=            -422.931054
 Sum of electronic and thermal Free Energies=         -422.973240

                     E (Thermal)             CV                S
                      KCal/Mol        Cal/Mol-Kelvin    Cal/Mol-Kelvin
 Total                  104.322             32.601             88.789
 Electronic               0.000              0.000              0.000
 Translational            0.889              2.981             40.409
 Rotational               0.889              2.981             28.562
 Vibrational            102.545             26.640             19.818
 Vibration     1          0.602              1.956              3.641
 Vibration     2          0.613              1.920              2.900
 Vibration     3          0.639              1.835              2.105
 Vibration     4          0.651              1.799              1.896
 Vibration     5          0.666              1.753              1.690
 Vibration     6          0.685              1.696              1.485
 Vibration     7          0.745              1.525              1.062
 Vibration     8          0.787              1.416              0.875
 Vibration     9          0.856              1.248              0.656
 Vibration    10          0.902              1.147              0.552

 Optimization completed.
    -- Stationary point found.
 Normal termination of Gaussian 09 at Tue Jan 28 10:35:26 2020.
