 Gaussian 09, Revision D.01,
 Gaussian 09:  ES64L-G09RevD.01 24-Apr-2013

 -----------------------------
 # b3lyp 6-31G(2df,p) opt Freq
 -----------------------------

 -----
 titel
 -----
 Symbolic Z-matrix:
 Charge =  0 Multiplicity = 1

 SCF Done:  E(RB3LYP) =  -423.164092802     A.U. after   14 cycles
 Optimization completed.
    -- Stationary point found.
 Normal termination of Gaussian 09 at Tue Jan 28 03:45:17 2020.

 ----------------------------------------------------------------------
 #N Geom=AllCheck Guess=TCheck SCRF=Check GenChk RB3LYP/6-31G(2df,p) Fr
 eq
 ----------------------------------------------------------------------

 Structure from the checkpoint file:  "/scratch/puck/g09_9b475e84-4a68-411e-adfa-da9c3ba8cd75/Gau-116515.chk"
 -----
 titel
 -----
 Charge =  0 Multiplicity = 1

                         Standard orientation:
 ---------------------------------------------------------------------
 Center     Atomic      Atomic             Coordinates (Angstroms)
 Number     Number       Type             X           Y           Z
 ---------------------------------------------------------------------
      1          8           0        2.634355   -0.918675   -0.024336
      2          6           0        1.476751   -0.205910   -0.395810
      3          6           0        1.367429    1.289085    0.023675
      4          6           0       -0.036296    1.002732    0.631717
      5          6           0       -1.261651    1.295291   -0.277669
      6          6           0       -1.838504   -0.065452   -0.627514
      7          8           0       -2.165291   -0.858525    0.522469
      8          6           0       -0.943628   -1.140898   -0.174111
      9          6           0        0.255853   -0.531336    0.500936
     10          1           0        3.357079   -0.642982   -0.597436
     11          1           0        1.246840   -0.353907   -1.462012
     12          1           0        2.108660    1.515700    0.794921
     13          1           0        1.428591    2.043889   -0.766005
     14          1           0       -0.189051    1.381494    1.641502
     15          1           0       -2.006184    1.920614    0.224763
     16          1           0       -0.970321    1.819377   -1.196338
     17          1           0       -2.513427   -0.180076   -1.473008
     18          1           0       -0.890591   -2.112692   -0.660940
     19          1           0        0.556168   -1.034884    1.422141
 ---------------------------------------------------------------------

 SCF Done:  E(RB3LYP) =  -423.164092802     A.U. after    1 cycles

 The electronic state is 1-A.
 Alpha  occ. eigenvalues --  -19.14297 -19.13896 -10.23346 -10.23059 -10.22885
 Alpha  occ. eigenvalues --  -10.18816 -10.18548 -10.18294 -10.17954  -1.06485
 Alpha  occ. eigenvalues --   -1.02164  -0.84861  -0.74355  -0.70338  -0.64486
 Alpha  occ. eigenvalues --   -0.61790  -0.57167  -0.53431  -0.52819  -0.50488
 Alpha  occ. eigenvalues --   -0.47156  -0.44457  -0.42834  -0.41889  -0.39042
 Alpha  occ. eigenvalues --   -0.37100  -0.36505  -0.34261  -0.33816  -0.31630
 Alpha  occ. eigenvalues --   -0.30869  -0.27824  -0.26335  -0.25236
 Alpha virt. eigenvalues --    0.07179   0.09330   0.10279   0.10798   0.11527
 Alpha virt. eigenvalues --    0.12296   0.13938   0.15565   0.16096   0.17049
 Alpha virt. eigenvalues --    0.17211   0.18059   0.20084   0.21642   0.22650

 Mulliken charges:
               1
     1  O   -0.432803
     2  C    0.119918
     3  C   -0.282918
     4  C   -0.019684
     5  C   -0.267948
     6  C    0.060083
     7  O   -0.265128
     8  C    0.020427
     9  C   -0.039720
    10  H    0.282679
    11  H    0.061458
    12  H    0.107017
    13  H    0.091302
    14  H    0.080985
    15  H    0.112865
    16  H    0.097145
    17  H    0.090118
    18  H    0.095244
    19  H    0.088960
 Sum of Mulliken charges =   0.00000

 Dipole moment (field-independent basis, Debye):
    X=              1.4065    Y=              1.4497    Z=             -2.0887  Tot=              2.9056
 Quadrupole moment (field-independent basis, Debye-Ang):
   XX=            -53.6705   YY=            -53.7693   ZZ=            -51.5478
   XY=             -0.1763   XZ=             -0.1002   YZ=              1.6877

  Exact polarizability:  83.393  -1.629  73.739   1.926  -0.508  64.272
 Approx polarizability: 112.773  -3.943 107.707  -0.632  -4.592 102.398

                      1                      2                      3
                      A                      A                      A
 Frequencies --     76.4080               164.8144               242.0459
 Red. masses --      2.8329                 2.9894                 2.8901
 Frc consts  --      0.0097                 0.0478                 0.0998
 IR Inten    --      0.0988                 0.6123                 9.7413

                      4                      5                      6
                      A                      A                      A
 Frequencies --    282.7406               349.2414               369.3740
 Red. masses --      1.3658                 4.0190                 2.2918
 Frc consts  --      0.0643                 0.2888                 0.1842
 IR Inten    --     95.8866                 9.0299                 2.2761

                      7                      8                      9
                      A                      A                      A
 Frequencies --    419.4980               464.1019               622.8768
 Red. masses --      4.1989                 2.4306                 3.0965
 Frc consts  --      0.4354                 0.3085                 0.7078
 IR Inten    --     11.2510                 5.6670                 3.6172

                     10                     11                     12
                      A                      A                      A
 Frequencies --    695.6433               753.2306               807.2025
 Red. masses --      5.2331                 4.0819                 2.4760
 Frc consts  --      1.4921                 1.3645                 0.9505
 IR Inten    --      3.0845                 9.3655                 1.2483

                     13                     14                     15
                      A                      A                      A
 Frequencies --    827.7164               856.4652               862.3852
 Red. masses --      3.4515                 2.4367                 2.4594
 Frc consts  --      1.3932                 1.0531                 1.0777
 IR Inten    --      2.0470                34.8860                 2.0919

                     16                     17                     18
                      A                      A                      A
 Frequencies --    910.4199               915.8271               963.1456
 Red. masses --      1.9087                 2.1059                 2.4067
 Frc consts  --      0.9321                 1.0407                 1.3154
 IR Inten    --      2.9088                 2.2024                 8.8349

                     19                     20                     21
                      A                      A                      A
 Frequencies --    985.8036              1006.1731              1036.6637
 Red. masses --      2.3120                 2.1172                 1.3141
 Frc consts  --      1.3238                 1.2629                 0.8321
 IR Inten    --      5.5197                11.7490                 3.7728

                     22                     23                     24
                      A                      A                      A
 Frequencies --   1054.9039              1093.7083              1106.7831
 Red. masses --      2.1421                 2.7873                 1.2957
 Frc consts  --      1.4045                 1.9644                 0.9351
 IR Inten    --     27.6509                22.3706                 6.3704

                     25                     26                     27
                      A                      A                      A
 Frequencies --   1131.8888              1151.5229              1176.1725
 Red. masses --      2.6833                 1.7720                 1.4910
 Frc consts  --      2.0255                 1.3844                 1.2153
 IR Inten    --     42.7304                 0.6262                 5.3513

                     28                     29                     30
                      A                      A                      A
 Frequencies --   1213.9736              1217.3131              1248.8653
 Red. masses --      1.1946                 1.2427                 1.4263
 Frc consts  --      1.0373                 1.0850                 1.3107
 IR Inten    --     13.4126                 6.0548                 1.4713

                     31                     32                     33
                      A                      A                      A
 Frequencies --   1253.5897              1260.5134              1297.3407
 Red. masses --      1.4090                 1.4538                 1.3403
 Frc consts  --      1.3046                 1.3610                 1.3291
 IR Inten    --      0.9542                17.5774                 7.0302

                     34                     35                     36
                      A                      A                      A
 Frequencies --   1308.9941              1323.9411              1331.2342
 Red. masses --      1.5241                 1.5535                 1.4800
 Frc consts  --      1.5387                 1.6044                 1.5453
 IR Inten    --      7.0179                 8.6503                38.9884

                     37                     38                     39
                      A                      A                      A
 Frequencies --   1355.4960              1430.9144              1434.6221
 Red. masses --      1.5699                 1.4370                 3.1874
 Frc consts  --      1.6994                 1.7336                 3.8651
 IR Inten    --      3.2990                 7.8831                19.3820

                     40                     41                     42
                      A                      A                      A
 Frequencies --   1474.3268              1486.2842              2978.3165
 Red. masses --      1.1308                 1.0998                 1.0844
 Frc consts  --      1.4482                 1.4314                 5.6672
 IR Inten    --      0.8461                 3.2979                45.7632

                     43                     44                     45
                      A                      A                      A
 Frequencies --   3032.9077              3049.3793              3077.6726
 Red. masses --      1.0633                 1.0584                 1.0989
 Frc consts  --      5.7628                 5.7986                 6.1325
 IR Inten    --     26.8408                38.2870                11.4877

                     46                     47                     48
                      A                      A                      A
 Frequencies --   3094.9959              3104.6531              3115.6697
 Red. masses --      1.0864                 1.1021                 1.0943
 Frc consts  --      6.1312                 6.2586                 6.2589
 IR Inten    --     13.2050                10.8980                47.5125

                     49                     50                     51
                      A                      A                      A
 Frequencies --   3130.3320              3143.5465              3813.0050
 Red. masses --      1.0865                 1.0953                 1.0661
 Frc consts  --      6.2728                 6.3773                 9.1321
 IR Inten    --     21.3618                38.8187                20.7986

 - Thermochemistry -
 -------------------
 Temperature   298.150 Kelvin.  Pressure   1.00000 Atm.
 Atom     1 has atomic number  8 and mass  15.99491

 Molecular mass:   126.06808 amu.
 Principal axes and moments of inertia in atomic units:
                           1         2         3
     Eigenvalues --   539.756381322.516311629.23794
           X            0.99997  -0.00256   0.00711
           Y            0.00246   0.99990   0.01359
           Z           -0.00715  -0.01358   0.99988
 This molecule is an asymmetric top.
 Rotational symmetry number  1.
 Warning -- assumption of classical behavior for rotation
           may cause significant error
 Rotational temperatures (Kelvin)      0.16047     0.06549     0.05316
 Rotational constants (GHZ):           3.34362     1.36463     1.10772
 Zero-point vibrational energy     421711.4 (Joules/Mol)
                                  100.79145 (Kcal/Mol)
 Warning -- explicit consideration of   8 degrees of freedom as
           vibrations may cause significant error
 Vibrational temperatures:    109.93   237.13   348.25   406.80   502.48
          (Kelvin)            531.45   603.56   667.74   896.18  1000.87
                             1083.73  1161.38  1190.90  1232.26  1240.78
                             1309.89  1317.67  1385.75  1418.35  1447.66
                             1491.53  1517.77  1573.60  1592.41  1628.53
                             1656.78  1692.25  1746.63  1751.44  1796.84
                             1803.63  1813.60  1866.58  1883.35  1904.85
                             1915.35  1950.25  2058.76  2064.10  2121.22
                             2138.43  4285.13  4363.67  4387.37  4428.08
                             4453.00  4466.90  4482.75  4503.84  4522.86
                             5486.06

 Zero-point correction=                           0.160621 (Hartree/Particle)
 Thermal correction to Energy=                    0.168205
 Thermal correction to Enthalpy=                  0.169149
 Thermal correction to Gibbs Free Energy=         0.128444
 Sum of electronic and zero-point Energies=           -423.003471
 Sum of electronic and thermal Energies=              -422.995888
 Sum of electronic and thermal Enthalpies=            -422.994943
 Sum of electronic and thermal Free Energies=         -423.035649

                     E (Thermal)             CV                S
                      KCal/Mol        Cal/Mol-Kelvin    Cal/Mol-Kelvin
 Total                  105.550             30.100             85.672
 Electronic               0.000              0.000              0.000
 Translational            0.889              2.981             40.409
 Rotational               0.889              2.981             28.544
 Vibrational            103.773             24.138             16.720
 Vibration     1          0.599              1.965              3.981
 Vibration     2          0.623              1.886              2.494
 Vibration     3          0.658              1.776              1.788
 Vibration     4          0.682              1.706              1.517
 Vibration     5          0.727              1.577              1.170
 Vibration     6          0.742              1.535              1.082
 Vibration     7          0.782              1.428              0.894
 Vibration     8          0.822              1.330              0.754

 Normal termination of Gaussian 09 at Tue Jan 28 04:28:46 2020.
