 Gaussian 09, Revision D.01,
 Gaussian 09:  ES64L-G09RevD.01 24-Apr-2013

 -----------------------------
 # b3lyp 6-31G(2df,p) opt Freq
 -----------------------------

 -----
 titel
 -----
 Symbolic Z-matrix:
 Charge =  0 Multiplicity = 1

 SCF Done:  E(RB3LYP) =  -423.190046454     A.U. after   14 cycles
 Optimization completed.
    -- Stationary point found.
 Normal termination of Gaussian 09 at Tue Jan 28 08:10:26 2020.

 ----------------------------------------------------------------------
 #N Geom=AllCheck Guess=TCheck SCRF=Check GenChk RB3LYP/6-31G(2df,p) Fr
 eq
 ----------------------------------------------------------------------

 Structure from the checkpoint file:  "/scratch/puck/g09_19c66563-8f32-44b4-ac13-b97f5ddd71a7/Gau-140953.chk"
 -----
 titel
 -----
 Charge =  0 Multiplicity = 1

                         Standard orientation:
 ---------------------------------------------------------------------
 Center     Atomic      Atomic             Coordinates (Angstroms)
 Number     Number       Type             X           Y           Z
 ---------------------------------------------------------------------
      1          8           0        0.852024   -1.375958    1.056917
      2          6           0        1.117080   -0.922799   -0.259158
      3          6           0        2.046340    0.322139   -0.273303
      4          6           0        1.138900    1.553018    0.080178
      5          6           0       -0.245419    0.989130   -0.059576
      6          6           0       -1.438967    1.120159    0.502379
      7          6           0       -2.279238   -0.086560    0.155509
      8          8           0       -1.410024   -0.970433   -0.564337
      9          6           0       -0.189085   -0.311855   -0.811378
     10          1           0        1.676100   -1.708904    1.424857
     11          1           0        1.508785   -1.735545   -0.885990
     12          1           0        2.879028    0.198191    0.425533
     13          1           0        2.483127    0.443739   -1.270443
     14          1           0        1.320487    1.925448    1.091633
     15          1           0        1.331063    2.385342   -0.605577
     16          1           0       -1.776100    1.895044    1.179479
     17          1           0       -2.649286   -0.594903    1.057608
     18          1           0       -3.156513    0.154071   -0.467116
     19          1           0       -0.050361   -0.170745   -1.898530
 ---------------------------------------------------------------------

 SCF Done:  E(RB3LYP) =  -423.190046454     A.U. after    1 cycles

 The electronic state is 1-A.
 Alpha  occ. eigenvalues --  -19.13219 -19.12634 -10.22808 -10.22190 -10.22063
 Alpha  occ. eigenvalues --  -10.19110 -10.18744 -10.17877 -10.17494  -1.03113
 Alpha  occ. eigenvalues --   -1.01052  -0.82950  -0.76317  -0.71033  -0.68305
 Alpha  occ. eigenvalues --   -0.60067  -0.57069  -0.54160  -0.51073  -0.48021
 Alpha  occ. eigenvalues --   -0.45540  -0.45184  -0.42945  -0.41491  -0.40126
 Alpha  occ. eigenvalues --   -0.37660  -0.36229  -0.35719  -0.34108  -0.31704
 Alpha  occ. eigenvalues --   -0.30156  -0.26776  -0.25613  -0.22174
 Alpha virt. eigenvalues --    0.01979   0.07490   0.10466   0.11631   0.12776
 Alpha virt. eigenvalues --    0.13859   0.14577   0.15406   0.16755   0.17504
 Alpha virt. eigenvalues --    0.18667   0.19053   0.20176   0.21249   0.23464

 Mulliken charges:
               1
     1  O   -0.428203
     2  C    0.072529
     3  C   -0.242171
     4  C   -0.325311
     5  C    0.346890
     6  C   -0.273076
     7  C   -0.105643
     8  O   -0.281990
     9  C    0.081208
    10  H    0.281880
    11  H    0.061085
    12  H    0.094869
    13  H    0.104713
    14  H    0.120685
    15  H    0.112984
    16  H    0.098582
    17  H    0.111878
    18  H    0.098274
    19  H    0.070816
 Sum of Mulliken charges =   0.00000

 Dipole moment (field-independent basis, Debye):
    X=              2.0082    Y=              1.2867    Z=              0.2510  Tot=              2.3982
 Quadrupole moment (field-independent basis, Debye-Ang):
   XX=            -47.4762   YY=            -53.7829   ZZ=            -52.0429
   XY=             -4.2013   XZ=             -0.5630   YZ=             -0.3439

  Exact polarizability:  96.021  -0.619  69.494  -7.580   2.516  66.385
 Approx polarizability: 134.042  -0.433  99.147 -15.510   3.466 104.255

                      1                      2                      3
                      A                      A                      A
 Frequencies --     83.7117               132.3903               224.6226
 Red. masses --      2.7870                 3.1824                 2.2838
 Frc consts  --      0.0115                 0.0329                 0.0679
 IR Inten    --      3.3155                 2.7200                 2.6368

                      4                      5                      6
                      A                      A                      A
 Frequencies --    245.4251               265.0305               355.4739
 Red. masses --      4.2839                 1.1241                 2.8471
 Frc consts  --      0.1520                 0.0465                 0.2120
 IR Inten    --      4.2964               101.8082                 0.8581

                      7                      8                      9
                      A                      A                      A
 Frequencies --    376.8871               477.8860               610.2869
 Red. masses --      2.5974                 3.9684                 4.6193
 Frc consts  --      0.2174                 0.5340                 1.0137
 IR Inten    --      1.1413                 6.0331                 3.6732

                     10                     11                     12
                      A                      A                      A
 Frequencies --    659.6431               740.2072               775.0457
 Red. masses --      5.4041                 1.4770                 3.2846
 Frc consts  --      1.3854                 0.4768                 1.1625
 IR Inten    --      6.4140                 1.8749                10.6462

                     13                     14                     15
                      A                      A                      A
 Frequencies --    789.8950               826.4178               854.6795
 Red. masses --      4.8269                 1.7185                 3.0229
 Frc consts  --      1.7744                 0.6915                 1.3010
 IR Inten    --     11.1713                17.0772                23.9288

                     16                     17                     18
                      A                      A                      A
 Frequencies --    885.8919               932.9372               962.4183
 Red. masses --      2.1632                 2.3610                 2.3535
 Frc consts  --      1.0003                 1.2107                 1.2844
 IR Inten    --      0.1655                 3.3645                 3.5938

                     19                     20                     21
                      A                      A                      A
 Frequencies --    972.5455               999.6842              1023.1043
 Red. masses --      2.5533                 2.8753                 2.2809
 Frc consts  --      1.4229                 1.6930                 1.4067
 IR Inten    --      4.8237                19.5627                10.2827

                     22                     23                     24
                      A                      A                      A
 Frequencies --   1040.4429              1075.9186              1145.2550
 Red. masses --      1.7807                 2.1177                 4.4716
 Frc consts  --      1.1357                 1.4443                 3.4555
 IR Inten    --      2.7681                14.8074               118.0035

                     25                     26                     27
                      A                      A                      A
 Frequencies --   1172.2741              1177.0952              1187.5627
 Red. masses --      1.7955                 1.3390                 1.6551
 Frc consts  --      1.4537                 1.0931                 1.3753
 IR Inten    --     22.6983                 2.3518                15.1085

                     28                     29                     30
                      A                      A                      A
 Frequencies --   1195.4037              1215.0103              1261.5421
 Red. masses --      1.1405                 1.2264                 1.3991
 Frc consts  --      0.9602                 1.0667                 1.3119
 IR Inten    --      1.3513                10.5490                 3.2042

                     31                     32                     33
                      A                      A                      A
 Frequencies --   1290.2216              1305.2638              1327.8219
 Red. masses --      1.3124                 1.5617                 1.3232
 Frc consts  --      1.2872                 1.5676                 1.3746
 IR Inten    --      0.1398                24.3365                 3.4144

                     34                     35                     36
                      A                      A                      A
 Frequencies --   1345.4440              1370.0282              1393.7467
 Red. masses --      1.7569                 1.4101                 1.4002
 Frc consts  --      1.8739                 1.5594                 1.6026
 IR Inten    --      6.5196                 8.4639                 9.9650

                     37                     38                     39
                      A                      A                      A
 Frequencies --   1427.8171              1472.6775              1491.0114
 Red. masses --      1.4793                 1.0826                 1.0989
 Frc consts  --      1.7768                 1.3833                 1.4394
 IR Inten    --      5.3276                 1.2076                 3.3098

                     40                     41                     42
                      A                      A                      A
 Frequencies --   1517.7796              1749.7599              2934.0089
 Red. masses --      1.0892                 8.4109                 1.0810
 Frc consts  --      1.4783                15.1723                 5.4828
 IR Inten    --      1.4643                 2.2679                59.3845

                     43                     44                     45
                      A                      A                      A
 Frequencies --   2968.4894              3007.9106              3008.6206
 Red. masses --      1.0681                 1.0845                 1.0932
 Frc consts  --      5.5456                 5.7813                 5.8301
 IR Inten    --     99.1498                54.4894                51.5760

                     46                     47                     48
                      A                      A                      A
 Frequencies --   3041.1874              3052.5439              3082.0873
 Red. masses --      1.0646                 1.0632                 1.1005
 Frc consts  --      5.8015                 5.8370                 6.1591
 IR Inten    --     28.0042                49.0781                 3.8644

                     49                     50                     51
                      A                      A                      A
 Frequencies --   3100.4037              3211.7651              3824.1170
 Red. masses --      1.1019                 1.0958                 1.0663
 Frc consts  --      6.2409                 6.6601                 9.1871
 IR Inten    --     36.4222                 7.9671                19.7953

 - Thermochemistry -
 -------------------
 Temperature   298.150 Kelvin.  Pressure   1.00000 Atm.
 Atom     1 has atomic number  8 and mass  15.99491

 Molecular mass:   126.06808 amu.
 Principal axes and moments of inertia in atomic units:
                           1         2         3
     Eigenvalues --   649.946651087.606211390.97425
           X            0.99985  -0.00189  -0.01704
           Y            0.00212   0.99991   0.01332
           Z            0.01701  -0.01335   0.99977
 This molecule is an asymmetric top.
 Rotational symmetry number  1.
 Warning -- assumption of classical behavior for rotation
           may cause significant error
 Rotational temperatures (Kelvin)      0.13326     0.07964     0.06227
 Rotational constants (GHZ):           2.77675     1.65937     1.29747
 Zero-point vibrational energy     422206.4 (Joules/Mol)
                                  100.90974 (Kcal/Mol)
 Warning -- explicit consideration of   9 degrees of freedom as
           vibrations may cause significant error
 Vibrational temperatures:    120.44   190.48   323.18   353.11   381.32
          (Kelvin)            511.45   542.26   687.57   878.07   949.08
                             1064.99  1115.12  1136.48  1189.03  1229.69
                             1274.60  1342.29  1384.70  1399.27  1438.32
                             1472.02  1496.96  1548.00  1647.76  1686.64
                             1693.58  1708.64  1719.92  1748.13  1815.08
                             1856.34  1877.98  1910.44  1935.79  1971.16
                             2005.29  2054.31  2118.85  2145.23  2183.74
                             2517.51  4221.38  4270.99  4327.71  4328.73
                             4375.58  4391.92  4434.43  4460.78  4621.01
                             5502.04

 Zero-point correction=                           0.160810 (Hartree/Particle)
 Thermal correction to Energy=                    0.168699
 Thermal correction to Enthalpy=                  0.169643
 Thermal correction to Gibbs Free Energy=         0.128364
 Sum of electronic and zero-point Energies=           -423.029237
 Sum of electronic and thermal Energies=              -423.021348
 Sum of electronic and thermal Enthalpies=            -423.020404
 Sum of electronic and thermal Free Energies=         -423.061683

                     E (Thermal)             CV                S
                      KCal/Mol        Cal/Mol-Kelvin    Cal/Mol-Kelvin
 Total                  105.860             30.530             86.879
 Electronic               0.000              0.000              0.000
 Translational            0.889              2.981             40.409
 Rotational               0.889              2.981             28.377
 Vibrational            104.083             24.568             18.094
 Vibration     1          0.601              1.960              3.802
 Vibration     2          0.613              1.921              2.911
 Vibration     3          0.649              1.804              1.922
 Vibration     4          0.660              1.770              1.763
 Vibration     5          0.671              1.737              1.628
 Vibration     6          0.731              1.564              1.142
 Vibration     7          0.747              1.519              1.052
 Vibration     8          0.834              1.299              0.716
 Vibration     9          0.969              1.010              0.432

 Normal termination of Gaussian 09 at Tue Jan 28 08:55:52 2020.
