 Gaussian 09, Revision D.01,
 Gaussian 09:  ES64L-G09RevD.01 24-Apr-2013

 -----------------------------
 # b3lyp 6-31G(2df,p) opt Freq
 -----------------------------

 -----
 titel
 -----
 Symbolic Z-matrix:
 Charge =  0 Multiplicity = 1

 SCF Done:  E(RB3LYP) =  -423.153469172     A.U. after   13 cycles
 Optimization completed.
    -- Stationary point found.
 Normal termination of Gaussian 09 at Mon Jan 27 17:00:22 2020.

 ----------------------------------------------------------------------
 #N Geom=AllCheck Guess=TCheck SCRF=Check GenChk RB3LYP/6-31G(2df,p) Fr
 eq
 ----------------------------------------------------------------------

 Structure from the checkpoint file:  "/scratch/puck/g09_91f5bc3f-4d04-4f2f-87ec-347524d68308/Gau-166875.chk"
 -----
 titel
 -----
 Charge =  0 Multiplicity = 1

                         Standard orientation:
 ---------------------------------------------------------------------
 Center     Atomic      Atomic             Coordinates (Angstroms)
 Number     Number       Type             X           Y           Z
 ---------------------------------------------------------------------
      1          6           0       -2.241300   -0.153787   -0.118597
      2          6           0       -0.752823   -0.348849    0.071200
      3          6           0       -0.195344   -0.479954    1.532954
      4          6           0        0.913140    0.510531    1.182145
      5          6           0        1.476555    0.119248   -0.190361
      6          8           0        1.319561   -1.211784   -0.633361
      7          6           0       -0.089493   -1.414722   -0.808847
      8          6           0        0.211073    0.871331   -0.134686
      9          8           0       -0.040297    2.048192   -0.804300
     10          1           0       -2.619597    0.662282    0.507180
     11          1           0       -2.478039    0.086397   -1.160752
     12          1           0       -2.797307   -1.057758    0.153579
     13          1           0       -0.893691   -0.076513    2.271514
     14          1           0        0.115774   -1.484159    1.839335
     15          1           0        1.484434    1.126249    1.868012
     16          1           0        2.396150    0.591784   -0.513199
     17          1           0       -0.368083   -1.282016   -1.866791
     18          1           0       -0.326593   -2.440446   -0.506497
     19          1           0       -0.678006    2.560129   -0.293948
 ---------------------------------------------------------------------

 SCF Done:  E(RB3LYP) =  -423.153469172     A.U. after    1 cycles

 The electronic state is 1-A.
 Alpha  occ. eigenvalues --  -19.15703 -19.13382 -10.23420 -10.22705 -10.22209
 Alpha  occ. eigenvalues --  -10.19806 -10.18781 -10.18492 -10.18462  -1.04811
 Alpha  occ. eigenvalues --   -1.02900  -0.87671  -0.77970  -0.69822  -0.67752
 Alpha  occ. eigenvalues --   -0.60811  -0.57301  -0.56257  -0.50542  -0.47813
 Alpha  occ. eigenvalues --   -0.47298  -0.43804  -0.42166  -0.41428  -0.40435
 Alpha  occ. eigenvalues --   -0.39391  -0.38402  -0.36437  -0.34269  -0.32577
 Alpha  occ. eigenvalues --   -0.31172  -0.27983  -0.24716  -0.22352
 Alpha virt. eigenvalues --    0.06183   0.10113   0.11050   0.11171   0.12782
 Alpha virt. eigenvalues --    0.14330   0.14754   0.15728   0.15948   0.16193
 Alpha virt. eigenvalues --    0.18056   0.19392   0.19634   0.20668   0.23015

 Mulliken charges:
               1
     1  C   -0.500554
     2  C    0.208833
     3  C   -0.266062
     4  C   -0.193881
     5  C    0.062756
     6  O   -0.270296
     7  C   -0.116333
     8  C    0.300583
     9  O   -0.457629
    10  H    0.109201
    11  H    0.127407
    12  H    0.123074
    13  H    0.095316
    14  H    0.101888
    15  H    0.085841
    16  H    0.107939
    17  H    0.090901
    18  H    0.103820
    19  H    0.287196
 Sum of Mulliken charges =   0.00000

 Dipole moment (field-independent basis, Debye):
    X=             -1.9925    Y=              0.9734    Z=              1.3330  Tot=              2.5874
 Quadrupole moment (field-independent basis, Debye-Ang):
   XX=            -52.5076   YY=            -52.1060   ZZ=            -54.3801
   XY=              1.2865   XZ=              1.0019   YZ=              2.2620

  Exact polarizability:  76.568   2.219  73.386   1.723   1.548  71.522
 Approx polarizability: 108.435  -0.607 109.301   1.493   0.759 108.617

                      1                      2                      3
                      A                      A                      A
 Frequencies --    190.2819               195.9370               210.0059
 Red. masses --      1.3959                 2.5833                 1.7787
 Frc consts  --      0.0298                 0.0584                 0.0462
 IR Inten    --      0.7621                 2.4918                 0.4213

                      4                      5                      6
                      A                      A                      A
 Frequencies --    266.1781               312.3841               350.8743
 Red. masses --      3.3255                 2.1968                 1.7753
 Frc consts  --      0.1388                 0.1263                 0.1288
 IR Inten    --     10.2078                 1.9742                23.5204

                      7                      8                      9
                      A                      A                      A
 Frequencies --    354.5348               444.3586               488.0742
 Red. masses --      1.5535                 2.7940                 3.1827
 Frc consts  --      0.1151                 0.3250                 0.4467
 IR Inten    --     64.9826                14.2623                 6.2546

                     10                     11                     12
                      A                      A                      A
 Frequencies --    587.1699               610.9472               664.2916
 Red. masses --      3.8607                 3.5545                 4.0630
 Frc consts  --      0.7842                 0.7817                 1.0564
 IR Inten    --      1.5385                 7.1145                 3.3533

                     13                     14                     15
                      A                      A                      A
 Frequencies --    731.0834               818.3937               833.4593
 Red. masses --      4.3648                 5.2599                 2.5600
 Frc consts  --      1.3745                 2.0757                 1.0478
 IR Inten    --      7.4962                 7.6228                11.5591

                     16                     17                     18
                      A                      A                      A
 Frequencies --    871.9524               914.9489               948.2056
 Red. masses --      1.6972                 2.1488                 1.8227
 Frc consts  --      0.7603                 1.0599                 0.9655
 IR Inten    --     12.9084                 7.4909                 4.4989

                     19                     20                     21
                      A                      A                      A
 Frequencies --    958.9272               989.5799              1006.5299
 Red. masses --      1.8469                 1.4595                 2.2982
 Frc consts  --      1.0006                 0.8421                 1.3718
 IR Inten    --      4.6967                 7.5002                11.8187

                     22                     23                     24
                      A                      A                      A
 Frequencies --   1030.3329              1048.6164              1070.3164
 Red. masses --      1.5603                 1.9504                 5.1701
 Frc consts  --      0.9759                 1.2636                 3.4896
 IR Inten    --      2.7777                 4.4009                82.2872

                     25                     26                     27
                      A                      A                      A
 Frequencies --   1126.5769              1134.4750              1168.8474
 Red. masses --      1.5110                 2.0912                 1.8298
 Frc consts  --      1.1299                 1.5858                 1.4728
 IR Inten    --      0.5787                19.6929                 6.7986

                     28                     29                     30
                      A                      A                      A
 Frequencies --   1215.4554              1230.7239              1250.4847
 Red. masses --      1.7215                 2.1658                 1.6841
 Frc consts  --      1.4985                 1.9328                 1.5516
 IR Inten    --     19.4940                 8.2166                 7.2487

                     31                     32                     33
                      A                      A                      A
 Frequencies --   1257.5034              1287.0715              1296.0557
 Red. masses --      1.9279                 1.7218                 2.1147
 Frc consts  --      1.7962                 1.6805                 2.0929
 IR Inten    --     42.1939                 0.5655               116.0691

                     34                     35                     36
                      A                      A                      A
 Frequencies --   1322.6680              1389.3467              1411.7496
 Red. masses --      1.4028                 1.5936                 1.2975
 Frc consts  --      1.4459                 1.8123                 1.5236
 IR Inten    --     21.6325                 3.4431                 1.9732

                     37                     38                     39
                      A                      A                      A
 Frequencies --   1475.0433              1493.6512              1495.0655
 Red. masses --      1.6074                 1.0865                 1.0548
 Frc consts  --      2.0606                 1.4282                 1.3891
 IR Inten    --      3.3587                 1.0998                 4.8999

                     40                     41                     42
                      A                      A                      A
 Frequencies --   1503.8227              1511.8862              2974.0331
 Red. masses --      1.7472                 1.0947                 1.0685
 Frc consts  --      2.3280                 1.4743                 5.5682
 IR Inten    --     21.7258                 0.3185                72.9569

                     43                     44                     45
                      A                      A                      A
 Frequencies --   3025.4151              3041.8812              3066.8760
 Red. masses --      1.0356                 1.0575                 1.0945
 Frc consts  --      5.5851                 5.7651                 6.0656
 IR Inten    --     27.1067                39.2189                34.0574

                     46                     47                     48
                      A                      A                      A
 Frequencies --   3088.4588              3095.5362              3097.0904
 Red. masses --      1.1011                 1.1046                 1.1036
 Frc consts  --      6.1884                 6.2361                 6.2367
 IR Inten    --     15.4630                28.8620                26.1745

                     49                     50                     51
                      A                      A                      A
 Frequencies --   3172.9914              3200.1852              3788.2799
 Red. masses --      1.0922                 1.0925                 1.0660
 Frc consts  --      6.4788                 6.5919                 9.0135
 IR Inten    --     16.6190                13.7828                16.6318

 - Thermochemistry -
 -------------------
 Temperature   298.150 Kelvin.  Pressure   1.00000 Atm.
 Atom     1 has atomic number  6 and mass  12.00000

 Molecular mass:   126.06808 amu.
 Principal axes and moments of inertia in atomic units:
                           1         2         3
     Eigenvalues --   851.60036 898.873021120.42200
           X            0.96107   0.27514   0.02523
           Y           -0.27583   0.96074   0.03004
           Z           -0.01597  -0.03583   0.99923
 This molecule is an asymmetric top.
 Rotational symmetry number  1.
 Warning -- assumption of classical behavior for rotation
           may cause significant error
 Rotational temperatures (Kelvin)      0.10171     0.09636     0.07730
 Rotational constants (GHZ):           2.11923     2.00778     1.61077
 Zero-point vibrational energy     418804.0 (Joules/Mol)
                                  100.09655 (Kcal/Mol)
 Warning -- explicit consideration of  11 degrees of freedom as
           vibrations may cause significant error
 Vibrational temperatures:    273.77   281.91   302.15   382.97   449.45
          (Kelvin)            504.83   510.10   639.33   702.23   844.81
                              879.02   955.77  1051.86  1177.48  1199.16
                             1254.54  1316.41  1364.25  1379.68  1423.78
                             1448.17  1482.42  1508.72  1539.94  1620.89
                             1632.25  1681.71  1748.77  1770.73  1799.17
                             1809.26  1851.81  1864.73  1903.02  1998.96
                             2031.19  2122.26  2149.03  2151.06  2163.66
                             2175.26  4278.96  4352.89  4376.58  4412.55
                             4443.60  4453.78  4456.02  4565.22  4604.35
                             5450.48

 Zero-point correction=                           0.159514 (Hartree/Particle)
 Thermal correction to Energy=                    0.167374
 Thermal correction to Enthalpy=                  0.168318
 Thermal correction to Gibbs Free Energy=         0.127847
 Sum of electronic and zero-point Energies=           -422.993955
 Sum of electronic and thermal Energies=              -422.986096
 Sum of electronic and thermal Enthalpies=            -422.985151
 Sum of electronic and thermal Free Energies=         -423.025622

                     E (Thermal)             CV                S
                      KCal/Mol        Cal/Mol-Kelvin    Cal/Mol-Kelvin
 Total                  105.028             31.731             85.178
 Electronic               0.000              0.000              0.000
 Translational            0.889              2.981             40.409
 Rotational               0.889              2.981             28.241
 Vibrational            103.251             25.769             16.528
 Vibration     1          0.634              1.853              2.225
 Vibration     2          0.636              1.846              2.171
 Vibration     3          0.642              1.826              2.044
 Vibration     4          0.672              1.735              1.621
 Vibration     5          0.701              1.650              1.350
 Vibration     6          0.728              1.573              1.162
 Vibration     7          0.730              1.566              1.146
 Vibration     8          0.804              1.373              0.813
 Vibration     9          0.844              1.276              0.689
 Vibration    10          0.944              1.059              0.472
 Vibration    11          0.970              1.009              0.431

 Normal termination of Gaussian 09 at Mon Jan 27 17:46:48 2020.
