 Gaussian 09, Revision D.01,
 Gaussian 09:  ES64L-G09RevD.01 24-Apr-2013

 -----------------------------
 # b3lyp 6-31G(2df,p) opt Freq
 -----------------------------

 -----
 titel
 -----
 Symbolic Z-matrix:
 Charge =  0 Multiplicity = 1

 SCF Done:  E(RB3LYP) =  -423.112384829     A.U. after   14 cycles
 Optimization completed.
    -- Stationary point found.
 Normal termination of Gaussian 09 at Mon Jan 27 15:55:24 2020.

 ----------------------------------------------------------------------
 #N Geom=AllCheck Guess=TCheck SCRF=Check GenChk RB3LYP/6-31G(2df,p) Fr
 eq
 ----------------------------------------------------------------------

 Structure from the checkpoint file:  "/scratch/puck/g09_252119ba-0d42-4c59-8077-f4f86563e1c5/Gau-10194.chk"
 -----
 titel
 -----
 Charge =  0 Multiplicity = 1

                         Standard orientation:
 ---------------------------------------------------------------------
 Center     Atomic      Atomic             Coordinates (Angstroms)
 Number     Number       Type             X           Y           Z
 ---------------------------------------------------------------------
      1          6           0       -2.184696   -1.668560   -0.098392
      2          6           0       -1.313546   -0.477953    0.303336
      3          8           0       -0.130042   -0.549486   -0.487749
      4          6           0        0.874994    0.365712   -0.132617
      5          6           0        2.148118    0.205594   -0.975583
      6          8           0        2.958212    0.029699    0.206076
      7          6           0        1.795324   -0.000559    1.058890
      8          6           0       -2.019460    0.799008    0.126127
      9          6           0       -2.603994    1.838928   -0.022171
     10          1           0       -2.450030   -1.595353   -1.155650
     11          1           0       -1.630438   -2.596116    0.064009
     12          1           0       -3.101452   -1.687059    0.495565
     13          1           0       -1.045064   -0.575372    1.368182
     14          1           0        0.477800    1.385950   -0.092581
     15          1           0        2.125565   -0.691726   -1.606514
     16          1           0        2.465813    1.068583   -1.570627
     17          1           0        1.602868   -1.003245    1.464528
     18          1           0        1.870033    0.721605    1.879889
     19          1           0       -3.120893    2.758016   -0.150961
 ---------------------------------------------------------------------

 SCF Done:  E(RB3LYP) =  -423.112384830     A.U. after    1 cycles

 The electronic state is 1-A.
 Alpha  occ. eigenvalues --  -19.15422 -19.13146 -10.26605 -10.23822 -10.22771
 Alpha  occ. eigenvalues --  -10.22758 -10.18895 -10.18711 -10.18475  -1.05569
 Alpha  occ. eigenvalues --   -1.02825  -0.80182  -0.74228  -0.71425  -0.69258
 Alpha  occ. eigenvalues --   -0.64141  -0.57211  -0.53831  -0.52588  -0.50452
 Alpha  occ. eigenvalues --   -0.49332  -0.45643  -0.43378  -0.41445  -0.40331
 Alpha  occ. eigenvalues --   -0.39569  -0.38835  -0.35797  -0.33527  -0.31153
 Alpha  occ. eigenvalues --   -0.28321  -0.27447  -0.26568  -0.24756
 Alpha virt. eigenvalues --    0.03049   0.04328   0.07672   0.10115   0.11448
 Alpha virt. eigenvalues --    0.12038   0.12287   0.13406   0.15270   0.16736
 Alpha virt. eigenvalues --    0.17021   0.17299   0.18535   0.19344   0.21410

 Mulliken charges:
               1
     1  C   -0.395187
     2  C   -0.036452
     3  O   -0.253057
     4  C    0.079580
     5  C   -0.097022
     6  O   -0.273040
     7  C   -0.094565
     8  C    0.348123
     9  C   -0.492517
    10  H    0.139037
    11  H    0.127464
    12  H    0.128740
    13  H    0.100198
    14  H    0.094264
    15  H    0.110718
    16  H    0.106218
    17  H    0.099779
    18  H    0.103747
    19  H    0.203973
 Sum of Mulliken charges =   0.00000

 Dipole moment (field-independent basis, Debye):
    X=             -1.9801    Y=              0.4938    Z=              0.4809  Tot=              2.0967
 Quadrupole moment (field-independent basis, Debye-Ang):
   XX=            -58.9172   YY=            -49.0304   ZZ=            -51.9227
   XY=             -0.3800   XZ=             -1.5759   YZ=             -1.4548

  Exact polarizability:  85.500  -6.468  82.032  -0.972  -2.301  65.791
 Approx polarizability: 109.827 -16.375 125.202   0.055  -4.276  96.678

                      1                      2                      3
                      A                      A                      A
 Frequencies --     47.1621                62.5674                99.8980
 Red. masses --      3.3345                 4.3751                 3.2699
 Frc consts  --      0.0044                 0.0101                 0.0192
 IR Inten    --      0.7031                 2.0547                 4.1974

                      4                      5                      6
                      A                      A                      A
 Frequencies --    135.2526               206.1947               214.5856
 Red. masses --      3.5705                 2.2051                 1.5621
 Frc consts  --      0.0385                 0.0552                 0.0424
 IR Inten    --      0.3409                 1.0778                 1.4028

                      7                      8                      9
                      A                      A                      A
 Frequencies --    254.1172               348.1319               388.2181
 Red. masses --      2.0983                 3.8146                 3.2055
 Frc consts  --      0.0798                 0.2724                 0.2846
 IR Inten    --      1.8142                 1.9090                 5.1817

                     10                     11                     12
                      A                      A                      A
 Frequencies --    442.2373               550.1707               606.7911
 Red. masses --      2.7662                 3.6171                 5.3190
 Frc consts  --      0.3187                 0.6451                 1.1539
 IR Inten    --      1.4101                 4.1965                 5.0010

                     13                     14                     15
                      A                      A                      A
 Frequencies --    632.6448               679.5759               740.9238
 Red. masses --      1.2311                 1.2533                 3.0322
 Frc consts  --      0.2903                 0.3410                 0.9807
 IR Inten    --     42.2229                34.8222                 6.1218

                     16                     17                     18
                      A                      A                      A
 Frequencies --    816.0409               872.2220               885.0093
 Red. masses --      2.7047                 1.9323                 1.6989
 Frc consts  --      1.0612                 0.8661                 0.7840
 IR Inten    --      4.5065                 5.6890                 2.3443

                     19                     20                     21
                      A                      A                      A
 Frequencies --    929.4755              1001.0040              1026.5234
 Red. masses --      2.4473                 3.6656                 4.7938
 Frc consts  --      1.2457                 2.1641                 2.9763
 IR Inten    --     29.7916                 1.9490                47.9126

                     22                     23                     24
                      A                      A                      A
 Frequencies --   1044.0519              1060.2676              1111.7484
 Red. masses --      3.9809                 2.3085                 2.0189
 Frc consts  --      2.5567                 1.5290                 1.4702
 IR Inten    --     51.3186                16.1476                 9.6282

                     25                     26                     27
                      A                      A                      A
 Frequencies --   1118.1226              1153.8916              1156.4813
 Red. masses --      2.6051                 2.1023                 1.3494
 Frc consts  --      1.9189                 1.6492                 1.0634
 IR Inten    --     35.9541               137.7449                24.1620

                     28                     29                     30
                      A                      A                      A
 Frequencies --   1162.3691              1207.8295              1284.7148
 Red. masses --      1.3081                 2.0383                 1.4098
 Frc consts  --      1.0413                 1.7520                 1.3710
 IR Inten    --      4.0637                66.8407                 0.2956

                     31                     32                     33
                      A                      A                      A
 Frequencies --   1302.6272              1335.9421              1350.1142
 Red. masses --      1.3267                 1.2400                 1.3705
 Frc consts  --      1.3263                 1.3040                 1.4719
 IR Inten    --      1.1994                25.7942                28.8106

                     34                     35                     36
                      A                      A                      A
 Frequencies --   1365.0822              1403.1208              1420.1481
 Red. masses --      1.2949                 1.2484                 1.4590
 Frc consts  --      1.4217                 1.4481                 1.7337
 IR Inten    --     12.0218                 6.2786                 4.7271

                     37                     38                     39
                      A                      A                      A
 Frequencies --   1481.8474              1494.6703              1499.8397
 Red. masses --      1.0443                 1.0496                 1.0796
 Frc consts  --      1.3511                 1.3815                 1.4309
 IR Inten    --      3.4578                 1.1950                 0.7158

                     40                     41                     42
                      A                      A                      A
 Frequencies --   1526.3611              2230.4739              2965.6794
 Red. masses --      1.1154                 5.8859                 1.0808
 Frc consts  --      1.5310                17.2526                 5.6006
 IR Inten    --      2.5763                 2.3946                22.3623

                     43                     44                     45
                      A                      A                      A
 Frequencies --   3004.7345              3024.1729              3043.5256
 Red. masses --      1.0563                 1.0578                 1.0897
 Frc consts  --      5.6190                 5.7000                 5.9473
 IR Inten    --     82.7469                26.4309                 3.9706

                     46                     47                     48
                      A                      A                      A
 Frequencies --   3054.5337              3065.0475              3077.3389
 Red. masses --      1.0336                 1.1053                 1.1085
 Frc consts  --      5.6817                 6.1182                 6.1850
 IR Inten    --     12.7703                30.6066                61.7915

                     49                     50                     51
                      A                      A                      A
 Frequencies --   3136.2894              3138.7915              3501.3245
 Red. masses --      1.1032                 1.1029                 1.1628
 Frc consts  --      6.3932                 6.4017                 8.3988
 IR Inten    --     16.6006                13.7665                61.4618

 - Thermochemistry -
 -------------------
 Temperature   298.150 Kelvin.  Pressure   1.00000 Atm.
 Atom     1 has atomic number  6 and mass  12.00000

 Molecular mass:   126.06808 amu.
 Principal axes and moments of inertia in atomic units:
                           1         2         3
     Eigenvalues --   577.886201940.836422195.27009
           X            0.99983   0.01811  -0.00299
           Y           -0.01815   0.99970  -0.01671
           Z            0.00269   0.01676   0.99986
 This molecule is an asymmetric top.
 Rotational symmetry number  1.
 Warning -- assumption of classical behavior for rotation
           may cause significant error
 Rotational temperatures (Kelvin)      0.14988     0.04463     0.03945
 Rotational constants (GHZ):           3.12300     0.92988     0.82210
 Zero-point vibrational energy     410677.3 (Joules/Mol)
                                   98.15424 (Kcal/Mol)
 Warning -- explicit consideration of  12 degrees of freedom as
           vibrations may cause significant error
 Vibrational temperatures:     67.86    90.02   143.73   194.60   296.67
          (Kelvin)            308.74   365.62   500.88   558.56   636.28
                              791.57   873.04   910.23   977.76  1066.02
                             1174.10  1254.93  1273.33  1337.31  1440.22
                             1476.94  1502.16  1525.49  1599.56  1608.73
                             1660.19  1663.92  1672.39  1737.80  1848.42
                             1874.19  1922.12  1942.51  1964.05  2018.78
                             2043.27  2132.05  2150.49  2157.93  2196.09
                             3209.15  4266.95  4323.14  4351.10  4378.95
                             4394.79  4409.91  4427.60  4512.42  4516.02
                             5037.62

 Zero-point correction=                           0.156419 (Hartree/Particle)
 Thermal correction to Energy=                    0.166114
 Thermal correction to Enthalpy=                  0.167058
 Thermal correction to Gibbs Free Energy=         0.120710
 Sum of electronic and zero-point Energies=           -422.955966
 Sum of electronic and thermal Energies=              -422.946271
 Sum of electronic and thermal Enthalpies=            -422.945327
 Sum of electronic and thermal Free Energies=         -422.991675

                     E (Thermal)             CV                S
                      KCal/Mol        Cal/Mol-Kelvin    Cal/Mol-Kelvin
 Total                  104.238             34.523             97.548
 Electronic               0.000              0.000              0.000
 Translational            0.889              2.981             40.409
 Rotational               0.889              2.981             29.289
 Vibrational            102.460             28.561             27.851
 Vibration     1          0.595              1.979              4.933
 Vibration     2          0.597              1.972              4.375
 Vibration     3          0.604              1.949              3.456
 Vibration     4          0.613              1.918              2.870
 Vibration     5          0.641              1.831              2.077
 Vibration     6          0.645              1.819              2.004
 Vibration     7          0.665              1.756              1.702
 Vibration     8          0.726              1.579              1.175
 Vibration     9          0.756              1.495              1.007
 Vibration    10          0.802              1.378              0.820
 Vibration    11          0.905              1.139              0.544
 Vibration    12          0.966              1.017              0.438

 Optimization completed.
    -- Stationary point found.
 Normal termination of Gaussian 09 at Mon Jan 27 17:36:14 2020.
