 Gaussian 09, Revision D.01,
 Gaussian 09:  ES64L-G09RevD.01 24-Apr-2013

 -----------------------------
 # b3lyp 6-31G(2df,p) opt Freq
 -----------------------------

 -----
 titel
 -----
 Symbolic Z-matrix:
 Charge =  0 Multiplicity = 1

 SCF Done:  E(RB3LYP) =  -423.191417483     A.U. after   13 cycles
 Optimization completed.
    -- Stationary point found.
 Normal termination of Gaussian 09 at Mon Jan 27 11:29:19 2020.

 ----------------------------------------------------------------------
 #N Geom=AllCheck Guess=TCheck SCRF=Check GenChk RB3LYP/6-31G(2df,p) Fr
 eq
 ----------------------------------------------------------------------

 Structure from the checkpoint file:  "/scratch/puck/g09_06d0a9f6-ffdf-41c7-99d4-d8f77f164bd8/Gau-61263.chk"
 -----
 titel
 -----
 Charge =  0 Multiplicity = 1

                         Standard orientation:
 ---------------------------------------------------------------------
 Center     Atomic      Atomic             Coordinates (Angstroms)
 Number     Number       Type             X           Y           Z
 ---------------------------------------------------------------------
      1          6           0       -0.722548   -0.164872    1.328471
      2          6           0       -0.819066    1.107732    0.455299
      3          6           0        0.584988    1.642141    0.085203
      4          8           0        1.364132    0.725836   -0.667240
      5          6           0        1.727538   -0.461900   -0.014188
      6          8           0        0.812095   -1.523712   -0.121715
      7          6           0       -0.547924   -1.286047    0.287327
      8          6           0       -1.367777   -0.747393   -0.875697
      9          6           0       -1.529338    0.569913   -0.770765
     10          1           0        0.065840   -0.138728    2.084904
     11          1           0       -1.672682   -0.324817    1.845897
     12          1           0       -1.361556    1.917832    0.955996
     13          1           0        0.501695    2.534337   -0.543440
     14          1           0        1.116566    1.926995    1.007322
     15          1           0        2.629758   -0.828848   -0.510633
     16          1           0        1.956463   -0.242753    1.042958
     17          1           0       -0.896359   -2.256974    0.650599
     18          1           0       -1.692135   -1.374058   -1.697537
     19          1           0       -2.012645    1.212582   -1.498331
 ---------------------------------------------------------------------

 SCF Done:  E(RB3LYP) =  -423.191417483     A.U. after    1 cycles

 The electronic state is 1-A.
 Alpha  occ. eigenvalues --  -19.14179 -19.13357 -10.26790 -10.23256 -10.23175
 Alpha  occ. eigenvalues --  -10.19427 -10.18454 -10.18187 -10.17604  -1.05816
 Alpha  occ. eigenvalues --   -1.00039  -0.84916  -0.73374  -0.71293  -0.70404
 Alpha  occ. eigenvalues --   -0.60106  -0.57123  -0.53444  -0.51787  -0.51185
 Alpha  occ. eigenvalues --   -0.47196  -0.46037  -0.43776  -0.42315  -0.39762
 Alpha  occ. eigenvalues --   -0.39195  -0.36777  -0.35282  -0.33144  -0.31697
 Alpha  occ. eigenvalues --   -0.31293  -0.26659  -0.25915  -0.24396
 Alpha virt. eigenvalues --    0.01071   0.08736   0.10749   0.13021   0.13827
 Alpha virt. eigenvalues --    0.14825   0.15043   0.15976   0.16833   0.17204
 Alpha virt. eigenvalues --    0.17683   0.19195   0.19468   0.20449   0.21247

 Mulliken charges:
               1
     1  C   -0.271349
     2  C   -0.067724
     3  C   -0.091216
     4  O   -0.233410
     5  C    0.025000
     6  O   -0.271638
     7  C    0.088413
     8  C   -0.069519
     9  C   -0.053685
    10  H    0.100806
    11  H    0.106755
    12  H    0.070451
    13  H    0.110065
    14  H    0.092502
    15  H    0.114345
    16  H    0.075342
    17  H    0.080308
    18  H    0.097944
    19  H    0.096610
 Sum of Mulliken charges =   0.00000

 Dipole moment (field-independent basis, Debye):
    X=             -0.9688    Y=              1.0859    Z=              1.3774  Tot=              2.0037
 Quadrupole moment (field-independent basis, Debye-Ang):
   XX=            -52.4351   YY=            -52.5735   ZZ=            -52.8026
   XY=              0.2238   XZ=              2.1215   YZ=              0.3220

  Exact polarizability:  74.083  -1.383  82.450   3.699   1.567  67.347
 Approx polarizability: 103.861  -4.638 131.179   3.658   3.652 101.321

                      1                      2                      3
                      A                      A                      A
 Frequencies --    182.9575               232.1080               322.4237
 Red. masses --      5.7298                 2.4486                 3.1925
 Frc consts  --      0.1130                 0.0777                 0.1955
 IR Inten    --      4.3830                 1.0624                 0.5454

                      4                      5                      6
                      A                      A                      A
 Frequencies --    340.7973               401.9877               422.0178
 Red. masses --      3.4020                 2.2625                 3.0667
 Frc consts  --      0.2328                 0.2154                 0.3218
 IR Inten    --      1.4255                 4.7459                 3.6448

                      7                      8                      9
                      A                      A                      A
 Frequencies --    501.9678               542.0834               651.3208
 Red. masses --      2.1765                 3.7260                 4.2130
 Frc consts  --      0.3231                 0.6451                 1.0530
 IR Inten    --      4.7680                 1.3976                 8.5033

                     10                     11                     12
                      A                      A                      A
 Frequencies --    746.3131               774.5257               807.0781
 Red. masses --      1.8660                 3.4130                 3.2392
 Frc consts  --      0.6123                 1.2063                 1.2431
 IR Inten    --     20.8159                 6.4458                 1.9204

                     13                     14                     15
                      A                      A                      A
 Frequencies --    828.6169               847.0926               913.5733
 Red. masses --      3.6139                 2.6638                 2.2936
 Frc consts  --      1.4620                 1.1262                 1.1278
 IR Inten    --      3.4753                12.2117                 8.9086

                     16                     17                     18
                      A                      A                      A
 Frequencies --    931.6379               949.4961               973.1625
 Red. masses --      2.7271                 2.0645                 1.3970
 Frc consts  --      1.3946                 1.0966                 0.7795
 IR Inten    --     27.2716                 2.7082                 5.4456

                     19                     20                     21
                      A                      A                      A
 Frequencies --    993.3033              1010.2544              1032.0160
 Red. masses --      2.7258                 2.4119                 2.6035
 Frc consts  --      1.5845                 1.4503                 1.6337
 IR Inten    --      7.6684                25.1136                74.4044

                     22                     23                     24
                      A                      A                      A
 Frequencies --   1067.3558              1096.1736              1108.0340
 Red. masses --      1.8140                 2.3874                 2.4771
 Frc consts  --      1.2176                 1.6902                 1.7919
 IR Inten    --     23.9748                93.9188                46.1546

                     25                     26                     27
                      A                      A                      A
 Frequencies --   1131.4450              1177.3505              1211.7632
 Red. masses --      1.1616                 1.5983                 1.7563
 Frc consts  --      0.8762                 1.3053                 1.5194
 IR Inten    --      2.3074                28.0405                78.4644

                     28                     29                     30
                      A                      A                      A
 Frequencies --   1249.9479              1265.0473              1304.6997
 Red. masses --      1.9425                 1.3907                 1.3071
 Frc consts  --      1.7881                 1.3113                 1.3109
 IR Inten    --      6.4859                 2.0656                 2.6143

                     31                     32                     33
                      A                      A                      A
 Frequencies --   1317.4100              1327.5491              1343.9165
 Red. masses --      1.3726                 1.3494                 1.3280
 Frc consts  --      1.4036                 1.4012                 1.4131
 IR Inten    --      7.6728                 0.0903                 6.9413

                     34                     35                     36
                      A                      A                      A
 Frequencies --   1360.6955              1378.4280              1404.9909
 Red. masses --      1.4119                 1.3091                 1.3124
 Frc consts  --      1.5402                 1.4656                 1.5264
 IR Inten    --      3.5610                15.8992                 4.8373

                     37                     38                     39
                      A                      A                      A
 Frequencies --   1447.5017              1484.8503              1489.4999
 Red. masses --      1.1733                 1.1004                 1.0907
 Frc consts  --      1.4484                 1.4294                 1.4257
 IR Inten    --      7.2232                 4.6224                 3.6575

                     40                     41                     42
                      A                      A                      A
 Frequencies --   1515.3897              1675.4060              2947.3149
 Red. masses --      1.0922                 6.2342                 1.0699
 Frc consts  --      1.4778                10.3104                 5.4759
 IR Inten    --      5.1535                 1.1897                57.4135

                     43                     44                     45
                      A                      A                      A
 Frequencies --   2978.2849              3043.6272              3060.8858
 Red. masses --      1.0692                 1.0832                 1.0719
 Frc consts  --      5.5878                 5.9120                 5.9172
 IR Inten    --     63.4610                29.3395                25.6864

                     46                     47                     48
                      A                      A                      A
 Frequencies --   3073.8999              3078.8227              3092.8389
 Red. masses --      1.0775                 1.0932                 1.0932
 Frc consts  --      5.9987                 6.1057                 6.1612
 IR Inten    --     57.0019                29.9885                41.2829

                     49                     50                     51
                      A                      A                      A
 Frequencies --   3108.2262              3186.7896              3216.3536
 Red. masses --      1.1042                 1.0861                 1.1041
 Frc consts  --      6.2853                 6.4985                 6.7296
 IR Inten    --     23.6161                 8.4017                15.7200

 - Thermochemistry -
 -------------------
 Temperature   298.150 Kelvin.  Pressure   1.00000 Atm.
 Atom     1 has atomic number  6 and mass  12.00000

 Molecular mass:   126.06808 amu.
 Principal axes and moments of inertia in atomic units:
                           1         2         3
     Eigenvalues --   766.12808 852.847331152.66951
           X            0.99947   0.02238   0.02354
           Y           -0.02261   0.99970   0.00947
           Z           -0.02332  -0.00999   0.99968
 This molecule is an asymmetric top.
 Rotational symmetry number  1.
 Warning -- assumption of classical behavior for rotation
           may cause significant error
 Rotational temperatures (Kelvin)      0.11305     0.10156     0.07514
 Rotational constants (GHZ):           2.35567     2.11614     1.56571
 Zero-point vibrational energy     427959.4 (Joules/Mol)
                                  102.28476 (Kcal/Mol)
 Warning -- explicit consideration of   8 degrees of freedom as
           vibrations may cause significant error
 Vibrational temperatures:    263.23   333.95   463.90   490.33   578.37
          (Kelvin)            607.19   722.22   779.94   937.10  1073.78
                             1114.37  1161.20  1192.19  1218.78  1314.43
                             1340.42  1366.11  1400.16  1429.14  1453.53
                             1484.84  1535.69  1577.15  1594.21  1627.89
                             1693.94  1743.45  1798.39  1820.12  1877.17
                             1895.46  1910.04  1933.59  1957.73  1983.25
                             2021.47  2082.63  2136.37  2143.06  2180.31
                             2410.53  4240.52  4285.08  4379.10  4403.93
                             4422.65  4429.73  4449.90  4472.04  4585.07
                             4627.61

 Zero-point correction=                           0.163001 (Hartree/Particle)
 Thermal correction to Energy=                    0.169779
 Thermal correction to Enthalpy=                  0.170724
 Thermal correction to Gibbs Free Energy=         0.132233
 Sum of electronic and zero-point Energies=           -423.028416
 Sum of electronic and thermal Energies=              -423.021638
 Sum of electronic and thermal Enthalpies=            -423.020694
 Sum of electronic and thermal Free Energies=         -423.059185

                     E (Thermal)             CV                S
                      KCal/Mol        Cal/Mol-Kelvin    Cal/Mol-Kelvin
 Total                  106.538             28.316             81.011
 Electronic               0.000              0.000              0.000
 Translational            0.889              2.981             40.409
 Rotational               0.889              2.981             28.112
 Vibrational            104.761             22.354             12.490
 Vibration     1          0.630              1.863              2.298
 Vibration     2          0.653              1.792              1.863
 Vibration     3          0.707              1.631              1.298
 Vibration     4          0.720              1.594              1.208
 Vibration     5          0.768              1.466              0.955
 Vibration     6          0.784              1.422              0.885
 Vibration     7          0.857              1.246              0.653
 Vibration     8          0.897              1.157              0.561

 Optimization completed.
    -- Stationary point found.
 Normal termination of Gaussian 09 at Mon Jan 27 13:52:33 2020.
