 Gaussian 09, Revision D.01,
 Gaussian 09:  ES64L-G09RevD.01 24-Apr-2013

 -----------------------------
 # b3lyp 6-31G(2df,p) opt Freq
 -----------------------------

 -----
 titel
 -----
 Symbolic Z-matrix:
 Charge =  0 Multiplicity = 1

 SCF Done:  E(RB3LYP) =  -423.199125984     A.U. after   14 cycles
 Optimization completed.
    -- Stationary point found.
 Normal termination of Gaussian 09 at Tue Jan 28 08:15:22 2020.

 ----------------------------------------------------------------------
 #N Geom=AllCheck Guess=TCheck SCRF=Check GenChk RB3LYP/6-31G(2df,p) Fr
 eq
 ----------------------------------------------------------------------

 Structure from the checkpoint file:  "/scratch/puck/g09_01fa7d3a-5c63-4856-ac6b-575addb8f378/Gau-59929.chk"
 -----
 titel
 -----
 Charge =  0 Multiplicity = 1

                         Standard orientation:
 ---------------------------------------------------------------------
 Center     Atomic      Atomic             Coordinates (Angstroms)
 Number     Number       Type             X           Y           Z
 ---------------------------------------------------------------------
      1          6           0        3.876633   -0.541028   -0.001303
      2          8           0        2.487304   -0.893076   -0.002740
      3          6           0        1.628792    0.146304    0.002525
      4          8           0        1.977554    1.300755    0.007167
      5          6           0        0.195057   -0.340878    0.002542
      6          6           0       -0.811414    0.821330   -0.008073
      7          6           0       -2.193941    0.356499   -0.004259
      8          6           0       -3.326756   -0.051549   -0.000665
      9          6           0       -4.702413   -0.529133    0.003554
     10          1           0        4.421938   -1.484799   -0.009927
     11          1           0        4.125434    0.052972   -0.884381
     12          1           0        4.127502    0.037618    0.891391
     13          1           0        0.048385   -0.992948   -0.865013
     14          1           0        0.044764   -0.978525    0.880317
     15          1           0       -0.622303    1.465642    0.858074
     16          1           0       -0.622306    1.450188   -0.885590
     17          1           0       -4.745275   -1.622223   -0.059995
     18          1           0       -5.225783   -0.231353    0.918994
     19          1           0       -5.266976   -0.127272   -0.845202
 ---------------------------------------------------------------------

 SCF Done:  E(RB3LYP) =  -423.199125984     A.U. after    1 cycles

 The electronic state is 1-A.
 Alpha  occ. eigenvalues --  -19.18302 -19.12664 -10.30507 -10.23794 -10.20427
 Alpha  occ. eigenvalues --  -10.20081 -10.20056 -10.16868 -10.16472  -1.10182
 Alpha  occ. eigenvalues --   -1.01400  -0.80731  -0.76665  -0.73584  -0.69042
 Alpha  occ. eigenvalues --   -0.64251  -0.55954  -0.51126  -0.49244  -0.47554
 Alpha  occ. eigenvalues --   -0.46636  -0.45678  -0.43628  -0.42298  -0.42243
 Alpha  occ. eigenvalues --   -0.39866  -0.39465  -0.38894  -0.35620  -0.35498
 Alpha  occ. eigenvalues --   -0.30232  -0.27422  -0.24539  -0.24447
 Alpha virt. eigenvalues --    0.01435   0.06073   0.06702   0.10153   0.11302
 Alpha virt. eigenvalues --    0.11984   0.12882   0.14649   0.14958   0.15703
 Alpha virt. eigenvalues --    0.16931   0.18302   0.18472   0.21538   0.22063

 Mulliken charges:
               1
     1  C   -0.241822
     2  O   -0.236677
     3  C    0.450745
     4  O   -0.354765
     5  C   -0.317619
     6  C   -0.355351
     7  C    0.006475
     8  C    0.127649
     9  C   -0.497678
    10  H    0.133390
    11  H    0.140752
    12  H    0.140544
    13  H    0.141808
    14  H    0.142107
    15  H    0.140991
    16  H    0.140439
    17  H    0.145575
    18  H    0.146610
    19  H    0.146825
 Sum of Mulliken charges =   0.00000

 Dipole moment (field-independent basis, Debye):
    X=              0.0273    Y=             -1.7416    Z=             -0.0033  Tot=              1.7418
 Quadrupole moment (field-independent basis, Debye-Ang):
   XX=            -40.9009   YY=            -56.5332   ZZ=            -51.8516
   XY=             -1.9483   XZ=             -0.0328   YZ=             -0.0293

  Exact polarizability: 122.174   6.616  68.225  -0.086  -0.013  55.783
 Approx polarizability: 147.835  16.909 110.399  -0.163   0.017  83.544

                      1                      2                      3
                      A                      A                      A
 Frequencies --     18.3340                21.1201                49.0272
 Red. masses --      1.1135                 2.4536                 2.7179
 Frc consts  --      0.0002                 0.0006                 0.0038
 IR Inten    --      0.0098                 0.1601                 0.0012

                      4                      5                      6
                      A                      A                      A
 Frequencies --     69.1089               104.1945               166.9512
 Red. masses --      3.7383                 1.0977                 2.9216
 Frc consts  --      0.0105                 0.0070                 0.0480
 IR Inten    --      1.0348                 0.1898                 2.0847

                      7                      8                      9
                      A                      A                      A
 Frequencies --    177.4695               216.1684               279.7770
 Red. masses --      4.3748                 2.8239                 4.6443
 Frc consts  --      0.0812                 0.0777                 0.2142
 IR Inten    --      1.1954                12.7976                 1.9031

                     10                     11                     12
                      A                      A                      A
 Frequencies --    308.5466               389.5684               403.1928
 Red. masses --      4.2648                 3.9674                 5.1500
 Frc consts  --      0.2392                 0.3547                 0.4933
 IR Inten    --     25.4702                 0.0233                 2.0960

                     13                     14                     15
                      A                      A                      A
 Frequencies --    510.7094               584.2148               686.0291
 Red. masses --      5.3843                 2.1228                 4.7988
 Frc consts  --      0.8274                 0.4269                 1.3307
 IR Inten    --      2.1805                 2.3723                 8.2087

                     16                     17                     18
                      A                      A                      A
 Frequencies --    781.3030               782.4877               911.1668
 Red. masses --      1.6134                 3.1143                 4.2720
 Frc consts  --      0.5803                 1.1235                 2.0897
 IR Inten    --      5.5679                 3.2115                 7.3284

                     19                     20                     21
                      A                      A                      A
 Frequencies --   1003.7714              1034.9734              1053.7792
 Red. masses --      6.0678                 1.9375                 1.4385
 Frc consts  --      3.6021                 1.2228                 0.9412
 IR Inten    --      6.7939                 2.7590                 1.1254

                     22                     23                     24
                      A                      A                      A
 Frequencies --   1057.5326              1069.6806              1168.3751
 Red. masses --      1.4699                 3.5384                 3.4056
 Frc consts  --      0.9685                 2.3854                 2.7391
 IR Inten    --      0.0826                14.4499                14.2785

                     25                     26                     27
                      A                      A                      A
 Frequencies --   1177.9226              1180.3876              1197.2209
 Red. masses --      1.2377                 1.2364                 2.0304
 Frc consts  --      1.0118                 1.0150                 1.7147
 IR Inten    --      0.3446                 1.8084               221.5163

                     28                     29                     30
                      A                      A                      A
 Frequencies --   1214.3407              1300.4962              1312.9492
 Red. masses --      1.7391                 1.1038                 1.9545
 Frc consts  --      1.5109                 1.0999                 1.9851
 IR Inten    --    121.8729                 0.2810                95.3526

                     31                     32                     33
                      A                      A                      A
 Frequencies --   1389.9621              1415.6261              1456.8763
 Red. masses --      1.8175                 1.2472                 1.0697
 Frc consts  --      2.0688                 1.4726                 1.3377
 IR Inten    --     76.3103                 5.0720                10.2946

                     34                     35                     36
                      A                      A                      A
 Frequencies --   1472.6556              1474.7548              1479.1947
 Red. masses --      1.1915                 1.1056                 1.0398
 Frc consts  --      1.5224                 1.4168                 1.3404
 IR Inten    --     14.5361                12.2473                 4.8616

                     37                     38                     39
                      A                      A                      A
 Frequencies --   1479.6208              1480.9180              1497.7189
 Red. masses --      1.0399                 1.0473                 1.0598
 Frc consts  --      1.3414                 1.3532                 1.4007
 IR Inten    --      5.1282                 6.2922                 7.4659

                     40                     41                     42
                      A                      A                      A
 Frequencies --   1817.3079              2375.6935              3025.5691
 Red. masses --     11.3233                11.8192                 1.0348
 Frc consts  --     22.0333                39.3025                 5.5812
 IR Inten    --    192.4858                 0.2480                36.6322

                     43                     44                     45
                      A                      A                      A
 Frequencies --   3039.1820              3051.1040              3056.9762
 Red. masses --      1.0592                 1.0304                 1.0599
 Frc consts  --      5.7643                 5.6514                 5.8355
 IR Inten    --     11.5363                32.2956                10.8185

                     46                     47                     48
                      A                      A                      A
 Frequencies --   3065.8482              3085.2741              3085.7121
 Red. masses --      1.1004                 1.1001                 1.1002
 Frc consts  --      6.0940                 6.1695                 6.1721
 IR Inten    --      2.9826                11.6385                11.6553

                     49                     50                     51
                      A                      A                      A
 Frequencies --   3095.1939              3125.1853              3158.7094
 Red. masses --      1.1017                 1.1056                 1.1058
 Frc consts  --      6.2183                 6.3618                 6.5007
 IR Inten    --     10.4392                19.5853                15.9018

 - Thermochemistry -
 -------------------
 Temperature   298.150 Kelvin.  Pressure   1.00000 Atm.
 Atom     1 has atomic number  6 and mass  12.00000

 Molecular mass:   126.06808 amu.
 Principal axes and moments of inertia in atomic units:
                           1         2         3
     Eigenvalues --   269.159653489.207543713.84516
           X            1.00000   0.00171  -0.00007
           Y           -0.00171   1.00000  -0.00056
           Z            0.00007   0.00056   1.00000
 This molecule is an asymmetric top.
 Rotational symmetry number  1.
 Rotational temperatures (Kelvin)      0.32179     0.02482     0.02332
 Rotational constants (GHZ):           6.70510     0.51724     0.48595
 Zero-point vibrational energy     408882.9 (Joules/Mol)
                                   97.72536 (Kcal/Mol)
 Warning -- explicit consideration of  14 degrees of freedom as
           vibrations may cause significant error
 Vibrational temperatures:     26.38    30.39    70.54    99.43   149.91
          (Kelvin)            240.21   255.34   311.02   402.54   443.93
                              560.50   580.10   734.80   840.55   987.04
                             1124.12  1125.82  1310.96  1444.20  1489.09
                             1516.15  1521.55  1539.03  1681.03  1694.77
                             1698.31  1722.53  1747.16  1871.12  1889.04
                             1999.84  2036.77  2096.12  2118.82  2121.84
                             2128.23  2128.84  2130.71  2154.88  2614.70
                             3418.09  4353.11  4372.70  4389.85  4398.30
                             4411.07  4439.02  4439.65  4453.29  4496.44
                             4544.67

 Zero-point correction=                           0.155735 (Hartree/Particle)
 Thermal correction to Energy=                    0.166998
 Thermal correction to Enthalpy=                  0.167942
 Thermal correction to Gibbs Free Energy=         0.115552
 Sum of electronic and zero-point Energies=           -423.043391
 Sum of electronic and thermal Energies=              -423.032128
 Sum of electronic and thermal Enthalpies=            -423.031184
 Sum of electronic and thermal Free Energies=         -423.083574

                     E (Thermal)             CV                S
                      KCal/Mol        Cal/Mol-Kelvin    Cal/Mol-Kelvin
 Total                  104.793             36.537            110.264
 Electronic               0.000              0.000              0.000
 Translational            0.889              2.981             40.409
 Rotational               0.889              2.981             29.635
 Vibrational            103.015             30.576             40.221
 Vibration     1          0.593              1.986              6.807
 Vibration     2          0.593              1.985              6.526
 Vibration     3          0.595              1.978              4.856
 Vibration     4          0.598              1.969              4.179
 Vibration     5          0.605              1.946              3.374
 Vibration     6          0.624              1.883              2.470
 Vibration     7          0.628              1.870              2.355
 Vibration     8          0.645              1.816              1.991
 Vibration     9          0.680              1.711              1.535
 Vibration    10          0.698              1.657              1.370
 Vibration    11          0.757              1.492              1.002
 Vibration    12          0.769              1.463              0.951
 Vibration    13          0.866              1.226              0.632
 Vibration    14          0.941              1.065              0.478

 Optimization completed on the basis of negligible forces.
    -- Stationary point found.
 Normal termination of Gaussian 09 at Tue Jan 28 09:30:56 2020.
