 Gaussian 09, Revision D.01,
 Gaussian 09:  ES64L-G09RevD.01 24-Apr-2013

 -----------------------------
 # b3lyp 6-31G(2df,p) opt Freq
 -----------------------------

 -----
 titel
 -----
 Symbolic Z-matrix:
 Charge =  0 Multiplicity = 1

 SCF Done:  E(RB3LYP) =  -423.190375725     A.U. after   13 cycles
 Optimization completed.
    -- Stationary point found.
 Normal termination of Gaussian 09 at Mon Jan 27 22:04:24 2020.

 ----------------------------------------------------------------------
 #N Geom=AllCheck Guess=TCheck SCRF=Check GenChk RB3LYP/6-31G(2df,p) Fr
 eq
 ----------------------------------------------------------------------

 Structure from the checkpoint file:  "/scratch/puck/g09_143ad585-de77-4d71-b0b0-c4ee00ab8ef9/Gau-14901.chk"
 -----
 titel
 -----
 Charge =  0 Multiplicity = 1

                         Standard orientation:
 ---------------------------------------------------------------------
 Center     Atomic      Atomic             Coordinates (Angstroms)
 Number     Number       Type             X           Y           Z
 ---------------------------------------------------------------------
      1          6           0        2.265808   -0.971011    0.337851
      2          6           0        0.860506   -0.708372   -0.086673
      3          6           0       -0.127818   -1.552790   -0.395777
      4          6           0       -1.357838   -0.670107   -0.545385
      5          8           0       -1.752930   -0.267486    0.792846
      6          6           0       -0.743486    0.672134    1.164261
      7          6           0        0.195757    0.677991   -0.092292
      8          6           0        1.034358    1.907503   -0.328366
      9          8           0       -0.828553    0.511778   -1.098203
     10          1           0        2.449956   -0.608276    1.357562
     11          1           0        2.492233   -2.040172    0.318036
     12          1           0        2.986147   -0.457277   -0.310341
     13          1           0       -0.120955   -2.634284   -0.390009
     14          1           0       -2.231143   -1.030654   -1.084509
     15          1           0       -1.194585    1.660224    1.311372
     16          1           0       -0.235305    0.357897    2.082538
     17          1           0        1.764857    2.037219    0.476191
     18          1           0        1.575708    1.830476   -1.275444
     19          1           0        0.401228    2.798416   -0.364248
 ---------------------------------------------------------------------

 SCF Done:  E(RB3LYP) =  -423.190375725     A.U. after    1 cycles

 The electronic state is 1-A.
 Alpha  occ. eigenvalues --  -19.14102 -19.13345 -10.27338 -10.24488 -10.22565
 Alpha  occ. eigenvalues --  -10.19274 -10.19235 -10.18635 -10.17668  -1.08957
 Alpha  occ. eigenvalues --   -0.98183  -0.81281  -0.77713  -0.71277  -0.69506
 Alpha  occ. eigenvalues --   -0.61351  -0.58536  -0.53541  -0.50842  -0.49285
 Alpha  occ. eigenvalues --   -0.45176  -0.44459  -0.41824  -0.41441  -0.41303
 Alpha  occ. eigenvalues --   -0.40421  -0.38216  -0.37827  -0.36448  -0.33626
 Alpha  occ. eigenvalues --   -0.31378  -0.27681  -0.25805  -0.23399
 Alpha virt. eigenvalues --    0.00969   0.07794   0.11948   0.12791   0.12989
 Alpha virt. eigenvalues --    0.13631   0.14262   0.14571   0.15767   0.16291
 Alpha virt. eigenvalues --    0.17148   0.18504   0.20501   0.21567   0.22156

 Mulliken charges:
               1
     1  C   -0.510383
     2  C    0.306394
     3  C   -0.208378
     4  C    0.123484
     5  O   -0.276312
     6  C   -0.103326
     7  C    0.241818
     8  C   -0.499342
     9  O   -0.256217
    10  H    0.130771
    11  H    0.131687
    12  H    0.132124
    13  H    0.105942
    14  H    0.089672
    15  H    0.102674
    16  H    0.097813
    17  H    0.123572
    18  H    0.134413
    19  H    0.133595
 Sum of Mulliken charges =   0.00000

 Dipole moment (field-independent basis, Debye):
    X=              2.1995    Y=             -0.1090    Z=              0.5107  Tot=              2.2606
 Quadrupole moment (field-independent basis, Debye-Ang):
   XX=            -53.5801   YY=            -49.6817   ZZ=            -55.0932
   XY=              1.0494   XZ=              2.2860   YZ=              2.4331

  Exact polarizability:  82.974   3.938  79.583   3.846   4.819  62.488
 Approx polarizability: 122.918  12.337 115.326   7.306   8.073  98.859

                      1                      2                      3
                      A                      A                      A
 Frequencies --    153.2312               171.3380               202.7049
 Red. masses --      1.7205                 1.3162                 1.0988
 Frc consts  --      0.0238                 0.0228                 0.0266
 IR Inten    --      0.2748                 0.0460                 0.1713

                      4                      5                      6
                      A                      A                      A
 Frequencies --    230.7241               270.7834               301.1118
 Red. masses --      2.4685                 2.4469                 2.6145
 Frc consts  --      0.0774                 0.1057                 0.1397
 IR Inten    --      0.3665                 2.2618                 0.9139

                      7                      8                      9
                      A                      A                      A
 Frequencies --    400.9123               464.2418               528.8514
 Red. masses --      2.4907                 4.0387                 3.1634
 Frc consts  --      0.2359                 0.5128                 0.5213
 IR Inten    --      1.9750                 6.8701                 0.1912

                     10                     11                     12
                      A                      A                      A
 Frequencies --    586.4469               641.3645               670.5218
 Red. masses --      4.6507                 3.6440                 6.1291
 Frc consts  --      0.9424                 0.8832                 1.6236
 IR Inten    --      1.9712                 6.4836                 7.5902

                     13                     14                     15
                      A                      A                      A
 Frequencies --    742.1584               801.2210               832.8740
 Red. masses --      3.9057                 1.9686                 2.9182
 Frc consts  --      1.2675                 0.7446                 1.1927
 IR Inten    --      3.1953                 6.6022                62.1380

                     16                     17                     18
                      A                      A                      A
 Frequencies --    843.6436               877.1640               892.5983
 Red. masses --      3.7101                 2.7811                 3.5182
 Frc consts  --      1.5558                 1.2608                 1.6515
 IR Inten    --     23.4691                37.8153                24.3901

                     19                     20                     21
                      A                      A                      A
 Frequencies --    935.7798               996.0048              1009.5897
 Red. masses --      1.9930                 2.4006                 1.5444
 Frc consts  --      1.0283                 1.4031                 0.9275
 IR Inten    --     16.3411                19.1475                13.1564

                     22                     23                     24
                      A                      A                      A
 Frequencies --   1012.6067              1061.3103              1065.2389
 Red. masses --      2.1287                 3.7304                 1.5951
 Frc consts  --      1.2860                 2.4757                 1.0664
 IR Inten    --     10.7768                40.3112                 2.4062

                     25                     26                     27
                      A                      A                      A
 Frequencies --   1142.8130              1161.0997              1196.5698
 Red. masses --      1.8978                 2.1395                 1.8090
 Frc consts  --      1.4604                 1.6994                 1.5260
 IR Inten    --      9.6728                 6.8184                19.2158

                     28                     29                     30
                      A                      A                      A
 Frequencies --   1214.9977              1264.5610              1279.9305
 Red. masses --      1.7295                 1.8491                 1.3736
 Frc consts  --      1.5042                 1.7422                 1.3258
 IR Inten    --     18.5300                 2.3514                 2.1237

                     31                     32                     33
                      A                      A                      A
 Frequencies --   1322.4063              1324.5520              1368.2731
 Red. masses --      1.6878                 1.7552                 1.8160
 Frc consts  --      1.7390                 1.8143                 2.0032
 IR Inten    --     13.5124                20.0258                 2.2997

                     34                     35                     36
                      A                      A                      A
 Frequencies --   1413.6550              1418.2603              1477.4216
 Red. masses --      1.3280                 1.3941                 1.0465
 Frc consts  --      1.5637                 1.6521                 1.3458
 IR Inten    --      6.6250                 6.6026                 8.1455

                     37                     38                     39
                      A                      A                      A
 Frequencies --   1477.9087              1490.1972              1496.1997
 Red. masses --      1.0514                 1.0591                 1.0488
 Frc consts  --      1.3530                 1.3858                 1.3833
 IR Inten    --      5.4623                 2.3571                 5.9259

                     40                     41                     42
                      A                      A                      A
 Frequencies --   1512.3607              1693.9898              3017.9608
 Red. masses --      1.0891                 7.4290                 1.0390
 Frc consts  --      1.4677                12.5603                 5.5759
 IR Inten    --      0.2930                 7.5019                20.1278

                     43                     44                     45
                      A                      A                      A
 Frequencies --   3025.7032              3044.3102              3064.2478
 Red. masses --      1.0547                 1.0356                 1.0977
 Frc consts  --      5.6888                 5.6547                 6.0726
 IR Inten    --     44.6113                16.9853                15.4908

                     46                     47                     48
                      A                      A                      A
 Frequencies --   3073.8345              3113.1619              3115.9067
 Red. masses --      1.1106                 1.0989                 1.1007
 Frc consts  --      6.1826                 6.2748                 6.2962
 IR Inten    --     33.1806                21.1127                11.8927

                     49                     50                     51
                      A                      A                      A
 Frequencies --   3120.9979              3154.8450              3226.0663
 Red. masses --      1.1021                 1.0928                 1.0977
 Frc consts  --      6.3252                 6.4086                 6.7307
 IR Inten    --     13.4663                35.3439                 6.7288

 - Thermochemistry -
 -------------------
 Temperature   298.150 Kelvin.  Pressure   1.00000 Atm.
 Atom     1 has atomic number  6 and mass  12.00000

 Molecular mass:   126.06808 amu.
 Principal axes and moments of inertia in atomic units:
                           1         2         3
     Eigenvalues --   743.15612 969.094261245.74972
           X            0.99984   0.00453   0.01707
           Y           -0.00483   0.99983   0.01773
           Z           -0.01699  -0.01781   0.99970
 This molecule is an asymmetric top.
 Rotational symmetry number  1.
 Warning -- assumption of classical behavior for rotation
           may cause significant error
 Rotational temperatures (Kelvin)      0.11655     0.08938     0.06953
 Rotational constants (GHZ):           2.42848     1.86230     1.44872
 Zero-point vibrational energy     418122.7 (Joules/Mol)
                                   99.93372 (Kcal/Mol)
 Warning -- explicit consideration of  10 degrees of freedom as
           vibrations may cause significant error
 Vibrational temperatures:    220.47   246.52   291.65   331.96   389.60
          (Kelvin)            433.23   576.82   667.94   760.90   843.77
                              922.78   964.73  1067.80  1152.78  1198.32
                             1213.81  1262.04  1284.25  1346.38  1433.03
                             1452.57  1456.91  1526.99  1532.64  1644.25
                             1670.56  1721.59  1748.11  1819.42  1841.53
                             1902.65  1905.73  1968.64  2033.93  2040.56
                             2125.68  2126.38  2144.06  2152.70  2175.95
                             2437.27  4342.17  4353.31  4380.08  4408.76
                             4422.56  4479.14  4483.09  4490.41  4539.11
                             4641.58

 Zero-point correction=                           0.159255 (Hartree/Particle)
 Thermal correction to Energy=                    0.167282
 Thermal correction to Enthalpy=                  0.168226
 Thermal correction to Gibbs Free Energy=         0.127219
 Sum of electronic and zero-point Energies=           -423.031121
 Sum of electronic and thermal Energies=              -423.023094
 Sum of electronic and thermal Enthalpies=            -423.022150
 Sum of electronic and thermal Free Energies=         -423.063157

                     E (Thermal)             CV                S
                      KCal/Mol        Cal/Mol-Kelvin    Cal/Mol-Kelvin
 Total                  104.971             31.678             86.306
 Electronic               0.000              0.000              0.000
 Translational            0.889              2.981             40.409
 Rotational               0.889              2.981             28.286
 Vibrational            103.193             25.716             17.612
 Vibration     1          0.619              1.899              2.632
 Vibration     2          0.626              1.878              2.421
 Vibration     3          0.639              1.836              2.108
 Vibration     4          0.652              1.794              1.873
 Vibration     5          0.674              1.727              1.591
 Vibration     6          0.693              1.672              1.411
 Vibration     7          0.767              1.468              0.959
 Vibration     8          0.822              1.329              0.754
 Vibration     9          0.884              1.186              0.590
 Vibration    10          0.944              1.061              0.474

 Optimization completed.
    -- Stationary point found.
 Normal termination of Gaussian 09 at Mon Jan 27 22:56:25 2020.
