 Gaussian 09, Revision D.01,
 Gaussian 09:  ES64L-G09RevD.01 24-Apr-2013

 -----------------------------
 # b3lyp 6-31G(2df,p) opt Freq
 -----------------------------

 -----
 titel
 -----
 Symbolic Z-matrix:
 Charge =  0 Multiplicity = 1

 SCF Done:  E(RB3LYP) =  -423.190001240     A.U. after   14 cycles
 Optimization completed.
    -- Stationary point found.
 Normal termination of Gaussian 09 at Mon Jan 27 12:40:35 2020.

 ----------------------------------------------------------------------
 #N Geom=AllCheck Guess=TCheck SCRF=Check GenChk RB3LYP/6-31G(2df,p) Fr
 eq
 ----------------------------------------------------------------------

 Structure from the checkpoint file:  "/scratch/puck/g09_5316cfba-6e3f-46bc-a1aa-cbd1cff35316/Gau-73622.chk"
 -----
 titel
 -----
 Charge =  0 Multiplicity = 1

                         Standard orientation:
 ---------------------------------------------------------------------
 Center     Atomic      Atomic             Coordinates (Angstroms)
 Number     Number       Type             X           Y           Z
 ---------------------------------------------------------------------
      1          6           0        0.716856    0.603389    1.343990
      2          8           0        0.322780   -0.773090    1.323080
      3          6           0        0.103482   -1.347927    0.053864
      4          8           0       -1.218447   -1.097638   -0.423301
      5          6           0       -1.755432    0.169886   -0.073331
      6          6           0       -0.903771    1.391062   -0.467204
      7          6           0        0.581742    1.278966   -0.031785
      8          6           0        1.366908    0.425592   -1.005130
      9          6           0        1.132144   -0.880598   -0.956467
     10          1           0        0.086210    1.103620    2.089503
     11          1           0        1.759823    0.663500    1.681453
     12          1           0        0.146647   -2.429172    0.207747
     13          1           0       -2.726040    0.218304   -0.575856
     14          1           0       -1.944899    0.198271    1.008305
     15          1           0       -0.945721    1.550615   -1.549401
     16          1           0       -1.363211    2.267902    0.006015
     17          1           0        1.012657    2.282624    0.037341
     18          1           0        2.072502    0.880086   -1.693139
     19          1           0        1.615799   -1.612157   -1.593829
 ---------------------------------------------------------------------

 SCF Done:  E(RB3LYP) =  -423.190001240     A.U. after    1 cycles

 The electronic state is 1-A.
 Alpha  occ. eigenvalues --  -19.14284 -19.12935 -10.27416 -10.23183 -10.22335
 Alpha  occ. eigenvalues --  -10.19874 -10.18686 -10.18581 -10.17998  -1.06060
 Alpha  occ. eigenvalues --   -0.99490  -0.82261  -0.78088  -0.71200  -0.67413
 Alpha  occ. eigenvalues --   -0.62648  -0.57891  -0.53154  -0.51319  -0.49896
 Alpha  occ. eigenvalues --   -0.47051  -0.44182  -0.42859  -0.41562  -0.41275
 Alpha  occ. eigenvalues --   -0.40705  -0.39006  -0.35144  -0.34335  -0.31593
 Alpha  occ. eigenvalues --   -0.29981  -0.26884  -0.25725  -0.23808
 Alpha virt. eigenvalues --    0.00468   0.07930   0.10926   0.12983   0.13217
 Alpha virt. eigenvalues --    0.13875   0.15065   0.16379   0.17323   0.17413
 Alpha virt. eigenvalues --    0.17868   0.19366   0.19849   0.20063   0.22545

 Mulliken charges:
               1
     1  C   -0.076615
     2  O   -0.266838
     3  C    0.158306
     4  O   -0.268958
     5  C   -0.060594
     6  C   -0.226719
     7  C   -0.075977
     8  C   -0.094462
     9  C   -0.060789
    10  H    0.103537
    11  H    0.101660
    12  H    0.088695
    13  H    0.104115
    14  H    0.103384
    15  H    0.106318
    16  H    0.095986
    17  H    0.072535
    18  H    0.095655
    19  H    0.100761
 Sum of Mulliken charges =   0.00000

 Dipole moment (field-independent basis, Debye):
    X=              0.8445    Y=              1.9392    Z=             -0.4274  Tot=              2.1579
 Quadrupole moment (field-independent basis, Debye-Ang):
   XX=            -52.3499   YY=            -51.1574   ZZ=            -54.4637
   XY=             -1.9029   XZ=             -1.7029   YZ=              1.5442

  Exact polarizability:  73.487  -0.835  81.098  -3.298   2.725  67.372
 Approx polarizability: 102.306   2.832 128.723  -3.573   3.431 101.035

                      1                      2                      3
                      A                      A                      A
 Frequencies --    192.3523               251.6534               283.7134
 Red. masses --      2.9962                 2.7256                 3.0788
 Frc consts  --      0.0653                 0.1017                 0.1460
 IR Inten    --      2.9681                 3.8992                 4.2871

                      4                      5                      6
                      A                      A                      A
 Frequencies --    342.1567               360.0242               442.6515
 Red. masses --      2.6428                 2.4566                 4.3232
 Frc consts  --      0.1823                 0.1876                 0.4991
 IR Inten    --      0.2844                 0.1454                 5.7585

                      7                      8                      9
                      A                      A                      A
 Frequencies --    505.1666               591.3185               608.1523
 Red. masses --      3.9026                 4.8641                 3.4154
 Frc consts  --      0.5868                 1.0021                 0.7442
 IR Inten    --      1.6185                 1.7042                 1.1736

                     10                     11                     12
                      A                      A                      A
 Frequencies --    698.7814               730.1792               775.7894
 Red. masses --      2.5816                 1.7633                 3.0254
 Frc consts  --      0.7427                 0.5539                 1.0728
 IR Inten    --      6.5385                 6.7591                 3.0325

                     13                     14                     15
                      A                      A                      A
 Frequencies --    821.6890               855.0336               914.1217
 Red. masses --      3.1962                 2.9601                 2.2732
 Frc consts  --      1.2715                 1.2750                 1.1192
 IR Inten    --      8.6874                13.0786                 0.4370

                     16                     17                     18
                      A                      A                      A
 Frequencies --    945.6573               956.6557               972.0126
 Red. masses --      2.8453                 2.5305                 1.3367
 Frc consts  --      1.4991                 1.3645                 0.7441
 IR Inten    --     66.0229                53.8077                 0.8833

                     19                     20                     21
                      A                      A                      A
 Frequencies --    984.7073              1008.1439              1023.4356
 Red. masses --      3.3536                 2.5291                 2.1448
 Frc consts  --      1.9159                 1.5145                 1.3236
 IR Inten    --      4.6991                33.9677                20.7522

                     22                     23                     24
                      A                      A                      A
 Frequencies --   1056.6878              1091.8892              1123.4239
 Red. masses --      2.6601                 2.4678                 2.3207
 Frc consts  --      1.7500                 1.7335                 1.7257
 IR Inten    --     41.4627                43.0984                22.1407

                     25                     26                     27
                      A                      A                      A
 Frequencies --   1139.7491              1191.3507              1234.5666
 Red. masses --      2.0099                 1.5991                 1.1929
 Frc consts  --      1.5383                 1.3372                 1.0712
 IR Inten    --     63.2775                47.3973                 7.6023

                     28                     29                     30
                      A                      A                      A
 Frequencies --   1239.3445              1279.0905              1317.6242
 Red. masses --      1.1292                 1.4557                 1.2890
 Frc consts  --      1.0219                 1.4032                 1.3185
 IR Inten    --      0.6589                 4.5508                 3.2613

                     31                     32                     33
                      A                      A                      A
 Frequencies --   1347.3868              1356.6866              1368.1605
 Red. masses --      1.2817                 1.3604                 1.2994
 Frc consts  --      1.3710                 1.4753                 1.4330
 IR Inten    --      0.3133                 1.8324                 2.1481

                     34                     35                     36
                      A                      A                      A
 Frequencies --   1383.5146              1397.7395              1413.0524
 Red. masses --      1.2044                 1.6903                 1.3618
 Frc consts  --      1.3583                 1.9457                 1.6021
 IR Inten    --      2.7781                17.3815                 3.2564

                     37                     38                     39
                      A                      A                      A
 Frequencies --   1421.0798              1481.2496              1503.6401
 Red. masses --      1.2578                 1.0862                 1.0862
 Frc consts  --      1.4966                 1.4042                 1.4470
 IR Inten    --      5.7403                 2.3330                 2.1472

                     40                     41                     42
                      A                      A                      A
 Frequencies --   1515.3549              1714.1349              3010.2225
 Red. masses --      1.0853                 6.3412                 1.0607
 Frc consts  --      1.4684                10.9778                 5.6631
 IR Inten    --      1.5636                 3.1864                36.9372

                     43                     44                     45
                      A                      A                      A
 Frequencies --   3011.4519              3027.9857              3050.0666
 Red. masses --      1.0649                 1.0635                 1.1072
 Frc consts  --      5.6901                 5.7452                 6.0686
 IR Inten    --     52.4176                28.2967                40.2003

                     46                     47                     48
                      A                      A                      A
 Frequencies --   3059.9618              3074.4450              3079.9139
 Red. masses --      1.0842                 1.0958                 1.0895
 Frc consts  --      5.9811                 6.1024                 6.0892
 IR Inten    --     46.2874                35.9097                36.3616

                     49                     50                     51
                      A                      A                      A
 Frequencies --   3087.8020              3171.5456              3200.3806
 Red. masses --      1.1003                 1.0860                 1.1010
 Frc consts  --      6.1808                 6.4361                 6.6443
 IR Inten    --     39.8047                 9.0884                18.3221

 - Thermochemistry -
 -------------------
 Temperature   298.150 Kelvin.  Pressure   1.00000 Atm.
 Atom     1 has atomic number  6 and mass  12.00000

 Molecular mass:   126.06808 amu.
 Principal axes and moments of inertia in atomic units:
                           1         2         3
     Eigenvalues --   812.62453 860.93903 996.89483
           X            0.97309  -0.22727  -0.03807
           Y            0.22895   0.97226   0.04780
           Z            0.02616  -0.05523   0.99813
 This molecule is an asymmetric top.
 Rotational symmetry number  1.
 Warning -- assumption of classical behavior for rotation
           may cause significant error
 Rotational temperatures (Kelvin)      0.10659     0.10060     0.08688
 Rotational constants (GHZ):           2.22088     2.09625     1.81036
 Zero-point vibrational energy     428340.2 (Joules/Mol)
                                  102.37578 (Kcal/Mol)
 Warning -- explicit consideration of   9 degrees of freedom as
           vibrations may cause significant error
 Vibrational temperatures:    276.75   362.07   408.20   492.29   517.99
          (Kelvin)            636.88   726.82   850.77   874.99  1005.39
                             1050.56  1116.19  1182.23  1230.20  1315.22
                             1360.59  1376.41  1398.51  1416.77  1450.49
                             1472.49  1520.34  1570.98  1616.35  1639.84
                             1714.09  1776.26  1783.14  1840.32  1895.77
                             1938.59  1951.97  1968.48  1990.57  2011.03
                             2033.06  2044.61  2131.19  2163.40  2180.25
                             2466.25  4331.03  4332.80  4356.59  4388.36
                             4402.60  4423.44  4431.30  4442.65  4563.14
                             4604.63

 Zero-point correction=                           0.163146 (Hartree/Particle)
 Thermal correction to Energy=                    0.169974
 Thermal correction to Enthalpy=                  0.170919
 Thermal correction to Gibbs Free Energy=         0.132402
 Sum of electronic and zero-point Energies=           -423.026855
 Sum of electronic and thermal Energies=              -423.020027
 Sum of electronic and thermal Enthalpies=            -423.019083
 Sum of electronic and thermal Free Energies=         -423.057599

                     E (Thermal)             CV                S
                      KCal/Mol        Cal/Mol-Kelvin    Cal/Mol-Kelvin
 Total                  106.661             28.484             81.065
 Electronic               0.000              0.000              0.000
 Translational            0.889              2.981             40.409
 Rotational               0.889              2.981             28.036
 Vibrational            104.883             22.522             12.621
 Vibration     1          0.634              1.850              2.205
 Vibration     2          0.664              1.760              1.719
 Vibration     3          0.682              1.704              1.511
 Vibration     4          0.721              1.591              1.202
 Vibration     5          0.735              1.555              1.122
 Vibration     6          0.802              1.377              0.818
 Vibration     7          0.860              1.239              0.645
 Vibration     8          0.949              1.050              0.465
 Vibration     9          0.967              1.015              0.436

 Optimization completed.
    -- Stationary point found.
 Normal termination of Gaussian 09 at Mon Jan 27 13:26:28 2020.
