 Gaussian 09, Revision D.01,
 Gaussian 09:  ES64L-G09RevD.01 24-Apr-2013

 -----------------------------
 # b3lyp 6-31G(2df,p) opt Freq
 -----------------------------

 -----
 titel
 -----
 Symbolic Z-matrix:
 Charge =  0 Multiplicity = 1

 SCF Done:  E(RB3LYP) =  -423.205482195     A.U. after   14 cycles
 Optimization completed.
    -- Stationary point found.
 Normal termination of Gaussian 09 at Tue Jan 28 00:04:50 2020.

 ----------------------------------------------------------------------
 #N Geom=AllCheck Guess=TCheck SCRF=Check GenChk RB3LYP/6-31G(2df,p) Fr
 eq
 ----------------------------------------------------------------------

 Structure from the checkpoint file:  "/scratch/puck/g09_56c6e5c4-64ee-43d0-b48e-9f76007b040c/Gau-71692.chk"
 -----
 titel
 -----
 Charge =  0 Multiplicity = 1

                         Standard orientation:
 ---------------------------------------------------------------------
 Center     Atomic      Atomic             Coordinates (Angstroms)
 Number     Number       Type             X           Y           Z
 ---------------------------------------------------------------------
      1          8           0       -2.824583    0.261090    0.262516
      2          6           0       -1.470430    0.002460    0.448407
      3          6           0       -0.805916   -0.861418   -0.558435
      4          6           0        0.258452   -1.873852   -0.130029
      5          6           0        1.673905   -1.279037   -0.071739
      6          6           0        1.693390    0.059819    0.688901
      7          6           0        0.856466    1.098497   -0.047682
      8          8           0        1.262547    2.220386   -0.268988
      9          6           0       -0.473650    0.637998   -0.527532
     10          1           0       -3.009121    1.151315    0.581578
     11          1           0       -1.153409   -0.099799    1.487304
     12          1           0       -1.448854   -1.151572   -1.382789
     13          1           0       -0.002887   -2.281831    0.854588
     14          1           0        0.247109   -2.720055   -0.823755
     15          1           0        2.360050   -1.990498    0.399547
     16          1           0        2.045916   -1.112281   -1.090200
     17          1           0        1.285756   -0.087060    1.699532
     18          1           0        2.703194    0.461945    0.797885
     19          1           0       -0.924760    1.271222   -1.283274
 ---------------------------------------------------------------------

 SCF Done:  E(RB3LYP) =  -423.205482195     A.U. after    1 cycles

 The electronic state is 1-A.
 Alpha  occ. eigenvalues --  -19.15605 -19.11574 -10.26067 -10.25185 -10.20459
 Alpha  occ. eigenvalues --  -10.19595 -10.19583 -10.19460 -10.18916  -1.04287
 Alpha  occ. eigenvalues --   -1.02649  -0.87404  -0.79234  -0.72897  -0.64283
 Alpha  occ. eigenvalues --   -0.62366  -0.58894  -0.53877  -0.52209  -0.47550
 Alpha  occ. eigenvalues --   -0.47250  -0.45016  -0.43409  -0.41640  -0.40134
 Alpha  occ. eigenvalues --   -0.39281  -0.37670  -0.36671  -0.34358  -0.33775
 Alpha  occ. eigenvalues --   -0.32444  -0.29587  -0.26442  -0.23165
 Alpha virt. eigenvalues --   -0.00850   0.06960   0.07847   0.09373   0.11510
 Alpha virt. eigenvalues --    0.13323   0.14014   0.14887   0.17014   0.17245
 Alpha virt. eigenvalues --    0.17539   0.18297   0.20700   0.22037   0.22652

 Mulliken charges:
               1
     1  O   -0.423887
     2  C    0.095578
     3  C   -0.066404
     4  C   -0.232125
     5  C   -0.201962
     6  C   -0.311833
     7  C    0.398340
     8  O   -0.339418
     9  C   -0.183851
    10  H    0.292843
    11  H    0.091817
    12  H    0.108920
    13  H    0.105977
    14  H    0.109122
    15  H    0.103047
    16  H    0.111841
    17  H    0.112775
    18  H    0.121236
    19  H    0.107985
 Sum of Mulliken charges =   0.00000

 Dipole moment (field-independent basis, Debye):
    X=             -0.6153    Y=             -2.0952    Z=              0.9615  Tot=              2.3860
 Quadrupole moment (field-independent basis, Debye-Ang):
   XX=            -55.4391   YY=            -57.8896   ZZ=            -50.7260
   XY=             -8.7197   XZ=             -0.1440   YZ=              2.3408

  Exact polarizability:  84.435   0.866  81.502   1.251  -0.816  62.531
 Approx polarizability: 116.160   9.113 124.323  -1.433  -3.808  98.564

                      1                      2                      3
                      A                      A                      A
 Frequencies --     84.8230               154.0779               222.1803
 Red. masses --      3.3573                 4.5367                 2.2627
 Frc consts  --      0.0142                 0.0635                 0.0658
 IR Inten    --      2.7543                 4.0386                 4.1930

                      4                      5                      6
                      A                      A                      A
 Frequencies --    262.8467               295.8186               342.4194
 Red. masses --      2.8651                 2.0442                 1.3128
 Frc consts  --      0.1166                 0.1054                 0.0907
 IR Inten    --     10.2310                 5.7768               111.3224

                      7                      8                      9
                      A                      A                      A
 Frequencies --    387.1572               429.0706               463.8015
 Red. masses --      4.7804                 2.3915                 5.3651
 Frc consts  --      0.4222                 0.2594                 0.6800
 IR Inten    --      2.3170                 2.5781                 2.0947

                     10                     11                     12
                      A                      A                      A
 Frequencies --    504.8759               568.7721               709.3287
 Red. masses --      3.7386                 2.9966                 2.7397
 Frc consts  --      0.5615                 0.5712                 0.8122
 IR Inten    --     12.3949                 0.8870                 2.7015

                     13                     14                     15
                      A                      A                      A
 Frequencies --    747.0748               787.0450               845.1547
 Red. masses --      2.5555                 3.6240                 1.9155
 Frc consts  --      0.8403                 1.3226                 0.8061
 IR Inten    --      1.9678                11.9349                 1.6456

                     16                     17                     18
                      A                      A                      A
 Frequencies --    881.1556               924.9941               940.7625
 Red. masses --      2.2624                 1.7814                 2.9002
 Frc consts  --      1.0349                 0.8980                 1.5123
 IR Inten    --     12.7126                15.1975                17.0055

                     19                     20                     21
                      A                      A                      A
 Frequencies --    956.5063              1015.2147              1030.6636
 Red. masses --      2.4277                 1.8649                 1.4512
 Frc consts  --      1.3086                 1.1325                 0.9083
 IR Inten    --     13.2161                 4.2696                 0.7579

                     22                     23                     24
                      A                      A                      A
 Frequencies --   1077.4913              1080.0365              1108.0340
 Red. masses --      1.2044                 1.6413                 1.5786
 Frc consts  --      0.8238                 1.1280                 1.1419
 IR Inten    --     29.5459                13.6215                 2.6613

                     25                     26                     27
                      A                      A                      A
 Frequencies --   1134.1046              1184.9596              1188.5324
 Red. masses --      2.7537                 1.4134                 2.2122
 Frc consts  --      2.0868                 1.1693                 1.8412
 IR Inten    --     20.4167                28.5937                47.0421

                     28                     29                     30
                      A                      A                      A
 Frequencies --   1203.1309              1248.6082              1276.2564
 Red. masses --      1.5614                 1.6255                 1.2509
 Frc consts  --      1.3316                 1.4931                 1.2005
 IR Inten    --     37.0737                14.5753                 8.4000

                     31                     32                     33
                      A                      A                      A
 Frequencies --   1295.2684              1319.8468              1338.3867
 Red. masses --      1.2639                 1.5349                 1.4188
 Frc consts  --      1.2493                 1.5753                 1.4974
 IR Inten    --    108.8219                 7.5325                 8.6674

                     34                     35                     36
                      A                      A                      A
 Frequencies --   1354.2429              1364.6980              1375.3184
 Red. masses --      1.6626                 1.4031                 1.4355
 Frc consts  --      1.7965                 1.5397                 1.5998
 IR Inten    --      4.0406                 4.0713                10.2545

                     37                     38                     39
                      A                      A                      A
 Frequencies --   1466.8206              1472.8672              1491.5068
 Red. masses --      1.1120                 1.9574                 1.1627
 Frc consts  --      1.4096                 2.5019                 1.5240
 IR Inten    --      8.2683                23.8133                 2.0205

                     40                     41                     42
                      A                      A                      A
 Frequencies --   1499.6370              1790.3087              3011.0273
 Red. masses --      1.0931                11.3465                 1.0685
 Frc consts  --      1.4483                21.4274                 5.7078
 IR Inten    --      1.1380               232.1164                 7.4635

                     43                     44                     45
                      A                      A                      A
 Frequencies --   3024.6668              3032.1344              3073.4075
 Red. masses --      1.0680                 1.0605                 1.0950
 Frc consts  --      5.7568                 5.7444                 6.0940
 IR Inten    --     23.1957                29.4500                32.6503

                     46                     47                     48
                      A                      A                      A
 Frequencies --   3080.9384              3089.8880              3107.6233
 Red. masses --      1.1024                 1.0874                 1.0938
 Frc consts  --      6.1656                 6.1168                 6.2236
 IR Inten    --     23.8275                34.1902                16.1789

                     49                     50                     51
                      A                      A                      A
 Frequencies --   3167.3744              3183.2294              3801.5248
 Red. masses --      1.0885                 1.0893                 1.0661
 Frc consts  --      6.4340                 6.5033                 9.0778
 IR Inten    --      5.3060                 5.3566                28.8250

 - Thermochemistry -
 -------------------
 Temperature   298.150 Kelvin.  Pressure   1.00000 Atm.
 Atom     1 has atomic number  8 and mass  15.99491

 Molecular mass:   126.06808 amu.
 Principal axes and moments of inertia in atomic units:
                           1         2         3
     Eigenvalues --   791.157881180.364281755.94962
           X            0.99620  -0.08659   0.00927
           Y            0.08652   0.99622   0.00770
           Z           -0.00990  -0.00686   0.99993
 This molecule is an asymmetric top.
 Rotational symmetry number  1.
 Warning -- assumption of classical behavior for rotation
           may cause significant error
 Rotational temperatures (Kelvin)      0.10948     0.07338     0.04933
 Rotational constants (GHZ):           2.28114     1.52897     1.02779
 Zero-point vibrational energy     421059.3 (Joules/Mol)
                                  100.63558 (Kcal/Mol)
 Warning -- explicit consideration of  11 degrees of freedom as
           vibrations may cause significant error
 Vibrational temperatures:    122.04   221.68   319.67   378.18   425.62
          (Kelvin)            492.66   557.03   617.34   667.31   726.40
                              818.34  1020.56  1074.87  1132.38  1215.99
                             1267.78  1330.86  1353.55  1376.20  1460.67
                             1482.89  1550.27  1553.93  1594.21  1631.72
                             1704.89  1710.03  1731.03  1796.47  1836.25
                             1863.60  1898.96  1925.64  1948.45  1963.49
                             1978.77  2110.42  2119.12  2145.94  2157.64
                             2575.85  4332.19  4351.82  4362.56  4421.94
                             4432.78  4445.65  4471.17  4557.14  4579.95
                             5469.54

 Zero-point correction=                           0.160373 (Hartree/Particle)
 Thermal correction to Energy=                    0.168526
 Thermal correction to Enthalpy=                  0.169471
 Thermal correction to Gibbs Free Energy=         0.127682
 Sum of electronic and zero-point Energies=           -423.045109
 Sum of electronic and thermal Energies=              -423.036956
 Sum of electronic and thermal Enthalpies=            -423.036012
 Sum of electronic and thermal Free Energies=         -423.077800

                     E (Thermal)             CV                S
                      KCal/Mol        Cal/Mol-Kelvin    Cal/Mol-Kelvin
 Total                  105.752             31.802             87.952
 Electronic               0.000              0.000              0.000
 Translational            0.889              2.981             40.409
 Rotational               0.889              2.981             28.885
 Vibrational            103.974             25.840             18.658
 Vibration     1          0.601              1.960              3.776
 Vibration     2          0.620              1.898              2.621
 Vibration     3          0.648              1.807              1.941
 Vibration     4          0.670              1.741              1.643
 Vibration     5          0.690              1.682              1.440
 Vibration     6          0.722              1.591              1.201
 Vibration     7          0.756              1.498              1.011
 Vibration     8          0.790              1.407              0.862
 Vibration     9          0.821              1.330              0.755
 Vibration    10          0.860              1.239              0.646
 Vibration    11          0.925              1.099              0.507

 Normal termination of Gaussian 09 at Tue Jan 28 00:48:40 2020.
