 Gaussian 09, Revision D.01,
 Gaussian 09:  ES64L-G09RevD.01 24-Apr-2013

 -----------------------------
 # b3lyp 6-31G(2df,p) opt Freq
 -----------------------------

 -----
 titel
 -----
 Symbolic Z-matrix:
 Charge =  0 Multiplicity = 1

 SCF Done:  E(RB3LYP) =  -423.117541708     A.U. after   13 cycles
 Optimization completed.
    -- Stationary point found.
 Normal termination of Gaussian 09 at Tue Jan 28 02:20:59 2020.

 ----------------------------------------------------------------------
 #N Geom=AllCheck Guess=TCheck SCRF=Check GenChk RB3LYP/6-31G(2df,p) Fr
 eq
 ----------------------------------------------------------------------

 Structure from the checkpoint file:  "/scratch/puck/g09_92f31352-561c-41b0-a91e-20c393995242/Gau-194332.chk"
 -----
 titel
 -----
 Charge =  0 Multiplicity = 1

                         Standard orientation:
 ---------------------------------------------------------------------
 Center     Atomic      Atomic             Coordinates (Angstroms)
 Number     Number       Type             X           Y           Z
 ---------------------------------------------------------------------
      1          6           0       -2.975581    0.995519    0.052740
      2          6           0       -1.752409    0.213430   -0.348641
      3          8           0       -1.784535   -1.202096   -0.103076
      4          6           0       -0.855721   -0.408554    0.632958
      5          6           0        0.607037   -0.668585    0.375376
      6          8           0        0.979766   -0.485865   -1.020451
      7          6           0        1.802626    0.629943   -0.665358
      8          6           0        2.920562    0.207250    0.232795
      9          6           0        1.542972    0.460673    0.811751
     10          1           0       -3.334793    0.683274    1.037247
     11          1           0       -2.753491    2.067832    0.083862
     12          1           0       -3.783369    0.841962   -0.670363
     13          1           0       -1.313115    0.465342   -1.312226
     14          1           0       -1.094420   -0.303309    1.695447
     15          1           0        0.866417   -1.678350    0.721286
     16          1           0        1.806252    1.489822   -1.324833
     17          1           0        3.313798   -0.803114    0.160457
     18          1           0        3.653828    0.974990    0.460567
     19          1           0        1.340141    1.187189    1.587048
 ---------------------------------------------------------------------

 SCF Done:  E(RB3LYP) =  -423.117541708     A.U. after    1 cycles

 The electronic state is 1-A.
 Alpha  occ. eigenvalues --  -19.14267 -19.14246 -10.24438 -10.24358 -10.23353
 Alpha  occ. eigenvalues --  -10.23254 -10.20231 -10.19502 -10.18189  -1.06887
 Alpha  occ. eigenvalues --   -1.05110  -0.83687  -0.74241  -0.73952  -0.62935
 Alpha  occ. eigenvalues --   -0.61008  -0.59453  -0.54455  -0.52813  -0.49389
 Alpha  occ. eigenvalues --   -0.47428  -0.46060  -0.44801  -0.41905  -0.39718
 Alpha  occ. eigenvalues --   -0.39067  -0.37341  -0.36418  -0.34853  -0.32650
 Alpha  occ. eigenvalues --   -0.29409  -0.28179  -0.26464  -0.23808
 Alpha virt. eigenvalues --    0.07522   0.09516   0.10679   0.11112   0.12159
 Alpha virt. eigenvalues --    0.12319   0.12835   0.14540   0.14829   0.15811
 Alpha virt. eigenvalues --    0.16830   0.17533   0.18904   0.19219   0.21165

 Mulliken charges:
               1
     1  C   -0.421228
     2  C    0.093411
     3  O   -0.266992
     4  C    0.032339
     5  C    0.074027
     6  O   -0.288723
     7  C    0.107323
     8  C   -0.301040
     9  C   -0.133356
    10  H    0.124754
    11  H    0.120044
    12  H    0.130752
    13  H    0.106426
    14  H    0.086000
    15  H    0.093725
    16  H    0.104558
    17  H    0.119968
    18  H    0.117239
    19  H    0.100773
 Sum of Mulliken charges =   0.00000

 Dipole moment (field-independent basis, Debye):
    X=              0.9863    Y=              2.5654    Z=              1.5404  Tot=              3.1507
 Quadrupole moment (field-independent basis, Debye-Ang):
   XX=            -51.0799   YY=            -53.6419   ZZ=            -53.0320
   XY=             -2.0568   XZ=              0.7003   YZ=             -2.4052

  Exact polarizability:  92.353  -1.485  67.148   1.819  -3.185  66.387
 Approx polarizability: 112.469   1.605 104.255   3.707  -3.573 107.953

                      1                      2                      3
                      A                      A                      A
 Frequencies --     75.8046               112.1644               153.8852
 Red. masses --      3.6491                 3.1552                 3.2068
 Frc consts  --      0.0124                 0.0234                 0.0447
 IR Inten    --      0.8217                 0.5597                 0.3548

                      4                      5                      6
                      A                      A                      A
 Frequencies --    195.6186               259.9329               317.0146
 Red. masses --      1.1636                 3.1336                 2.7700
 Frc consts  --      0.0262                 0.1247                 0.1640
 IR Inten    --      0.2089                 2.1519                 1.4515

                      7                      8                      9
                      A                      A                      A
 Frequencies --    351.8930               460.6104               475.4411
 Red. masses --      4.0044                 2.8154                 3.6545
 Frc consts  --      0.2922                 0.3519                 0.4867
 IR Inten    --      0.6023                 1.3732                14.0832

                     10                     11                     12
                      A                      A                      A
 Frequencies --    631.4061               758.9146               787.1357
 Red. masses --      3.6417                 1.6124                 3.1578
 Frc consts  --      0.8554                 0.5471                 1.1528
 IR Inten    --      9.0743                11.3787                 2.6908

                     13                     14                     15
                      A                      A                      A
 Frequencies --    794.2721               836.0080               869.9566
 Red. masses --      3.5276                 2.2822                 3.3419
 Frc consts  --      1.3112                 0.9398                 1.4902
 IR Inten    --     17.4782                21.8815                21.0380

                     16                     17                     18
                      A                      A                      A
 Frequencies --    928.5084               939.9100               960.3809
 Red. masses --      2.3577                 1.9779                 2.4161
 Frc consts  --      1.1976                 1.0295                 1.3130
 IR Inten    --      6.7164                11.3345                 8.2082

                     19                     20                     21
                      A                      A                      A
 Frequencies --    985.3053               991.3340              1041.5779
 Red. masses --      2.0705                 2.3851                 1.3630
 Frc consts  --      1.1843                 1.3810                 0.8712
 IR Inten    --     16.9362                33.0220                 6.1683

                     22                     23                     24
                      A                      A                      A
 Frequencies --   1052.0773              1053.5915              1063.0202
 Red. masses --      1.3632                 1.7703                 1.7554
 Frc consts  --      0.8890                 1.1578                 1.1687
 IR Inten    --     14.2051                27.8585                10.4885

                     25                     26                     27
                      A                      A                      A
 Frequencies --   1077.0885              1087.5949              1131.4893
 Red. masses --      1.6677                 1.7952                 2.6715
 Frc consts  --      1.1399                 1.2511                 2.0152
 IR Inten    --      1.2453                38.6206                 5.7751

                     28                     29                     30
                      A                      A                      A
 Frequencies --   1172.5151              1183.0341              1206.5225
 Red. masses --      1.6913                 1.5487                 2.0005
 Frc consts  --      1.3700                 1.2770                 1.7157
 IR Inten    --      3.7653                 1.9238                 1.5891

                     31                     32                     33
                      A                      A                      A
 Frequencies --   1228.6622              1277.6971              1299.2790
 Red. masses --      1.2811                 1.3627                 1.7027
 Frc consts  --      1.1395                 1.3108                 1.6935
 IR Inten    --      0.5547                 7.6114                 4.1360

                     34                     35                     36
                      A                      A                      A
 Frequencies --   1335.5571              1352.4282              1382.9634
 Red. masses --      1.6167                 1.3361                 1.6823
 Frc consts  --      1.6991                 1.4399                 1.8957
 IR Inten    --     24.9604                 2.4945                 4.4058

                     37                     38                     39
                      A                      A                      A
 Frequencies --   1411.8241              1472.3247              1475.2085
 Red. masses --      1.2732                 1.2760                 1.2399
 Frc consts  --      1.4952                 1.6297                 1.5898
 IR Inten    --      5.8156                 2.5707                 6.6372

                     40                     41                     42
                      A                      A                      A
 Frequencies --   1490.8445              1512.0358              3018.8937
 Red. masses --      1.1078                 2.0086                 1.0838
 Frc consts  --      1.4507                 2.7057                 5.8198
 IR Inten    --      8.1524                 9.2734                43.1097

                     43                     44                     45
                      A                      A                      A
 Frequencies --   3035.3125              3067.4841              3100.1469
 Red. masses --      1.0356                 1.0865                 1.1006
 Frc consts  --      5.6215                 6.0232                 6.2321
 IR Inten    --     19.9560                27.9635                18.6261

                     46                     47                     48
                      A                      A                      A
 Frequencies --   3113.9123              3115.7373              3140.3193
 Red. masses --      1.0986                 1.0539                 1.0898
 Frc consts  --      6.2764                 6.0282                 6.3323
 IR Inten    --      6.5271                12.9672                23.7487

                     49                     50                     51
                      A                      A                      A
 Frequencies --   3180.9501              3200.5633              3211.2688
 Red. masses --      1.0917                 1.1029                 1.1097
 Frc consts  --      6.5083                 6.6565                 6.7424
 IR Inten    --     19.1908                 2.4588                13.3233

 - Thermochemistry -
 -------------------
 Temperature   298.150 Kelvin.  Pressure   1.00000 Atm.
 Atom     1 has atomic number  6 and mass  12.00000

 Molecular mass:   126.06808 amu.
 Principal axes and moments of inertia in atomic units:
                           1         2         3
     Eigenvalues --   421.291761817.615641883.75026
           X            0.99980  -0.01929   0.00477
           Y            0.01965   0.99555  -0.09216
           Z           -0.00297   0.09223   0.99573
 This molecule is an asymmetric top.
 Rotational symmetry number  1.
 Rotational temperatures (Kelvin)      0.20559     0.04765     0.04598
 Rotational constants (GHZ):           4.28383     0.99292     0.95806
 Zero-point vibrational energy     414969.1 (Joules/Mol)
                                   99.18000 (Kcal/Mol)
 Warning -- explicit consideration of   9 degrees of freedom as
           vibrations may cause significant error
 Vibrational temperatures:    109.07   161.38   221.41   281.45   373.98
          (Kelvin)            456.11   506.29   662.71   684.05   908.45
                             1091.91  1132.51  1142.78  1202.83  1251.67
                             1335.91  1352.32  1381.77  1417.63  1426.31
                             1498.60  1513.70  1515.88  1529.45  1549.69
                             1564.80  1627.96  1686.99  1702.12  1735.91
                             1767.77  1838.32  1869.37  1921.57  1945.84
                             1989.77  2031.30  2118.34  2122.49  2144.99
                             2175.48  4343.51  4367.13  4413.42  4460.41
                             4480.22  4482.85  4518.21  4576.67  4604.89
                             4620.29

 Zero-point correction=                           0.158053 (Hartree/Particle)
 Thermal correction to Energy=                    0.166395
 Thermal correction to Enthalpy=                  0.167339
 Thermal correction to Gibbs Free Energy=         0.124753
 Sum of electronic and zero-point Energies=           -422.959488
 Sum of electronic and thermal Energies=              -422.951146
 Sum of electronic and thermal Enthalpies=            -422.950202
 Sum of electronic and thermal Free Energies=         -422.992789

                     E (Thermal)             CV                S
                      KCal/Mol        Cal/Mol-Kelvin    Cal/Mol-Kelvin
 Total                  104.415             31.536             89.631
 Electronic               0.000              0.000              0.000
 Translational            0.889              2.981             40.409
 Rotational               0.889              2.981             28.758
 Vibrational            102.637             25.574             20.465
 Vibration     1          0.599              1.965              3.997
 Vibration     2          0.607              1.939              3.231
 Vibration     3          0.619              1.898              2.624
 Vibration     4          0.636              1.846              2.174
 Vibration     5          0.668              1.746              1.662
 Vibration     6          0.704              1.641              1.325
 Vibration     7          0.728              1.571              1.158
 Vibration     8          0.818              1.337              0.764
 Vibration     9          0.832              1.305              0.722

 Optimization completed.
    -- Stationary point found.
 Normal termination of Gaussian 09 at Tue Jan 28 02:59:50 2020.
