 Gaussian 09, Revision D.01,
 Gaussian 09:  ES64L-G09RevD.01 24-Apr-2013

 -----------------------------
 # b3lyp 6-31G(2df,p) opt Freq
 -----------------------------

 -----
 titel
 -----
 Symbolic Z-matrix:
 Charge =  0 Multiplicity = 1

 SCF Done:  E(RB3LYP) =  -423.163853542     A.U. after   14 cycles
 Optimization completed.
    -- Stationary point found.
 Normal termination of Gaussian 09 at Tue Jan 28 09:19:43 2020.

 ----------------------------------------------------------------------
 #N Geom=AllCheck Guess=TCheck SCRF=Check GenChk RB3LYP/6-31G(2df,p) Fr
 eq
 ----------------------------------------------------------------------

 Structure from the checkpoint file:  "/scratch/puck/g09_5f412130-0c2c-41ac-8f21-a29da8f7aa5e/Gau-84089.chk"
 -----
 titel
 -----
 Charge =  0 Multiplicity = 1

                         Standard orientation:
 ---------------------------------------------------------------------
 Center     Atomic      Atomic             Coordinates (Angstroms)
 Number     Number       Type             X           Y           Z
 ---------------------------------------------------------------------
      1          6           0       -2.755627    0.313780    0.116184
      2          8           0       -1.630139    0.039322   -0.707366
      3          6           0       -0.510834   -0.328715   -0.003270
      4          6           0       -0.319655   -1.680083    0.583697
      5          6           0        0.619748   -1.228480   -0.547107
      6          6           0        1.609766   -0.246794   -0.002455
      7          8           0        2.792336   -0.097154   -0.133889
      8          6           0        0.506586    0.671958    0.601526
      9          6           0        0.526255    2.060161   -0.034886
     10          1           0       -2.564223    1.153117    0.798057
     11          1           0       -3.577162    0.578201   -0.552289
     12          1           0       -3.038577   -0.565257    0.710524
     13          1           0        0.057296   -1.820095    1.593135
     14          1           0       -1.027517   -2.433896    0.253148
     15          1           0        0.692838   -1.801601   -1.462967
     16          1           0        0.497287    0.742793    1.695149
     17          1           0        1.445526    2.583070    0.242117
     18          1           0        0.485948    1.995541   -1.126280
     19          1           0       -0.326419    2.659818    0.297305
 ---------------------------------------------------------------------

 SCF Done:  E(RB3LYP) =  -423.163853542     A.U. after    1 cycles

 The electronic state is 1-A.
 Alpha  occ. eigenvalues --  -19.16392 -19.12819 -10.26586 -10.25813 -10.23800
 Alpha  occ. eigenvalues --  -10.20831 -10.20389 -10.19796 -10.18265  -1.06023
 Alpha  occ. eigenvalues --   -1.03798  -0.90276  -0.76833  -0.71065  -0.67461
 Alpha  occ. eigenvalues --   -0.62781  -0.57508  -0.52072  -0.51029  -0.49208
 Alpha  occ. eigenvalues --   -0.47372  -0.44990  -0.44503  -0.42732  -0.40686
 Alpha  occ. eigenvalues --   -0.39603  -0.38360  -0.37603  -0.36298  -0.34813
 Alpha  occ. eigenvalues --   -0.32322  -0.27356  -0.26820  -0.23702
 Alpha virt. eigenvalues --   -0.00897   0.07471   0.09880   0.10946   0.11730
 Alpha virt. eigenvalues --    0.12132   0.13557   0.15191   0.15351   0.16200
 Alpha virt. eigenvalues --    0.17496   0.17611   0.18286   0.19787   0.20618

 Mulliken charges:
               1
     1  C   -0.260380
     2  O   -0.280468
     3  C    0.457730
     4  C   -0.348583
     5  C   -0.274453
     6  C    0.445129
     7  O   -0.328185
     8  C   -0.214939
     9  C   -0.402574
    10  H    0.118433
    11  H    0.134835
    12  H    0.116230
    13  H    0.121752
    14  H    0.129508
    15  H    0.117359
    16  H    0.084435
    17  H    0.136040
    18  H    0.130121
    19  H    0.118011
 Sum of Mulliken charges =   0.00000

 Dipole moment (field-independent basis, Debye):
    X=             -3.5060    Y=             -0.2584    Z=              1.2118  Tot=              3.7185
 Quadrupole moment (field-independent basis, Debye-Ang):
   XX=            -60.2939   YY=            -50.2494   ZZ=            -52.4949
   XY=              0.2724   XZ=             -1.0142   YZ=              0.5766

  Exact polarizability:  89.355   1.177  78.398  -2.346   1.378  62.434
 Approx polarizability: 130.532   1.686 107.736  -4.628   2.411  99.069

                      1                      2                      3
                      A                      A                      A
 Frequencies --     80.7142                90.6795               158.2294
 Red. masses --      3.6501                 3.4157                 1.1377
 Frc consts  --      0.0140                 0.0165                 0.0168
 IR Inten    --      1.0721                 3.1487                 0.2174

                      4                      5                      6
                      A                      A                      A
 Frequencies --    197.6428               205.5328               218.8775
 Red. masses --      1.0507                 3.2751                 2.7945
 Frc consts  --      0.0242                 0.0815                 0.0789
 IR Inten    --      0.2568                 1.8610                 3.6283

                      7                      8                      9
                      A                      A                      A
 Frequencies --    246.6763               374.6044               406.2897
 Red. masses --      2.7667                 3.6113                 3.0544
 Frc consts  --      0.0992                 0.2986                 0.2971
 IR Inten    --      3.2408                10.3991                 1.1254

                     10                     11                     12
                      A                      A                      A
 Frequencies --    470.5262               481.9050               614.0832
 Red. masses --      4.6718                 3.6504                 3.9772
 Frc consts  --      0.6094                 0.4995                 0.8837
 IR Inten    --      3.1633                 0.7559                 4.2005

                     13                     14                     15
                      A                      A                      A
 Frequencies --    691.3879               707.1891               822.2194
 Red. masses --      3.3960                 2.8957                 2.2625
 Frc consts  --      0.9565                 0.8533                 0.9012
 IR Inten    --      5.4282                 5.0412                 2.1793

                     16                     17                     18
                      A                      A                      A
 Frequencies --    828.2720               879.0108               936.5158
 Red. masses --      3.6420                 2.3175                 1.6404
 Frc consts  --      1.4721                 1.0550                 0.8477
 IR Inten    --      4.6581                36.6111                14.6995

                     19                     20                     21
                      A                      A                      A
 Frequencies --    977.4036               998.6945              1043.0588
 Red. masses --      1.7106                 1.9159                 1.5542
 Frc consts  --      0.9628                 1.1259                 0.9963
 IR Inten    --     15.1664                 8.9983                 2.6811

                     22                     23                     24
                      A                      A                      A
 Frequencies --   1052.6842              1070.2190              1093.2123
 Red. masses --      1.7372                 1.5067                 2.7852
 Frc consts  --      1.1342                 1.0167                 1.9611
 IR Inten    --      5.2581                12.8289                81.5954

                     25                     26                     27
                      A                      A                      A
 Frequencies --   1112.2054              1126.5145              1178.7358
 Red. masses --      2.0274                 2.8557                 1.2807
 Frc consts  --      1.4776                 2.1352                 1.0484
 IR Inten    --     12.6981                 2.0570                 2.2196

                     28                     29                     30
                      A                      A                      A
 Frequencies --   1208.5941              1230.2314              1239.2375
 Red. masses --      1.4706                 1.6181                 2.3146
 Frc consts  --      1.2657                 1.4428                 2.0942
 IR Inten    --      9.0365                 0.8721                29.5346

                     31                     32                     33
                      A                      A                      A
 Frequencies --   1252.3269              1337.0781              1366.7802
 Red. masses --      2.5022                 1.7162                 2.8110
 Frc consts  --      2.3121                 1.8077                 3.0939
 IR Inten    --     28.8317                 1.0708               151.5692

                     34                     35                     36
                      A                      A                      A
 Frequencies --   1408.5647              1475.7839              1485.9087
 Red. masses --      1.2314                 1.1315                 1.0523
 Frc consts  --      1.4394                 1.4519                 1.3690
 IR Inten    --     10.6580                 2.5734                 4.1020

                     37                     38                     39
                      A                      A                      A
 Frequencies --   1489.7354              1493.3807              1501.2617
 Red. masses --      1.1045                 1.0680                 1.2457
 Frc consts  --      1.4443                 1.4034                 1.6542
 IR Inten    --      1.5538                 8.5193                34.3362

                     40                     41                     42
                      A                      A                      A
 Frequencies --   1505.9499              1879.4367              3000.1293
 Red. masses --      1.0822                12.3329                 1.0344
 Frc consts  --      1.4460                25.6668                 5.4853
 IR Inten    --      1.1732               305.5462                44.8487

                     43                     44                     45
                      A                      A                      A
 Frequencies --   3040.4048              3042.8746              3057.0937
 Red. masses --      1.0793                 1.0388                 1.1042
 Frc consts  --      5.8785                 5.6672                 6.0799
 IR Inten    --     22.3520                15.9255                42.1105

                     46                     47                     48
                      A                      A                      A
 Frequencies --   3111.9453              3114.0937              3122.3503
 Red. masses --      1.1018                 1.0551                 1.1020
 Frc consts  --      6.2866                 6.0283                 6.3299
 IR Inten    --     20.3942                13.9540                14.7607

                     49                     50                     51
                      A                      A                      A
 Frequencies --   3130.4963              3198.2028              3207.8861
 Red. masses --      1.0991                 1.0985                 1.1113
 Frc consts  --      6.3463                 6.6198                 6.7376
 IR Inten    --     23.5461                 2.5310                 6.5714

 - Thermochemistry -
 -------------------
 Temperature   298.150 Kelvin.  Pressure   1.00000 Atm.
 Atom     1 has atomic number  6 and mass  12.00000

 Molecular mass:   126.06808 amu.
 Principal axes and moments of inertia in atomic units:
                           1         2         3
     Eigenvalues --   627.081791315.881221721.74638
           X            0.99991   0.00957  -0.00973
           Y           -0.00958   0.99995  -0.00185
           Z            0.00971   0.00194   0.99995
 This molecule is an asymmetric top.
 Rotational symmetry number  1.
 Warning -- assumption of classical behavior for rotation
           may cause significant error
 Rotational temperatures (Kelvin)      0.13812     0.06582     0.05031
 Rotational constants (GHZ):           2.87800     1.37151     1.04820
 Zero-point vibrational energy     412489.3 (Joules/Mol)
                                   98.58732 (Kcal/Mol)
 Warning -- explicit consideration of  12 degrees of freedom as
           vibrations may cause significant error
 Vibrational temperatures:    116.13   130.47   227.66   284.36   295.72
          (Kelvin)            314.92   354.91   538.97   584.56   676.98
                              693.35   883.53   994.75  1017.49  1182.99
                             1191.70  1264.70  1347.44  1406.26  1436.90
                             1500.73  1514.58  1539.80  1572.89  1600.21
                             1620.80  1695.94  1738.90  1770.03  1782.98
                             1801.82  1923.75  1966.49  2026.61  2123.32
                             2137.89  2143.39  2148.64  2159.98  2166.72
                             2704.09  4316.51  4374.46  4378.01  4398.47
                             4477.39  4480.48  4492.36  4504.08  4601.49
                             4615.43

 Zero-point correction=                           0.157109 (Hartree/Particle)
 Thermal correction to Energy=                    0.166357
 Thermal correction to Enthalpy=                  0.167301
 Thermal correction to Gibbs Free Energy=         0.122991
 Sum of electronic and zero-point Energies=           -423.006745
 Sum of electronic and thermal Energies=              -422.997497
 Sum of electronic and thermal Enthalpies=            -422.996553
 Sum of electronic and thermal Free Energies=         -423.040863

                     E (Thermal)             CV                S
                      KCal/Mol        Cal/Mol-Kelvin    Cal/Mol-Kelvin
 Total                  104.390             33.830             93.258
 Electronic               0.000              0.000              0.000
 Translational            0.889              2.981             40.409
 Rotational               0.889              2.981             28.743
 Vibrational            102.613             27.868             24.107
 Vibration     1          0.600              1.962              3.873
 Vibration     2          0.602              1.956              3.645
 Vibration     3          0.621              1.893              2.571
 Vibration     4          0.637              1.843              2.155
 Vibration     5          0.640              1.832              2.083
 Vibration     6          0.647              1.812              1.968
 Vibration     7          0.661              1.768              1.754
 Vibration     8          0.746              1.524              1.061
 Vibration     9          0.771              1.457              0.940
 Vibration    10          0.828              1.315              0.736
 Vibration    11          0.838              1.290              0.705
 Vibration    12          0.973              1.002              0.426

 Optimization completed.
    -- Stationary point found.
 Normal termination of Gaussian 09 at Tue Jan 28 10:08:11 2020.
