 Gaussian 09, Revision D.01,
 Gaussian 09:  ES64L-G09RevD.01 24-Apr-2013

 -----------------------------
 # b3lyp 6-31G(2df,p) opt Freq
 -----------------------------

 -----
 titel
 -----
 Symbolic Z-matrix:
 Charge =  0 Multiplicity = 1

 SCF Done:  E(RB3LYP) =  -423.168348370     A.U. after   14 cycles
 Optimization completed.
    -- Stationary point found.
 Normal termination of Gaussian 09 at Mon Jan 27 12:15:13 2020.

 ----------------------------------------------------------------------
 #N Geom=AllCheck Guess=TCheck SCRF=Check GenChk RB3LYP/6-31G(2df,p) Fr
 eq
 ----------------------------------------------------------------------

 Structure from the checkpoint file:  "/scratch/puck/g09_25008e29-26fc-4b96-9b21-06929d8e1a3e/Gau-153282.chk"
 -----
 titel
 -----
 Charge =  0 Multiplicity = 1

                         Standard orientation:
 ---------------------------------------------------------------------
 Center     Atomic      Atomic             Coordinates (Angstroms)
 Number     Number       Type             X           Y           Z
 ---------------------------------------------------------------------
      1          6           0        2.543231   -0.060343   -0.336239
      2          6           0        1.794143    0.175753    0.987112
      3          6           0        0.505754    0.072338    0.127135
      4          6           0       -0.367727   -1.137726    0.456773
      5          8           0       -1.556439   -1.170678   -0.305375
      6          6           0       -2.399539   -0.071165   -0.033699
      7          6           0       -1.667315    1.241032   -0.028591
      8          6           0       -0.338835    1.305717    0.021158
      9          8           0        1.310637   -0.129149   -1.078753
     10          1           0        3.180478    0.764913   -0.676363
     11          1           0        3.115925   -0.993939   -0.399874
     12          1           0        1.904362   -0.607192    1.741015
     13          1           0        1.955653    1.147750    1.456464
     14          1           0        0.175193   -2.058613    0.227558
     15          1           0       -0.596076   -1.123892    1.538176
     16          1           0       -3.169129   -0.074235   -0.813935
     17          1           0       -2.924156   -0.210672    0.931786
     18          1           0       -2.275035    2.141422   -0.073053
     19          1           0        0.180941    2.259432   -0.020639
 ---------------------------------------------------------------------

 SCF Done:  E(RB3LYP) =  -423.168348370     A.U. after    1 cycles

 The electronic state is 1-A.
 Alpha  occ. eigenvalues --  -19.13942 -19.12609 -10.23862 -10.23379 -10.22850
 Alpha  occ. eigenvalues --  -10.22515 -10.19067 -10.19065 -10.18345  -1.04139
 Alpha  occ. eigenvalues --   -1.02584  -0.79853  -0.76428  -0.73201  -0.65607
 Alpha  occ. eigenvalues --   -0.64499  -0.57452  -0.52044  -0.50313  -0.49758
 Alpha  occ. eigenvalues --   -0.47968  -0.45757  -0.43531  -0.43339  -0.40634
 Alpha  occ. eigenvalues --   -0.39335  -0.38191  -0.37555  -0.32783  -0.31569
 Alpha  occ. eigenvalues --   -0.29788  -0.26877  -0.25933  -0.23195
 Alpha virt. eigenvalues --    0.00501   0.08516   0.09917   0.11140   0.11929
 Alpha virt. eigenvalues --    0.12916   0.13442   0.14771   0.15234   0.16737
 Alpha virt. eigenvalues --    0.17294   0.18278   0.20120   0.21345   0.23101

 Mulliken charges:
               1
     1  C   -0.067995
     2  C   -0.348506
     3  C    0.402701
     4  C   -0.134914
     5  O   -0.244642
     6  C   -0.125034
     7  C   -0.085786
     8  C   -0.102440
     9  O   -0.321547
    10  H    0.102980
    11  H    0.101655
    12  H    0.110307
    13  H    0.111145
    14  H    0.112648
    15  H    0.082534
    16  H    0.122231
    17  H    0.096700
    18  H    0.098703
    19  H    0.089260
 Sum of Mulliken charges =   0.00000

 Dipole moment (field-independent basis, Debye):
    X=              0.3260    Y=              1.1738    Z=              2.2393  Tot=              2.5493
 Quadrupole moment (field-independent basis, Debye-Ang):
   XX=            -47.2898   YY=            -52.4436   ZZ=            -56.2549
   XY=             -2.6941   XZ=              1.2755   YZ=             -1.5617

  Exact polarizability: 103.948  -3.052  71.109   0.149  -1.593  59.004
 Approx polarizability: 142.043  -2.447 101.930   0.257   0.293  93.026

                      1                      2                      3
                      A                      A                      A
 Frequencies --     72.6330                96.9631               215.7539
 Red. masses --      2.3572                 2.8427                 3.9570
 Frc consts  --      0.0073                 0.0157                 0.1085
 IR Inten    --      0.8923                 0.8563                 1.9786

                      4                      5                      6
                      A                      A                      A
 Frequencies --    267.5391               308.7264               389.5860
 Red. masses --      2.5702                 2.3122                 3.5263
 Frc consts  --      0.1084                 0.1298                 0.3153
 IR Inten    --      1.3915                 2.4702                 2.1429

                      7                      8                      9
                      A                      A                      A
 Frequencies --    422.2346               480.6462               525.0111
 Red. masses --      2.8393                 2.4189                 5.2309
 Frc consts  --      0.2982                 0.3292                 0.8495
 IR Inten    --      2.4528                 5.0714                 7.5899

                     10                     11                     12
                      A                      A                      A
 Frequencies --    668.5301               732.5259               780.8261
 Red. masses --      5.4108                 1.4742                 1.1726
 Frc consts  --      1.4248                 0.4661                 0.4212
 IR Inten    --      1.1927                10.9248                 1.4604

                     13                     14                     15
                      A                      A                      A
 Frequencies --    817.0592               858.9942               902.6150
 Red. masses --      2.7602                 5.2414                 2.7541
 Frc consts  --      1.0857                 2.2786                 1.3220
 IR Inten    --     17.5212                23.0760                13.7997

                     16                     17                     18
                      A                      A                      A
 Frequencies --    930.2796               948.5422               984.2998
 Red. masses --      2.5216                 2.1219                 2.6042
 Frc consts  --      1.2857                 1.1248                 1.4866
 IR Inten    --      8.9955                 9.6468                 5.0131

                     19                     20                     21
                      A                      A                      A
 Frequencies --    996.1769              1007.5735              1024.1410
 Red. masses --      1.3385                 2.2728                 5.3375
 Frc consts  --      0.7826                 1.3594                 3.2985
 IR Inten    --     10.3378                27.3052               112.2130

                     22                     23                     24
                      A                      A                      A
 Frequencies --   1041.2665              1093.2491              1131.2984
 Red. masses --      2.0831                 2.8532                 2.1415
 Frc consts  --      1.3307                 2.0092                 1.6148
 IR Inten    --     18.0088                 7.1647                52.0382

                     25                     26                     27
                      A                      A                      A
 Frequencies --   1153.7819              1162.1273              1203.7142
 Red. masses --      3.1545                 1.2515                 1.9153
 Frc consts  --      2.4742                 0.9958                 1.6350
 IR Inten    --     37.9128                 0.1391                 9.6842

                     28                     29                     30
                      A                      A                      A
 Frequencies --   1213.8843              1248.7485              1262.1590
 Red. masses --      1.2771                 1.1750                 1.5051
 Frc consts  --      1.1087                 1.0795                 1.4127
 IR Inten    --      5.8362                 3.7515                15.2166

                     31                     32                     33
                      A                      A                      A
 Frequencies --   1305.4827              1322.6844              1348.8269
 Red. masses --      1.6867                 1.2993                 1.3721
 Frc consts  --      1.6937                 1.3393                 1.4708
 IR Inten    --      5.3912                16.5493                 2.3574

                     34                     35                     36
                      A                      A                      A
 Frequencies --   1369.5747              1411.0855              1425.4794
 Red. masses --      1.3452                 1.6113                 1.4871
 Frc consts  --      1.4867                 1.8903                 1.7804
 IR Inten    --      3.6059                 7.2063                 1.5097

                     37                     38                     39
                      A                      A                      A
 Frequencies --   1473.0040              1486.0822              1486.7103
 Red. masses --      1.0815                 1.1037                 1.1006
 Frc consts  --      1.3825                 1.4361                 1.4333
 IR Inten    --      0.6958                 3.5259                 4.6091

                     40                     41                     42
                      A                      A                      A
 Frequencies --   1533.9265              1717.5722              2917.1804
 Red. masses --      1.1032                 7.0622                 1.0728
 Frc consts  --      1.5293                12.2750                 5.3787
 IR Inten    --      1.9435                 2.6720                66.4589

                     43                     44                     45
                      A                      A                      A
 Frequencies --   2942.6726              3014.9962              3051.8068
 Red. masses --      1.0705                 1.0553                 1.1108
 Frc consts  --      5.4616                 5.6520                 6.0952
 IR Inten    --     56.4422                96.2339                32.7244

                     46                     47                     48
                      A                      A                      A
 Frequencies --   3058.4560              3069.6079              3093.6579
 Red. masses --      1.0863                 1.0597                 1.0918
 Frc consts  --      5.9867                 5.8828                 6.1568
 IR Inten    --     27.0613                25.9477                21.8781

                     49                     50                     51
                      A                      A                      A
 Frequencies --   3125.2312              3149.1987              3171.8562
 Red. masses --      1.1083                 1.0838                 1.0982
 Frc consts  --      6.3775                 6.3328                 6.5096
 IR Inten    --     21.1539                 7.6559                23.2255

 - Thermochemistry -
 -------------------
 Temperature   298.150 Kelvin.  Pressure   1.00000 Atm.
 Atom     1 has atomic number  6 and mass  12.00000

 Molecular mass:   126.06808 amu.
 Principal axes and moments of inertia in atomic units:
                           1         2         3
     Eigenvalues --   504.769611386.830451566.85030
           X            0.99991  -0.01115   0.00688
           Y            0.01141   0.99914  -0.03977
           Z           -0.00643   0.03985   0.99919
 This molecule is an asymmetric top.
 Rotational symmetry number  1.
 Warning -- assumption of classical behavior for rotation
           may cause significant error
 Rotational temperatures (Kelvin)      0.17159     0.06245     0.05528
 Rotational constants (GHZ):           3.57538     1.30134     1.15183
 Zero-point vibrational energy     421181.1 (Joules/Mol)
                                  100.66469 (Kcal/Mol)
 Warning -- explicit consideration of   9 degrees of freedom as
           vibrations may cause significant error
 Vibrational temperatures:    104.50   139.51   310.42   384.93   444.19
          (Kelvin)            560.53   607.50   691.54   755.37   961.86
                             1053.94  1123.43  1175.56  1235.90  1298.66
                             1338.46  1364.74  1416.19  1433.27  1449.67
                             1473.51  1498.15  1572.94  1627.68  1660.03
                             1672.04  1731.87  1746.51  1796.67  1815.96
                             1878.30  1903.05  1940.66  1970.51  2030.23
                             2050.94  2119.32  2138.14  2139.04  2206.98
                             2471.20  4197.17  4233.84  4337.90  4390.86
                             4400.43  4416.48  4451.08  4496.50  4530.99
                             4563.59

 Zero-point correction=                           0.160419 (Hartree/Particle)
 Thermal correction to Energy=                    0.168234
 Thermal correction to Enthalpy=                  0.169178
 Thermal correction to Gibbs Free Energy=         0.127735
 Sum of electronic and zero-point Energies=           -423.007929
 Sum of electronic and thermal Energies=              -423.000114
 Sum of electronic and thermal Enthalpies=            -422.999170
 Sum of electronic and thermal Free Energies=         -423.040614

                     E (Thermal)             CV                S
                      KCal/Mol        Cal/Mol-Kelvin    Cal/Mol-Kelvin
 Total                  105.568             30.052             87.225
 Electronic               0.000              0.000              0.000
 Translational            0.889              2.981             40.409
 Rotational               0.889              2.981             28.485
 Vibrational            103.791             24.091             18.331
 Vibration     1          0.599              1.967              4.081
 Vibration     2          0.603              1.951              3.514
 Vibration     3          0.645              1.817              1.994
 Vibration     4          0.673              1.733              1.612
 Vibration     5          0.698              1.657              1.369
 Vibration     6          0.758              1.492              1.002
 Vibration     7          0.785              1.422              0.884
 Vibration     8          0.837              1.293              0.708
 Vibration     9          0.880              1.195              0.598

 Optimization completed.
    -- Stationary point found.
 Normal termination of Gaussian 09 at Mon Jan 27 12:58:13 2020.
