 Gaussian 09, Revision D.01,
 Gaussian 09:  ES64L-G09RevD.01 24-Apr-2013

 -----------------------------
 # b3lyp 6-31G(2df,p) opt Freq
 -----------------------------

 -----
 titel
 -----
 Symbolic Z-matrix:
 Charge =  0 Multiplicity = 1

 SCF Done:  E(RB3LYP) =  -423.181648013     A.U. after   13 cycles
 Optimization completed.
    -- Stationary point found.
 Normal termination of Gaussian 09 at Mon Jan 27 17:01:40 2020.

 ----------------------------------------------------------------------
 #N Geom=AllCheck Guess=TCheck SCRF=Check GenChk RB3LYP/6-31G(2df,p) Fr
 eq
 ----------------------------------------------------------------------

 Structure from the checkpoint file:  "/scratch/puck/g09_c647d0fb-c1da-4b09-85b5-36d71ae99d35/Gau-85148.chk"
 -----
 titel
 -----
 Charge =  0 Multiplicity = 1

                         Standard orientation:
 ---------------------------------------------------------------------
 Center     Atomic      Atomic             Coordinates (Angstroms)
 Number     Number       Type             X           Y           Z
 ---------------------------------------------------------------------
      1          8           0       -2.222519   -0.265876   -0.621053
      2          6           0       -0.916154   -0.149364   -0.167765
      3          6           0       -0.305017   -0.893893    1.007104
      4          6           0        1.115950   -1.332204    0.665930
      5          6           0        1.283063   -0.988869   -0.837664
      6          6           0        0.278349    0.150662   -1.114069
      7          6           0        0.753401    1.512233   -0.576730
      8          8           0        0.518118    1.476711    0.839457
      9          6           0       -0.569797    0.615771    1.056245
     10          1           0       -2.334104   -1.146849   -0.995420
     11          1           0       -0.931958   -1.503219    1.649968
     12          1           0        1.843081   -0.785964    1.275149
     13          1           0        1.262606   -2.398636    0.857162
     14          1           0        2.310799   -0.721379   -1.102855
     15          1           0        1.008174   -1.859436   -1.444387
     16          1           0       -0.030633    0.211750   -2.159590
     17          1           0        1.818714    1.706926   -0.732659
     18          1           0        0.173739    2.329735   -1.030559
     19          1           0       -1.323972    0.994382    1.737657
 ---------------------------------------------------------------------

 SCF Done:  E(RB3LYP) =  -423.181648013     A.U. after    1 cycles

 The electronic state is 1-A.
 Alpha  occ. eigenvalues --  -19.14907 -19.13729 -10.23239 -10.22507 -10.22405
 Alpha  occ. eigenvalues --  -10.18907 -10.18416 -10.18257 -10.18091  -1.04517
 Alpha  occ. eigenvalues --   -1.02580  -0.85847  -0.77828  -0.72627  -0.65678
 Alpha  occ. eigenvalues --   -0.58595  -0.57264  -0.56533  -0.53141  -0.47993
 Alpha  occ. eigenvalues --   -0.45264  -0.44141  -0.43056  -0.41617  -0.41081
 Alpha  occ. eigenvalues --   -0.38444  -0.36370  -0.35053  -0.34166  -0.32332
 Alpha  occ. eigenvalues --   -0.30967  -0.27929  -0.25452  -0.23019
 Alpha virt. eigenvalues --    0.07408   0.08527   0.10764   0.11432   0.13169
 Alpha virt. eigenvalues --    0.13865   0.15073   0.15931   0.16630   0.17671
 Alpha virt. eigenvalues --    0.18724   0.19416   0.20599   0.20954   0.23887

 Mulliken charges:
               1
     1  O   -0.473269
     2  C    0.338822
     3  C   -0.164080
     4  C   -0.228725
     5  C   -0.208805
     6  C   -0.120732
     7  C   -0.080391
     8  O   -0.260869
     9  C    0.049200
    10  H    0.281806
    11  H    0.085444
    12  H    0.116839
    13  H    0.095855
    14  H    0.095480
    15  H    0.092186
    16  H    0.076333
    17  H    0.104434
    18  H    0.097588
    19  H    0.102885
 Sum of Mulliken charges =   0.00000

 Dipole moment (field-independent basis, Debye):
    X=              0.1608    Y=             -1.9137    Z=             -1.2782  Tot=              2.3070
 Quadrupole moment (field-independent basis, Debye-Ang):
   XX=            -54.4279   YY=            -51.8437   ZZ=            -52.0407
   XY=              2.3325   XZ=             -1.7186   YZ=             -0.8448

  Exact polarizability:  73.740   0.021  74.905  -2.135  -2.425  70.656
 Approx polarizability: 106.560   1.952 108.968   0.568  -0.642 106.046

                      1                      2                      3
                      A                      A                      A
 Frequencies --    149.7118               228.7737               254.5978
 Red. masses --      2.2426                 2.3816                 3.1066
 Frc consts  --      0.0296                 0.0734                 0.1186
 IR Inten    --      1.1517                 6.8918                14.8688

                      4                      5                      6
                      A                      A                      A
 Frequencies --    304.4976               336.5834               398.2938
 Red. masses --      2.3229                 1.5371                 2.5715
 Frc consts  --      0.1269                 0.1026                 0.2404
 IR Inten    --      2.9677                70.1649                 8.7075

                      7                      8                      9
                      A                      A                      A
 Frequencies --    519.9648               555.2240               571.2936
 Red. masses --      3.4407                 3.0334                 3.8052
 Frc consts  --      0.5481                 0.5510                 0.7317
 IR Inten    --      1.8782                 4.8949                 2.6724

                     10                     11                     12
                      A                      A                      A
 Frequencies --    683.6494               736.0537               752.7499
 Red. masses --      2.9843                 4.7309                 4.1347
 Frc consts  --      0.8218                 1.5101                 1.3804
 IR Inten    --      0.5914                10.7129                 3.6333

                     13                     14                     15
                      A                      A                      A
 Frequencies --    805.7634               849.7547               882.1074
 Red. masses --      2.2092                 2.5493                 2.1886
 Frc consts  --      0.8451                 1.0846                 1.0034
 IR Inten    --      5.2084                 9.1316                 6.0166

                     16                     17                     18
                      A                      A                      A
 Frequencies --    921.4087               932.4006               964.7261
 Red. masses --      2.3732                 1.9611                 2.3206
 Frc consts  --      1.1871                 1.0045                 1.2725
 IR Inten    --      7.1576                13.4152                 4.2121

                     19                     20                     21
                      A                      A                      A
 Frequencies --    972.3572               996.3164              1011.8305
 Red. masses --      1.7386                 2.7350                 1.8387
 Frc consts  --      0.9685                 1.5995                 1.1091
 IR Inten    --      7.7999                14.1910                 6.8483

                     22                     23                     24
                      A                      A                      A
 Frequencies --   1065.4347              1073.0936              1084.1703
 Red. masses --      1.9191                 1.8118                 1.8192
 Frc consts  --      1.2835                 1.2292                 1.2599
 IR Inten    --      8.7278                20.3190                 0.5950

                     25                     26                     27
                      A                      A                      A
 Frequencies --   1129.6218              1156.9522              1187.5423
 Red. masses --      2.8169                 1.7626                 1.2909
 Frc consts  --      2.1178                 1.3901                 1.0726
 IR Inten    --     43.9548                20.9857                 5.3151

                     28                     29                     30
                      A                      A                      A
 Frequencies --   1202.1499              1233.1573              1247.5058
 Red. masses --      1.9462                 1.2777                 1.8265
 Frc consts  --      1.6571                 1.1448                 1.6748
 IR Inten    --     13.9861                18.4758                64.3952

                     31                     32                     33
                      A                      A                      A
 Frequencies --   1272.8236              1298.0371              1301.8385
 Red. masses --      1.8997                 1.5562                 1.3349
 Frc consts  --      1.8133                 1.5449                 1.3329
 IR Inten    --     14.7598                26.8498                15.9539

                     34                     35                     36
                      A                      A                      A
 Frequencies --   1310.9970              1342.6439              1352.0149
 Red. masses --      1.2703                 1.4908                 1.4044
 Frc consts  --      1.2863                 1.5834                 1.5125
 IR Inten    --     39.8454                 5.5667                 3.0434

                     37                     38                     39
                      A                      A                      A
 Frequencies --   1383.3934              1468.8081              1483.8335
 Red. masses --      1.3631                 3.0051                 1.0990
 Frc consts  --      1.5370                 3.8198                 1.4257
 IR Inten    --      3.0562                11.1489                 3.0139

                     40                     41                     42
                      A                      A                      A
 Frequencies --   1499.3619              1515.8068              2993.9615
 Red. masses --      1.1115                 1.1003                 1.0685
 Frc consts  --      1.4722                 1.4896                 5.6430
 IR Inten    --      4.5307                 0.1653                71.4935

                     43                     44                     45
                      A                      A                      A
 Frequencies --   3033.9834              3051.9259              3077.6749
 Red. masses --      1.0628                 1.0622                 1.0987
 Frc consts  --      5.7641                 5.8291                 6.1313
 IR Inten    --     31.1514                33.0154                 4.5217

                     46                     47                     48
                      A                      A                      A
 Frequencies --   3084.5470              3094.5626              3098.8707
 Red. masses --      1.0960                 1.0898                 1.1028
 Frc consts  --      6.1441                 6.1488                 6.2394
 IR Inten    --     48.3728                25.5235                36.6351

                     49                     50                     51
                      A                      A                      A
 Frequencies --   3164.1293              3175.5740              3789.8360
 Red. masses --      1.0895                 1.0925                 1.0661
 Frc consts  --      6.4268                 6.4910                 9.0220
 IR Inten    --      6.1996                23.4072                15.4007

 - Thermochemistry -
 -------------------
 Temperature   298.150 Kelvin.  Pressure   1.00000 Atm.
 Atom     1 has atomic number  8 and mass  15.99491

 Molecular mass:   126.06808 amu.
 Principal axes and moments of inertia in atomic units:
                           1         2         3
     Eigenvalues --   817.72796 922.340471066.45842
           X            0.99622  -0.07178  -0.04899
           Y            0.06787   0.99469  -0.07733
           Z            0.05428   0.07371   0.99580
 This molecule is an asymmetric top.
 Rotational symmetry number  1.
 Warning -- assumption of classical behavior for rotation
           may cause significant error
 Rotational temperatures (Kelvin)      0.10592     0.09391     0.08122
 Rotational constants (GHZ):           2.20702     1.95670     1.69228
 Zero-point vibrational energy     424688.1 (Joules/Mol)
                                  101.50290 (Kcal/Mol)
 Warning -- explicit consideration of   9 degrees of freedom as
           vibrations may cause significant error
 Vibrational temperatures:    215.40   329.15   366.31   438.10   484.27
          (Kelvin)            573.06   748.11   798.84   821.96   983.62
                             1059.02  1083.04  1159.31  1222.61  1269.15
                             1325.70  1341.51  1388.02  1399.00  1433.48
                             1455.80  1532.92  1543.94  1559.88  1625.27
                             1664.59  1708.61  1729.62  1774.24  1794.88
                             1831.31  1867.58  1873.05  1886.23  1931.76
                             1945.25  1990.39  2113.28  2134.90  2157.24
                             2180.91  4307.64  4365.22  4391.04  4428.08
                             4437.97  4452.38  4458.58  4552.47  4568.94
                             5452.72

 Zero-point correction=                           0.161755 (Hartree/Particle)
 Thermal correction to Energy=                    0.168948
 Thermal correction to Enthalpy=                  0.169892
 Thermal correction to Gibbs Free Energy=         0.130557
 Sum of electronic and zero-point Energies=           -423.019893
 Sum of electronic and thermal Energies=              -423.012700
 Sum of electronic and thermal Enthalpies=            -423.011756
 Sum of electronic and thermal Free Energies=         -423.051091

                     E (Thermal)             CV                S
                      KCal/Mol        Cal/Mol-Kelvin    Cal/Mol-Kelvin
 Total                  106.016             29.630             82.787
 Electronic               0.000              0.000              0.000
 Translational            0.889              2.981             40.409
 Rotational               0.889              2.981             28.177
 Vibrational            104.239             23.668             14.201
 Vibration     1          0.618              1.903              2.676
 Vibration     2          0.651              1.797              1.889
 Vibration     3          0.665              1.755              1.699
 Vibration     4          0.695              1.665              1.392
 Vibration     5          0.717              1.602              1.228
 Vibration     6          0.765              1.474              0.969
 Vibration     7          0.875              1.206              0.610
 Vibration     8          0.911              1.128              0.533
 Vibration     9          0.927              1.093              0.502

 Normal termination of Gaussian 09 at Mon Jan 27 17:49:04 2020.
