 Gaussian 09, Revision D.01,
 Gaussian 09:  ES64L-G09RevD.01 24-Apr-2013

 -----------------------------
 # b3lyp 6-31G(2df,p) opt Freq
 -----------------------------

 -----
 titel
 -----
 Symbolic Z-matrix:
 Charge =  0 Multiplicity = 1

 SCF Done:  E(RB3LYP) =  -423.128958486     A.U. after   13 cycles
 Optimization completed.
    -- Stationary point found.
 Normal termination of Gaussian 09 at Mon Jan 27 23:06:22 2020.

 ----------------------------------------------------------------------
 #N Geom=AllCheck Guess=TCheck SCRF=Check GenChk RB3LYP/6-31G(2df,p) Fr
 eq
 ----------------------------------------------------------------------

 Structure from the checkpoint file:  "/scratch/puck/g09_e94db974-07fe-4b92-ae5b-335075fa1f22/Gau-67603.chk"
 -----
 titel
 -----
 Charge =  0 Multiplicity = 1

                         Standard orientation:
 ---------------------------------------------------------------------
 Center     Atomic      Atomic             Coordinates (Angstroms)
 Number     Number       Type             X           Y           Z
 ---------------------------------------------------------------------
      1          6           0       -2.078300   -1.073172    0.662169
      2          6           0       -0.999950   -0.819727   -0.384801
      3          6           0        0.376833   -1.451271   -0.084671
      4          8           0        1.293467   -0.959638   -1.071973
      5          6           0        1.032256   -0.137557    0.082257
      6          6           0        2.167026    0.358677    0.912611
      7          6           0       -0.291141    0.555755   -0.231690
      8          6           0       -0.563932    1.876897   -0.787660
      9          8           0       -0.818365    1.575066    0.598640
     10          1           0       -2.429583   -2.108822    0.613019
     11          1           0       -1.703215   -0.885234    1.672998
     12          1           0       -2.935782   -0.413421    0.503773
     13          1           0       -1.360307   -1.042742   -1.393541
     14          1           0        0.597272   -2.409702    0.373234
     15          1           0        2.862842   -0.453698    1.137494
     16          1           0        2.719969    1.144790    0.386170
     17          1           0        1.792173    0.780559    1.849646
     18          1           0        0.252677    2.573884   -0.969631
     19          1           0       -1.453608    2.033344   -1.395788
 ---------------------------------------------------------------------

 SCF Done:  E(RB3LYP) =  -423.128958486     A.U. after    1 cycles

 The electronic state is 1-A.
 Alpha  occ. eigenvalues --  -19.15545 -19.15033 -10.24291 -10.24174 -10.23532
 Alpha  occ. eigenvalues --  -10.23414 -10.19652 -10.18821 -10.17983  -1.08313
 Alpha  occ. eigenvalues --   -1.06732  -0.80638  -0.75082  -0.69887  -0.66715
 Alpha  occ. eigenvalues --   -0.62483  -0.59402  -0.53542  -0.50149  -0.49159
 Alpha  occ. eigenvalues --   -0.46575  -0.43740  -0.43395  -0.42027  -0.40088
 Alpha  occ. eigenvalues --   -0.39568  -0.38214  -0.36957  -0.34891  -0.33367
 Alpha  occ. eigenvalues --   -0.31751  -0.28851  -0.26512  -0.24723
 Alpha virt. eigenvalues --    0.07897   0.08574   0.10031   0.10703   0.12641
 Alpha virt. eigenvalues --    0.12946   0.13538   0.14782   0.15344   0.15907
 Alpha virt. eigenvalues --    0.17228   0.17911   0.18306   0.19568   0.20890

 Mulliken charges:
               1
     1  C   -0.396117
     2  C   -0.135819
     3  C   -0.053481
     4  O   -0.291177
     5  C    0.326650
     6  C   -0.514923
     7  C    0.400029
     8  C   -0.265398
     9  O   -0.273823
    10  H    0.115144
    11  H    0.123612
    12  H    0.129209
    13  H    0.087474
    14  H    0.103812
    15  H    0.135031
    16  H    0.131935
    17  H    0.140952
    18  H    0.117858
    19  H    0.119032
 Sum of Mulliken charges =   0.00000

 Dipole moment (field-independent basis, Debye):
    X=             -0.2170    Y=             -0.2538    Z=              0.2974  Tot=              0.4471
 Quadrupole moment (field-independent basis, Debye-Ang):
   XX=            -52.4395   YY=            -51.3275   ZZ=            -54.8726
   XY=              2.8868   XZ=              4.6184   YZ=             -4.7782

  Exact polarizability:  79.943   2.965  82.183   2.907  -3.625  63.526
 Approx polarizability: 106.402   1.667 118.366  -1.626  -0.278 102.571

                      1                      2                      3
                      A                      A                      A
 Frequencies --     93.4988               165.3627               191.6603
 Red. masses --      3.0424                 1.1856                 2.3510
 Frc consts  --      0.0157                 0.0191                 0.0509
 IR Inten    --      1.8479                 0.9183                 3.3237

                      4                      5                      6
                      A                      A                      A
 Frequencies --    195.1822               203.2994               238.9904
 Red. masses --      1.3972                 1.7491                 3.0239
 Frc consts  --      0.0314                 0.0426                 0.1018
 IR Inten    --      0.4313                 0.2280                 4.0986

                      7                      8                      9
                      A                      A                      A
 Frequencies --    279.3320               369.1916               447.3775
 Red. masses --      3.0863                 2.6799                 3.7234
 Frc consts  --      0.1419                 0.2152                 0.4391
 IR Inten    --      1.3289                 2.6475                 7.3920

                     10                     11                     12
                      A                      A                      A
 Frequencies --    504.7694               531.2510               598.8784
 Red. masses --      6.0192                 5.1724                 3.5141
 Frc consts  --      0.9036                 0.8601                 0.7426
 IR Inten    --      5.2473                 2.7373                 2.9671

                     13                     14                     15
                      A                      A                      A
 Frequencies --    661.9131               787.5721               814.9177
 Red. masses --      3.3510                 3.1431                 2.1120
 Frc consts  --      0.8650                 1.1487                 0.8264
 IR Inten    --      0.5100                 5.6128                 8.3095

                     16                     17                     18
                      A                      A                      A
 Frequencies --    862.3969               886.7239               893.5323
 Red. masses --      2.1793                 3.3759                 2.4475
 Frc consts  --      0.9549                 1.5639                 1.1513
 IR Inten    --     14.0078                29.4507                 4.2963

                     19                     20                     21
                      A                      A                      A
 Frequencies --    966.1089               977.4187              1010.2770
 Red. masses --      3.8997                 1.3949                 2.4221
 Frc consts  --      2.1446                 0.7851                 1.4566
 IR Inten    --     36.5627                 3.5984                13.6976

                     22                     23                     24
                      A                      A                      A
 Frequencies --   1046.9809              1093.1660              1105.0672
 Red. masses --      1.7203                 1.5779                 1.7647
 Frc consts  --      1.1110                 1.1109                 1.2697
 IR Inten    --      4.3994                10.8045                 3.2935

                     25                     26                     27
                      A                      A                      A
 Frequencies --   1114.8161              1127.9093              1129.3195
 Red. masses --      1.4221                 2.3621                 1.7871
 Frc consts  --      1.0414                 1.7705                 1.3429
 IR Inten    --      3.1784                 1.6254                 0.4516

                     28                     29                     30
                      A                      A                      A
 Frequencies --   1161.0205              1228.9251              1248.7651
 Red. masses --      1.4592                 1.7136                 1.5617
 Frc consts  --      1.1589                 1.5248                 1.4349
 IR Inten    --      0.2703                 2.5210                15.1951

                     31                     32                     33
                      A                      A                      A
 Frequencies --   1254.4408              1341.4526              1398.1084
 Red. masses --      2.2490                 1.6965                 1.3910
 Frc consts  --      2.0851                 1.7986                 1.6020
 IR Inten    --     11.8213                 2.0057                 1.0647

                     34                     35                     36
                      A                      A                      A
 Frequencies --   1409.3759              1432.9013              1469.9507
 Red. masses --      1.2720                 2.1016                 1.7616
 Frc consts  --      1.4887                 2.5423                 2.2426
 IR Inten    --      2.5271                 4.1316                 8.4303

                     37                     38                     39
                      A                      A                      A
 Frequencies --   1481.0448              1491.9401              1493.9549
 Red. masses --      1.3838                 1.0739                 1.0673
 Frc consts  --      1.7883                 1.4084                 1.4035
 IR Inten    --     11.4947                 2.2434                 5.9979

                     40                     41                     42
                      A                      A                      A
 Frequencies --   1496.0692              1537.1942              3037.8552
 Red. masses --      1.1044                 1.7969                 1.0369
 Frc consts  --      1.4564                 2.5017                 5.6377
 IR Inten    --      8.3291                10.0677                21.6971

                     43                     44                     45
                      A                      A                      A
 Frequencies --   3039.3741              3063.5299              3084.6517
 Red. masses --      1.0352                 1.0855                 1.0505
 Frc consts  --      5.6343                 6.0021                 5.8891
 IR Inten    --     18.3491                17.0297                24.3958

                     46                     47                     48
                      A                      A                      A
 Frequencies --   3102.1951              3108.4308              3116.0067
 Red. masses --      1.0980                 1.1016                 1.1010
 Frc consts  --      6.2259                 6.2711                 6.2983
 IR Inten    --     12.4822                26.4122                18.9099

                     49                     50                     51
                      A                      A                      A
 Frequencies --   3127.1583              3171.6395              3176.8316
 Red. masses --      1.1020                 1.1194                 1.0942
 Frc consts  --      6.3495                 6.6343                 6.5063
 IR Inten    --      9.8614                17.9499                17.5685

 - Thermochemistry -
 -------------------
 Temperature   298.150 Kelvin.  Pressure   1.00000 Atm.
 Atom     1 has atomic number  6 and mass  12.00000

 Molecular mass:   126.06808 amu.
 Principal axes and moments of inertia in atomic units:
                           1         2         3
     Eigenvalues --   840.766941007.141051403.81397
           X            0.98006   0.19593   0.03301
           Y           -0.19401   0.97952  -0.05378
           Z           -0.04287   0.04630   0.99801
 This molecule is an asymmetric top.
 Rotational symmetry number  1.
 Warning -- assumption of classical behavior for rotation
           may cause significant error
 Rotational temperatures (Kelvin)      0.10302     0.08600     0.06170
 Rotational constants (GHZ):           2.14654     1.79194     1.28560
 Zero-point vibrational energy     411334.3 (Joules/Mol)
                                   98.31126 (Kcal/Mol)
 Warning -- explicit consideration of  12 degrees of freedom as
           vibrations may cause significant error
 Vibrational temperatures:    134.52   237.92   275.76   280.82   292.50
          (Kelvin)            343.85   401.90   531.18   643.68   726.25
                              764.35   861.65   952.34  1133.14  1172.48
                             1240.80  1275.80  1285.59  1390.01  1406.29
                             1453.56  1506.37  1572.82  1589.94  1603.97
                             1622.81  1624.84  1670.45  1768.15  1796.69
                             1804.86  1930.05  2011.56  2027.78  2061.62
                             2114.93  2130.89  2146.57  2149.47  2152.51
                             2211.68  4370.79  4372.98  4407.73  4438.12
                             4463.36  4472.33  4483.23  4499.28  4563.28
                             4570.75

 Zero-point correction=                           0.156669 (Hartree/Particle)
 Thermal correction to Energy=                    0.165551
 Thermal correction to Enthalpy=                  0.166495
 Thermal correction to Gibbs Free Energy=         0.123425
 Sum of electronic and zero-point Energies=           -422.972290
 Sum of electronic and thermal Energies=              -422.963408
 Sum of electronic and thermal Enthalpies=            -422.962464
 Sum of electronic and thermal Free Energies=         -423.005533

                     E (Thermal)             CV                S
                      KCal/Mol        Cal/Mol-Kelvin    Cal/Mol-Kelvin
 Total                  103.885             33.478             90.648
 Electronic               0.000              0.000              0.000
 Translational            0.889              2.981             40.409
 Rotational               0.889              2.981             28.565
 Vibrational            102.107             27.517             21.674
 Vibration     1          0.603              1.954              3.586
 Vibration     2          0.624              1.885              2.488
 Vibration     3          0.634              1.851              2.212
 Vibration     4          0.636              1.847              2.178
 Vibration     5          0.639              1.835              2.103
 Vibration     6          0.657              1.781              1.810
 Vibration     7          0.680              1.712              1.538
 Vibration     8          0.741              1.536              1.083
 Vibration     9          0.807              1.367              0.804
 Vibration    10          0.860              1.239              0.646
 Vibration    11          0.886              1.181              0.584
 Vibration    12          0.957              1.034              0.452

 Optimization completed.
    -- Stationary point found.
 Normal termination of Gaussian 09 at Mon Jan 27 23:49:56 2020.
