 Gaussian 09, Revision D.01,
 Gaussian 09:  ES64L-G09RevD.01 24-Apr-2013

 -----------------------------
 # b3lyp 6-31G(2df,p) opt Freq
 -----------------------------

 -----
 titel
 -----
 Symbolic Z-matrix:
 Charge =  0 Multiplicity = 1

 SCF Done:  E(RB3LYP) =  -423.187309778     A.U. after   14 cycles
 Optimization completed.
    -- Stationary point found.
 Normal termination of Gaussian 09 at Tue Jan 28 02:26:28 2020.

 ----------------------------------------------------------------------
 #N Geom=AllCheck Guess=TCheck SCRF=Check GenChk RB3LYP/6-31G(2df,p) Fr
 eq
 ----------------------------------------------------------------------

 Structure from the checkpoint file:  "/scratch/puck/g09_72271fc0-c5b8-4073-a20c-8312634760e1/Gau-194537.chk"
 -----
 titel
 -----
 Charge =  0 Multiplicity = 1

                         Standard orientation:
 ---------------------------------------------------------------------
 Center     Atomic      Atomic             Coordinates (Angstroms)
 Number     Number       Type             X           Y           Z
 ---------------------------------------------------------------------
      1          6           0       -2.684577   -0.241928   -0.105765
      2          6           0       -1.306431    0.254785   -0.507016
      3          8           0       -0.406719   -0.865250   -0.760674
      4          6           0        0.740945   -0.583236    0.068214
      5          6           0        1.820082   -1.608093   -0.098970
      6          6           0        0.078585   -0.154023    1.414267
      7          6           0       -0.487323    1.026014    0.551914
      8          6           0        0.894155    0.947837   -0.141462
      9          8           0        1.735734    1.710033   -0.507310
     10          1           0       -2.669664   -0.766102    0.853335
     11          1           0       -3.384355    0.597220   -0.033954
     12          1           0       -3.058650   -0.935554   -0.864972
     13          1           0       -1.392244    0.847708   -1.427758
     14          1           0        2.682989   -1.356647    0.523445
     15          1           0        1.458967   -2.601445    0.183850
     16          1           0        2.145344   -1.645533   -1.142411
     17          1           0       -0.640649   -0.862141    1.827902
     18          1           0        0.793807    0.173683    2.171342
     19          1           0       -0.900287    1.942413    0.965997
 ---------------------------------------------------------------------

 SCF Done:  E(RB3LYP) =  -423.187309778     A.U. after    1 cycles

 The electronic state is 1-A.
 Alpha  occ. eigenvalues --  -19.14568 -19.14470 -10.27165 -10.24867 -10.24574
 Alpha  occ. eigenvalues --  -10.20673 -10.20225 -10.18501 -10.18366  -1.06178
 Alpha  occ. eigenvalues --   -1.04064  -0.84047  -0.78593  -0.72948  -0.66275
 Alpha  occ. eigenvalues --   -0.62717  -0.57282  -0.53479  -0.50634  -0.46942
 Alpha  occ. eigenvalues --   -0.46181  -0.45299  -0.42252  -0.41381  -0.40326
 Alpha  occ. eigenvalues --   -0.39302  -0.37884  -0.36948  -0.36872  -0.35116
 Alpha  occ. eigenvalues --   -0.34223  -0.33071  -0.27786  -0.22387
 Alpha virt. eigenvalues --   -0.01486   0.08934   0.10229   0.11819   0.12071
 Alpha virt. eigenvalues --    0.13100   0.13943   0.15228   0.15620   0.16282
 Alpha virt. eigenvalues --    0.17666   0.18334   0.18796   0.19922   0.21304

 Mulliken charges:
               1
     1  C   -0.411883
     2  C    0.148151
     3  O   -0.330214
     4  C    0.313769
     5  C   -0.497606
     6  C   -0.297704
     7  C   -0.207787
     8  C    0.409112
     9  O   -0.318956
    10  H    0.120127
    11  H    0.117974
    12  H    0.133622
    13  H    0.088924
    14  H    0.129875
    15  H    0.131255
    16  H    0.141811
    17  H    0.116687
    18  H    0.119696
    19  H    0.093147
 Sum of Mulliken charges =   0.00000

 Dipole moment (field-independent basis, Debye):
    X=             -1.6933    Y=             -0.8768    Z=              1.7024  Tot=              2.5562
 Quadrupole moment (field-independent basis, Debye-Ang):
   XX=            -53.4299   YY=            -56.3935   ZZ=            -52.5935
   XY=             -5.9732   XZ=              1.8547   YZ=              0.2063

  Exact polarizability:  87.213  -1.150  74.126  -0.409  -1.463  66.739
 Approx polarizability: 118.658   5.237 112.776  -2.947  -3.524 104.311

                      1                      2                      3
                      A                      A                      A
 Frequencies --    134.5723               163.0416               182.3196
 Red. masses --      3.8157                 1.6232                 1.5448
 Frc consts  --      0.0407                 0.0254                 0.0303
 IR Inten    --      2.6924                 0.7665                 1.3982

                      4                      5                      6
                      A                      A                      A
 Frequencies --    206.1358               228.2938               249.0399
 Red. masses --      1.1468                 3.3737                 2.7840
 Frc consts  --      0.0287                 0.1036                 0.1017
 IR Inten    --      0.6312                 2.0551                 0.5110

                      7                      8                      9
                      A                      A                      A
 Frequencies --    329.2509               450.9653               467.4131
 Red. masses --      2.5672                 3.5028                 2.5347
 Frc consts  --      0.1640                 0.4197                 0.3263
 IR Inten    --      0.4693                 2.4986                 1.6367

                     10                     11                     12
                      A                      A                      A
 Frequencies --    514.5811               609.5036               660.6689
 Red. masses --      3.1899                 3.7054                 2.9860
 Frc consts  --      0.4977                 0.8110                 0.7679
 IR Inten    --      3.9747                 3.9239                 4.4744

                     13                     14                     15
                      A                      A                      A
 Frequencies --    694.1980               778.7437               813.2436
 Red. masses --      3.7364                 4.2053                 2.9910
 Frc consts  --      1.0609                 1.5026                 1.1655
 IR Inten    --      1.3395                 7.7709                 2.0130

                     16                     17                     18
                      A                      A                      A
 Frequencies --    847.7142               861.4128               884.8345
 Red. masses --      3.5184                 2.8637                 2.4603
 Frc consts  --      1.4897                 1.2520                 1.1349
 IR Inten    --      6.5679                 9.8210                 8.2495

                     19                     20                     21
                      A                      A                      A
 Frequencies --    917.9638               990.9350               994.4076
 Red. masses --      3.1179                 1.5713                 2.0050
 Frc consts  --      1.5479                 0.9091                 1.1681
 IR Inten    --     44.6704                 2.9883                 4.2331

                     22                     23                     24
                      A                      A                      A
 Frequencies --   1028.0374              1070.9939              1085.0421
 Red. masses --      1.2934                 1.5480                 1.8131
 Frc consts  --      0.8054                 1.0461                 1.2577
 IR Inten    --     20.3917                 9.7731                33.1930

                     25                     26                     27
                      A                      A                      A
 Frequencies --   1118.8198              1125.6892              1161.7773
 Red. masses --      1.8424                 2.0698                 1.8675
 Frc consts  --      1.3588                 1.5453                 1.4851
 IR Inten    --     21.1826                14.2092                12.7149

                     28                     29                     30
                      A                      A                      A
 Frequencies --   1194.0082              1198.9812              1253.5912
 Red. masses --      1.8486                 2.2679                 1.7231
 Frc consts  --      1.5528                 1.9208                 1.5954
 IR Inten    --      7.1132                17.6596                 5.3677

                     31                     32                     33
                      A                      A                      A
 Frequencies --   1321.2000              1345.2883              1398.0743
 Red. masses --      1.4407                 2.4898                 1.2364
 Frc consts  --      1.4817                 2.6549                 1.4239
 IR Inten    --      3.3871                12.3559                 6.6562

                     34                     35                     36
                      A                      A                      A
 Frequencies --   1410.9359              1423.3535              1476.9264
 Red. masses --      1.3333                 1.6764                 1.1288
 Frc consts  --      1.5639                 2.0010                 1.4508
 IR Inten    --     32.5647                 4.6041                 3.1411

                     37                     38                     39
                      A                      A                      A
 Frequencies --   1477.4424              1488.3852              1490.6332
 Red. masses --      1.0548                 1.0585                 1.0538
 Frc consts  --      1.3566                 1.3815                 1.3796
 IR Inten    --      3.5267                 3.3379                 4.0324

                     40                     41                     42
                      A                      A                      A
 Frequencies --   1494.2586              1905.8770              3008.2958
 Red. masses --      1.0523                12.5358                 1.0851
 Frc consts  --      1.3843                26.8282                 5.7857
 IR Inten    --      4.5575               291.7081                41.4587

                     43                     44                     45
                      A                      A                      A
 Frequencies --   3039.9913              3045.9743              3078.1853
 Red. masses --      1.0354                 1.0351                 1.0561
 Frc consts  --      5.6378                 5.6585                 5.8957
 IR Inten    --     15.3772                15.2256                 9.1549

                     46                     47                     48
                      A                      A                      A
 Frequencies --   3111.3451              3117.3674              3120.6728
 Red. masses --      1.1010                 1.1014                 1.1019
 Frc consts  --      6.2794                 6.3061                 6.3227
 IR Inten    --     14.4807                10.6482                25.7604

                     49                     50                     51
                      A                      A                      A
 Frequencies --   3125.4674              3146.7027              3157.9245
 Red. masses --      1.1015                 1.1099                 1.0914
 Frc consts  --      6.3395                 6.4752                 6.4127
 IR Inten    --     11.3142                12.4836                14.4407

 - Thermochemistry -
 -------------------
 Temperature   298.150 Kelvin.  Pressure   1.00000 Atm.
 Atom     1 has atomic number  6 and mass  12.00000

 Molecular mass:   126.06808 amu.
 Principal axes and moments of inertia in atomic units:
                           1         2         3
     Eigenvalues --   697.879861150.228761428.08510
           X            0.99681  -0.07955   0.00603
           Y            0.07954   0.99683   0.00153
           Z           -0.00613  -0.00105   0.99998
 This molecule is an asymmetric top.
 Rotational symmetry number  1.
 Warning -- assumption of classical behavior for rotation
           may cause significant error
 Rotational temperatures (Kelvin)      0.12411     0.07530     0.06065
 Rotational constants (GHZ):           2.58603     1.56903     1.26375
 Zero-point vibrational energy     415107.1 (Joules/Mol)
                                   99.21297 (Kcal/Mol)
 Warning -- explicit consideration of  11 degrees of freedom as
           vibrations may cause significant error
 Vibrational temperatures:    193.62   234.58   262.32   296.58   328.46
          (Kelvin)            358.31   473.72   648.84   672.50   740.37
                              876.94   950.55   998.79  1120.44  1170.07
                             1219.67  1239.38  1273.08  1320.74  1425.73
                             1430.73  1479.11  1540.92  1561.13  1609.73
                             1619.61  1671.54  1717.91  1725.06  1803.64
                             1900.91  1935.57  2011.51  2030.02  2047.89
                             2124.97  2125.71  2141.45  2144.69  2149.90
                             2742.13  4328.26  4373.86  4382.47  4428.82
                             4476.53  4485.19  4489.95  4496.84  4527.40
                             4543.54

 Zero-point correction=                           0.158106 (Hartree/Particle)
 Thermal correction to Energy=                    0.166625
 Thermal correction to Enthalpy=                  0.167569
 Thermal correction to Gibbs Free Energy=         0.125396
 Sum of electronic and zero-point Energies=           -423.029204
 Sum of electronic and thermal Energies=              -423.020685
 Sum of electronic and thermal Enthalpies=            -423.019741
 Sum of electronic and thermal Free Energies=         -423.061914

                     E (Thermal)             CV                S
                      KCal/Mol        Cal/Mol-Kelvin    Cal/Mol-Kelvin
 Total                  104.559             32.784             88.761
 Electronic               0.000              0.000              0.000
 Translational            0.889              2.981             40.409
 Rotational               0.889              2.981             28.529
 Vibrational            102.781             26.823             19.824
 Vibration     1          0.613              1.919              2.880
 Vibration     2          0.623              1.888              2.514
 Vibration     3          0.630              1.864              2.305
 Vibration     4          0.641              1.831              2.078
 Vibration     5          0.651              1.798              1.892
 Vibration     6          0.662              1.764              1.737
 Vibration     7          0.712              1.617              1.264
 Vibration     8          0.810              1.359              0.793
 Vibration     9          0.825              1.322              0.745
 Vibration    10          0.870              1.218              0.623
 Vibration    11          0.968              1.012              0.434

 Optimization completed.
    -- Stationary point found.
 Normal termination of Gaussian 09 at Tue Jan 28 03:10:48 2020.
