 Gaussian 09, Revision D.01,
 Gaussian 09:  ES64L-G09RevD.01 24-Apr-2013

 -----------------------------
 # b3lyp 6-31G(2df,p) opt Freq
 -----------------------------

 -----
 titel
 -----
 Symbolic Z-matrix:
 Charge =  0 Multiplicity = 1

 SCF Done:  E(RB3LYP) =  -423.197556372     A.U. after   14 cycles
 Optimization completed.
    -- Stationary point found.
 Normal termination of Gaussian 09 at Mon Jan 27 17:42:25 2020.

 ----------------------------------------------------------------------
 #N Geom=AllCheck Guess=TCheck SCRF=Check GenChk RB3LYP/6-31G(2df,p) Fr
 eq
 ----------------------------------------------------------------------

 Structure from the checkpoint file:  "/scratch/puck/g09_24e0a1c9-3f38-4c09-a73e-b62d08b39170/Gau-169523.chk"
 -----
 titel
 -----
 Charge =  0 Multiplicity = 1

                         Standard orientation:
 ---------------------------------------------------------------------
 Center     Atomic      Atomic             Coordinates (Angstroms)
 Number     Number       Type             X           Y           Z
 ---------------------------------------------------------------------
      1          6           0       -2.076823   -1.002164   -0.832226
      2          6           0       -1.196199   -0.145605    0.045258
      3          6           0       -1.658398    1.182912    0.563168
      4          6           0       -0.530639    1.118488   -0.450242
      5          6           0        0.917987    1.307110   -0.009708
      6          6           0        1.666845   -0.017784   -0.077145
      7          8           0        2.801617   -0.137773   -0.469988
      8          6           0        0.855257   -1.228213    0.394596
      9          8           0       -0.395961   -0.869139    0.955090
     10          1           0       -1.484974   -1.688589   -1.448122
     11          1           0       -2.758578   -1.600395   -0.219209
     12          1           0       -2.674780   -0.381582   -1.505863
     13          1           0       -2.622991    1.552590    0.232858
     14          1           0       -1.398191    1.429050    1.587020
     15          1           0       -0.756651    1.434613   -1.463676
     16          1           0        1.450430    2.039810   -0.619234
     17          1           0        0.963034    1.655089    1.030223
     18          1           0        0.749069   -1.925580   -0.450917
     19          1           0        1.420201   -1.748164    1.173896
 ---------------------------------------------------------------------

 SCF Done:  E(RB3LYP) =  -423.197556372     A.U. after    1 cycles

 The electronic state is 1-A.
 Alpha  occ. eigenvalues --  -19.15359 -19.13050 -10.26962 -10.24700 -10.23782
 Alpha  occ. eigenvalues --  -10.20318 -10.19739 -10.19171 -10.18658  -1.05510
 Alpha  occ. eigenvalues --   -1.03837  -0.86603  -0.77369  -0.71758  -0.70058
 Alpha  occ. eigenvalues --   -0.60132  -0.58942  -0.51910  -0.50450  -0.50185
 Alpha  occ. eigenvalues --   -0.47558  -0.44619  -0.43028  -0.41965  -0.41093
 Alpha  occ. eigenvalues --   -0.40272  -0.39359  -0.37903  -0.36986  -0.33985
 Alpha  occ. eigenvalues --   -0.31697  -0.28770  -0.27258  -0.22837
 Alpha virt. eigenvalues --   -0.01601   0.07689   0.09676   0.10795   0.12096
 Alpha virt. eigenvalues --    0.13041   0.13999   0.14838   0.15466   0.16410
 Alpha virt. eigenvalues --    0.17492   0.17822   0.19807   0.21612   0.22774

 Mulliken charges:
               1
     1  C   -0.460513
     2  C    0.431408
     3  C   -0.347992
     4  C   -0.100636
     5  C   -0.333275
     6  C    0.363466
     7  O   -0.304334
     8  C   -0.192863
     9  O   -0.284356
    10  H    0.120458
    11  H    0.130515
    12  H    0.119408
    13  H    0.114339
    14  H    0.121998
    15  H    0.098189
    16  H    0.129377
    17  H    0.132700
    18  H    0.121870
    19  H    0.140241
 Sum of Mulliken charges =   0.00000

 Dipole moment (field-independent basis, Debye):
    X=             -2.3929    Y=              0.6119    Z=             -0.2882  Tot=              2.4866
 Quadrupole moment (field-independent basis, Debye-Ang):
   XX=            -60.8884   YY=            -51.1917   ZZ=            -52.8622
   XY=             -0.4976   XZ=              4.3013   YZ=              0.7986

  Exact polarizability:  86.974  -2.205  74.932  -1.174   0.974  63.054
 Approx polarizability: 120.885  -4.392 105.761  -6.985  -0.162  99.683

                      1                      2                      3
                      A                      A                      A
 Frequencies --     67.1717               183.0800               210.8230
 Red. masses --      4.1961                 1.9787                 2.1543
 Frc consts  --      0.0112                 0.0391                 0.0564
 IR Inten    --      4.4137                 1.2825                 2.9824

                      4                      5                      6
                      A                      A                      A
 Frequencies --    225.0059               327.6837               368.7327
 Red. masses --      1.2035                 2.5901                 3.7632
 Frc consts  --      0.0359                 0.1639                 0.3015
 IR Inten    --      0.5775                 1.0909                 8.6903

                      7                      8                      9
                      A                      A                      A
 Frequencies --    404.3886               449.9621               467.2330
 Red. masses --      2.6654                 3.1299                 2.8780
 Frc consts  --      0.2568                 0.3734                 0.3702
 IR Inten    --      2.3111                 9.1310                 9.7806

                     10                     11                     12
                      A                      A                      A
 Frequencies --    473.3448               553.6110               637.9433
 Red. masses --      3.8900                 3.7404                 3.0869
 Frc consts  --      0.5135                 0.6754                 0.7402
 IR Inten    --      1.2410                 1.8495                 1.3984

                     13                     14                     15
                      A                      A                      A
 Frequencies --    710.3281               758.8745               820.2967
 Red. masses --      4.1701                 2.3443                 2.2478
 Frc consts  --      1.2397                 0.7954                 0.8911
 IR Inten    --      4.0698                 4.6074                 8.0714

                     16                     17                     18
                      A                      A                      A
 Frequencies --    868.0985               890.8091               923.2823
 Red. masses --      1.6389                 2.2897                 1.6691
 Frc consts  --      0.7277                 1.0705                 0.8383
 IR Inten    --      2.9426                 1.8644                 4.2728

                     19                     20                     21
                      A                      A                      A
 Frequencies --    954.0409               986.0262              1042.7858
 Red. masses --      1.6532                 1.7627                 1.8212
 Frc consts  --      0.8866                 1.0097                 1.1668
 IR Inten    --      3.9143                 1.5048                11.8604

                     22                     23                     24
                      A                      A                      A
 Frequencies --   1061.0483              1095.5906              1103.6099
 Red. masses --      1.3953                 2.0436                 3.3735
 Frc consts  --      0.9255                 1.4452                 2.4208
 IR Inten    --      1.3595                14.5842                58.5816

                     25                     26                     27
                      A                      A                      A
 Frequencies --   1107.9349              1141.4198              1189.8665
 Red. masses --      2.0792                 2.0936                 2.5606
 Frc consts  --      1.5038                 1.6071                 2.1359
 IR Inten    --      4.3263                24.5517                32.4814

                     28                     29                     30
                      A                      A                      A
 Frequencies --   1230.8828              1249.4631              1273.3071
 Red. masses --      1.9878                 1.4744                 1.3988
 Frc consts  --      1.7744                 1.3562                 1.3362
 IR Inten    --     16.4447                15.4781                29.3696

                     31                     32                     33
                      A                      A                      A
 Frequencies --   1284.4978              1307.1851              1358.9598
 Red. masses --      1.5940                 1.7760                 1.4086
 Frc consts  --      1.5495                 1.7880                 1.5326
 IR Inten    --     17.3757                17.4921                 3.9995

                     34                     35                     36
                      A                      A                      A
 Frequencies --   1399.0151              1418.4987              1451.0184
 Red. masses --      1.4572                 1.5787                 1.1011
 Frc consts  --      1.6805                 1.8716                 1.3659
 IR Inten    --      5.9235                 6.3566                 2.8748

                     37                     38                     39
                      A                      A                      A
 Frequencies --   1459.0292              1481.2451              1484.7481
 Red. masses --      1.0814                 1.2723                 1.0691
 Frc consts  --      1.3564                 1.6448                 1.3885
 IR Inten    --      4.8561                13.5818                 0.9587

                     40                     41                     42
                      A                      A                      A
 Frequencies --   1500.9192              1827.5766              2990.5433
 Red. masses --      1.1702                12.1777                 1.0692
 Frc consts  --      1.5532                23.9644                 5.6338
 IR Inten    --      3.0709               190.0723                25.8766

                     43                     44                     45
                      A                      A                      A
 Frequencies --   3032.2234              3033.3984              3093.3889
 Red. masses --      1.0366                 1.0661                 1.0919
 Frc consts  --      5.6156                 5.7795                 6.1562
 IR Inten    --     26.7429                 5.4112                15.3687

                     46                     47                     48
                      A                      A                      A
 Frequencies --   3095.6637              3114.0611              3115.0430
 Red. masses --      1.1000                 1.1004                 1.0954
 Frc consts  --      6.2109                 6.2872                 6.2624
 IR Inten    --     18.1165                19.0811                 3.9721

                     49                     50                     51
                      A                      A                      A
 Frequencies --   3132.5212              3157.6493              3223.4520
 Red. masses --      1.0542                 1.0900                 1.1171
 Frc consts  --      6.0947                 6.4031                 6.8391
 IR Inten    --      9.9594                12.3110                 7.2351

 - Thermochemistry -
 -------------------
 Temperature   298.150 Kelvin.  Pressure   1.00000 Atm.
 Atom     1 has atomic number  6 and mass  12.00000

 Molecular mass:   126.06808 amu.
 Principal axes and moments of inertia in atomic units:
                           1         2         3
     Eigenvalues --   598.993191300.504631566.84781
           X            0.99969   0.00552   0.02425
           Y           -0.00654   0.99908   0.04229
           Z           -0.02399  -0.04244   0.99881
 This molecule is an asymmetric top.
 Rotational symmetry number  1.
 Warning -- assumption of classical behavior for rotation
           may cause significant error
 Rotational temperatures (Kelvin)      0.14460     0.06660     0.05528
 Rotational constants (GHZ):           3.01296     1.38772     1.15183
 Zero-point vibrational energy     417121.6 (Joules/Mol)
                                   99.69445 (Kcal/Mol)
 Warning -- explicit consideration of  11 degrees of freedom as
           vibrations may cause significant error
 Vibrational temperatures:     96.64   263.41   303.33   323.73   471.46
          (Kelvin)            530.52   581.82   647.39   672.24   681.04
                              796.52   917.86  1022.00  1091.85  1180.22
                             1249.00  1281.67  1328.40  1372.65  1418.67
                             1500.33  1526.61  1576.31  1587.85  1594.07
                             1642.25  1711.95  1770.96  1797.70  1832.00
                             1848.10  1880.75  1955.24  2012.87  2040.90
                             2087.69  2099.21  2131.18  2136.22  2159.49
                             2629.47  4302.72  4362.69  4364.38  4450.69
                             4453.96  4480.43  4481.85  4506.99  4543.15
                             4637.82

 Zero-point correction=                           0.158873 (Hartree/Particle)
 Thermal correction to Energy=                    0.167088
 Thermal correction to Enthalpy=                  0.168032
 Thermal correction to Gibbs Free Energy=         0.126187
 Sum of electronic and zero-point Energies=           -423.038683
 Sum of electronic and thermal Energies=              -423.030469
 Sum of electronic and thermal Enthalpies=            -423.029524
 Sum of electronic and thermal Free Energies=         -423.071369

                     E (Thermal)             CV                S
                      KCal/Mol        Cal/Mol-Kelvin    Cal/Mol-Kelvin
 Total                  104.849             32.137             88.069
 Electronic               0.000              0.000              0.000
 Translational            0.889              2.981             40.409
 Rotational               0.889              2.981             28.592
 Vibrational            103.072             26.175             19.069
 Vibration     1          0.598              1.970              4.235
 Vibration     2          0.631              1.863              2.297
 Vibration     3          0.643              1.824              2.037
 Vibration     4          0.650              1.803              1.918
 Vibration     5          0.711              1.620              1.271
 Vibration     6          0.741              1.537              1.085
 Vibration     7          0.770              1.461              0.947
 Vibration     8          0.809              1.361              0.796
 Vibration     9          0.825              1.323              0.745
 Vibration    10          0.830              1.309              0.728
 Vibration    11          0.909              1.132              0.537

 Optimization completed.
    -- Stationary point found.
 Normal termination of Gaussian 09 at Mon Jan 27 18:26:09 2020.
