 Gaussian 09, Revision D.01,
 Gaussian 09:  ES64L-G09RevD.01 24-Apr-2013

 -----------------------------
 # b3lyp 6-31G(2df,p) opt Freq
 -----------------------------

 -----
 titel
 -----
 Symbolic Z-matrix:
 Charge =  0 Multiplicity = 1

 SCF Done:  E(RB3LYP) =  -423.162844596     A.U. after   13 cycles
 Optimization completed.
    -- Stationary point found.
 Normal termination of Gaussian 09 at Mon Jan 27 23:46:43 2020.

 ----------------------------------------------------------------------
 #N Geom=AllCheck Guess=TCheck SCRF=Check GenChk RB3LYP/6-31G(2df,p) Fr
 eq
 ----------------------------------------------------------------------

 Structure from the checkpoint file:  "/scratch/puck/g09_bece8284-7128-431a-b54d-eedc8ee4b2d5/Gau-104090.chk"
 -----
 titel
 -----
 Charge =  0 Multiplicity = 1

                         Standard orientation:
 ---------------------------------------------------------------------
 Center     Atomic      Atomic             Coordinates (Angstroms)
 Number     Number       Type             X           Y           Z
 ---------------------------------------------------------------------
      1          6           0       -1.616654   -1.797940    0.324877
      2          6           0       -0.990646   -0.494626   -0.090569
      3          8           0       -1.856989    0.446934   -0.756704
      4          6           0       -1.289934    0.821047    0.504821
      5          6           0       -0.108156    1.775210    0.376874
      6          6           0        0.961477    0.949054   -0.340434
      7          6           0        1.515897   -0.252594    0.378446
      8          8           0        2.810285   -0.721455    0.141539
      9          6           0        0.412560   -0.446930   -0.631377
     10          1           0       -1.721822   -2.465447   -0.537435
     11          1           0       -0.993349   -2.307468    1.066823
     12          1           0       -2.610232   -1.632879    0.748640
     13          1           0       -2.005075    0.939565    1.316322
     14          1           0       -0.395915    2.657421   -0.204743
     15          1           0        0.224287    2.123343    1.362365
     16          1           0        1.605802    1.438211   -1.064082
     17          1           0        1.278785   -0.375535    1.432085
     18          1           0        3.043108   -0.537983   -0.774198
     19          1           0        0.640777   -0.962383   -1.560290
 ---------------------------------------------------------------------

 SCF Done:  E(RB3LYP) =  -423.162844596     A.U. after    1 cycles

 The electronic state is 1-A.
 Alpha  occ. eigenvalues --  -19.14698 -19.14100 -10.24007 -10.23953 -10.23163
 Alpha  occ. eigenvalues --  -10.19270 -10.19037 -10.18917 -10.18248  -1.06483
 Alpha  occ. eigenvalues --   -1.03200  -0.86449  -0.75179  -0.73086  -0.64523
 Alpha  occ. eigenvalues --   -0.62574  -0.58260  -0.55781  -0.51443  -0.49349
 Alpha  occ. eigenvalues --   -0.45632  -0.43375  -0.42595  -0.41204  -0.41080
 Alpha  occ. eigenvalues --   -0.38785  -0.37680  -0.36700  -0.35791  -0.35319
 Alpha  occ. eigenvalues --   -0.29340  -0.27561  -0.26040  -0.23622
 Alpha virt. eigenvalues --    0.07397   0.09227   0.09704   0.10005   0.11872
 Alpha virt. eigenvalues --    0.12973   0.13570   0.15163   0.16852   0.17144
 Alpha virt. eigenvalues --    0.17499   0.17962   0.20016   0.21099   0.22325

 Mulliken charges:
               1
     1  C   -0.482931
     2  C    0.411851
     3  O   -0.303324
     4  C   -0.015475
     5  C   -0.265766
     6  C   -0.107355
     7  C    0.144746
     8  O   -0.437363
     9  C   -0.190553
    10  H    0.127624
    11  H    0.126476
    12  H    0.128438
    13  H    0.089035
    14  H    0.114878
    15  H    0.102499
    16  H    0.082500
    17  H    0.104118
    18  H    0.284435
    19  H    0.086169
 Sum of Mulliken charges =   0.00000

 Dipole moment (field-independent basis, Debye):
    X=              0.4602    Y=              0.1395    Z=              0.2023  Tot=              0.5217
 Quadrupole moment (field-independent basis, Debye-Ang):
   XX=            -57.7759   YY=            -51.9490   ZZ=            -51.2343
   XY=              3.1566   XZ=             -7.9342   YZ=              1.9179

  Exact polarizability:  79.624   0.247  78.488  -3.344   2.688  64.592
 Approx polarizability: 109.728  -3.770 112.416   1.397   3.789 104.586

                      1                      2                      3
                      A                      A                      A
 Frequencies --    140.3624               146.6261               179.8510
 Red. masses --      1.2798                 2.0966                 1.8001
 Frc consts  --      0.0149                 0.0266                 0.0343
 IR Inten    --     67.0303                22.9203                 3.5884

                      4                      5                      6
                      A                      A                      A
 Frequencies --    209.6802               263.7276               303.3411
 Red. masses --      1.5077                 2.8227                 2.3156
 Frc consts  --      0.0391                 0.1157                 0.1255
 IR Inten    --      2.6613                 4.0928                 3.4571

                      7                      8                      9
                      A                      A                      A
 Frequencies --    355.3486               411.8345               439.3629
 Red. masses --      3.2264                 5.0283                 3.6055
 Frc consts  --      0.2400                 0.5025                 0.4101
 IR Inten    --      4.1606                 4.3981                 6.6241

                     10                     11                     12
                      A                      A                      A
 Frequencies --    472.9198               576.1495               728.5526
 Red. masses --      3.2292                 4.0179                 3.7912
 Frc consts  --      0.4255                 0.7858                 1.1856
 IR Inten    --      3.1726                 1.0022                 2.5028

                     13                     14                     15
                      A                      A                      A
 Frequencies --    737.5937               829.3170               850.7957
 Red. masses --      4.5117                 2.1313                 3.0913
 Frc consts  --      1.4462                 0.8637                 1.3184
 IR Inten    --      6.4447                16.2866                27.2508

                     16                     17                     18
                      A                      A                      A
 Frequencies --    868.2298               920.3074               924.1949
 Red. masses --      2.8947                 2.3047                 2.9194
 Frc consts  --      1.2857                 1.1501                 1.4692
 IR Inten    --     18.5837                 2.2344                16.8169

                     19                     20                     21
                      A                      A                      A
 Frequencies --    960.8148               981.5297              1028.0164
 Red. masses --      2.0508                 1.6710                 1.5857
 Frc consts  --      1.1155                 0.9485                 0.9873
 IR Inten    --      2.1533                 2.2556                12.3618

                     22                     23                     24
                      A                      A                      A
 Frequencies --   1033.0749              1051.5267              1081.6000
 Red. masses --      1.4898                 2.0909                 1.3767
 Frc consts  --      0.9368                 1.3621                 0.9489
 IR Inten    --      8.9065                 4.3568                 0.3360

                     25                     26                     27
                      A                      A                      A
 Frequencies --   1101.0452              1119.7568              1124.9403
 Red. masses --      1.8795                 1.7660                 1.7863
 Frc consts  --      1.3424                 1.3046                 1.3319
 IR Inten    --     27.4236                76.1018                 2.8551

                     28                     29                     30
                      A                      A                      A
 Frequencies --   1171.9576              1217.9286              1236.2828
 Red. masses --      1.6474                 1.2595                 2.0272
 Frc consts  --      1.3331                 1.1008                 1.8255
 IR Inten    --     44.7423                 3.1614                 8.0729

                     31                     32                     33
                      A                      A                      A
 Frequencies --   1271.0888              1293.1874              1315.2935
 Red. masses --      1.5457                 1.4503                 1.8515
 Frc consts  --      1.4714                 1.4290                 1.8872
 IR Inten    --      6.4140                 8.5400                 4.0865

                     34                     35                     36
                      A                      A                      A
 Frequencies --   1335.2962              1378.2822              1410.9320
 Red. masses --      1.8983                 1.5417                 1.3077
 Frc consts  --      1.9942                 1.7256                 1.5338
 IR Inten    --     10.3312                 7.6975                 6.1442

                     37                     38                     39
                      A                      A                      A
 Frequencies --   1440.6131              1460.8142              1481.8473
 Red. masses --      2.5613                 1.9178                 1.1233
 Frc consts  --      3.1319                 2.4113                 1.4533
 IR Inten    --     59.9476                42.3008                 7.0877

                     40                     41                     42
                      A                      A                      A
 Frequencies --   1486.9520              1496.6034              3032.0352
 Red. masses --      1.1337                 1.1427                 1.0606
 Frc consts  --      1.4768                 1.5080                 5.7448
 IR Inten    --      6.0233                 1.6010                42.2620

                     43                     44                     45
                      A                      A                      A
 Frequencies --   3037.0604              3074.7113              3099.4738
 Red. masses --      1.0361                 1.1023                 1.1001
 Frc consts  --      5.6309                 6.1398                 6.2265
 IR Inten    --     17.6487                17.2514                15.3120

                     46                     47                     48
                      A                      A                      A
 Frequencies --   3124.5247              3133.8644              3144.0492
 Red. masses --      1.1014                 1.0905                 1.0911
 Frc consts  --      6.3354                 6.3099                 6.3546
 IR Inten    --     11.9979                35.4762                 7.6145

                     49                     50                     51
                      A                      A                      A
 Frequencies --   3146.7789              3163.0685              3820.8324
 Red. masses --      1.0874                 1.0904                 1.0659
 Frc consts  --      6.3443                 6.4275                 9.1681
 IR Inten    --     13.8261                22.6792                23.0494

 - Thermochemistry -
 -------------------
 Temperature   298.150 Kelvin.  Pressure   1.00000 Atm.
 Atom     1 has atomic number  6 and mass  12.00000

 Molecular mass:   126.06808 amu.
 Principal axes and moments of inertia in atomic units:
                           1         2         3
     Eigenvalues --   636.133591250.912751635.68836
           X            0.99859   0.04597  -0.02669
           Y           -0.04577   0.99892   0.00777
           Z            0.02702  -0.00654   0.99961
 This molecule is an asymmetric top.
 Rotational symmetry number  1.
 Warning -- assumption of classical behavior for rotation
           may cause significant error
 Rotational temperatures (Kelvin)      0.13616     0.06924     0.05295
 Rotational constants (GHZ):           2.83705     1.44274     1.10335
 Zero-point vibrational energy     416384.0 (Joules/Mol)
                                   99.51818 (Kcal/Mol)
 Warning -- explicit consideration of  11 degrees of freedom as
           vibrations may cause significant error
 Vibrational temperatures:    201.95   210.96   258.77   301.68   379.44
          (Kelvin)            436.44   511.27   592.54   632.14   680.43
                              828.95  1048.22  1061.23  1193.20  1224.10
                             1249.19  1324.12  1329.71  1382.40  1412.20
                             1479.08  1486.36  1512.91  1556.18  1584.16
                             1611.08  1618.54  1686.18  1752.33  1778.73
                             1828.81  1860.61  1892.41  1921.19  1983.04
                             2030.01  2072.72  2101.78  2132.05  2139.39
                             2153.28  4362.42  4369.65  4423.82  4459.45
                             4495.49  4508.93  4523.58  4527.51  4550.94
                             5497.32

 Zero-point correction=                           0.158592 (Hartree/Particle)
 Thermal correction to Energy=                    0.167008
 Thermal correction to Enthalpy=                  0.167952
 Thermal correction to Gibbs Free Energy=         0.125933
 Sum of electronic and zero-point Energies=           -423.004252
 Sum of electronic and thermal Energies=              -422.995836
 Sum of electronic and thermal Enthalpies=            -422.994892
 Sum of electronic and thermal Free Energies=         -423.036911

                     E (Thermal)             CV                S
                      KCal/Mol        Cal/Mol-Kelvin    Cal/Mol-Kelvin
 Total                  104.799             32.609             88.437
 Electronic               0.000              0.000              0.000
 Translational            0.889              2.981             40.409
 Rotational               0.889              2.981             28.656
 Vibrational            103.022             26.647             19.373
 Vibration     1          0.615              1.913              2.799
 Vibration     2          0.617              1.906              2.716
 Vibration     3          0.629              1.867              2.330
 Vibration     4          0.642              1.826              2.046
 Vibration     5          0.670              1.739              1.637
 Vibration     6          0.695              1.667              1.398
 Vibration     7          0.731              1.564              1.142
 Vibration     8          0.776              1.445              0.920
 Vibration     9          0.799              1.384              0.829
 Vibration    10          0.830              1.310              0.729
 Vibration    11          0.933              1.083              0.493

 Optimization completed.
    -- Stationary point found.
 Normal termination of Gaussian 09 at Tue Jan 28 00:30:53 2020.
