 Gaussian 09, Revision D.01,
 Gaussian 09:  ES64L-G09RevD.01 24-Apr-2013

 -----------------------------
 # b3lyp 6-31G(2df,p) opt Freq
 -----------------------------

 -----
 titel
 -----
 Symbolic Z-matrix:
 Charge =  0 Multiplicity = 1

 SCF Done:  E(RB3LYP) =  -423.117903680     A.U. after   12 cycles
 Optimization completed.
    -- Stationary point found.
 Normal termination of Gaussian 09 at Tue Jan 28 09:42:05 2020.

 ----------------------------------------------------------------------
 #N Geom=AllCheck Guess=TCheck SCRF=Check GenChk RB3LYP/6-31G(2df,p) Fr
 eq
 ----------------------------------------------------------------------

 Structure from the checkpoint file:  "/scratch/puck/g09_ae9ee5e4-4fc4-42e8-b5c5-81a5d8373e4d/Gau-106472.chk"
 -----
 titel
 -----
 Charge =  0 Multiplicity = 1

                         Standard orientation:
 ---------------------------------------------------------------------
 Center     Atomic      Atomic             Coordinates (Angstroms)
 Number     Number       Type             X           Y           Z
 ---------------------------------------------------------------------
      1          6           0       -2.655233   -0.806520    0.127012
      2          8           0       -1.552987   -0.436741   -0.685999
      3          6           0       -0.570743    0.244692   -0.002853
      4          6           0       -0.689506    1.704090    0.346936
      5          6           0        0.417199    1.251051   -0.583919
      6          6           0        1.533931    0.625750    0.235969
      7          8           0        2.236826   -0.407331   -0.474999
      8          6           0        1.364642   -1.434234    0.049709
      9          6           0        0.522656   -0.413563    0.837255
     10          1           0       -3.137781    0.074720    0.571561
     11          1           0       -3.369269   -1.321301   -0.519265
     12          1           0       -2.353904   -1.486281    0.936445
     13          1           0       -1.506250    2.213069   -0.154671
     14          1           0       -0.466979    2.078506    1.344060
     15          1           0        0.510655    1.613761   -1.599769
     16          1           0        2.203418    1.270339    0.812722
     17          1           0        0.835886   -1.981978   -0.738701
     18          1           0        1.921762   -2.142245    0.675031
     19          1           0        0.354070   -0.593619    1.899911
 ---------------------------------------------------------------------

 SCF Done:  E(RB3LYP) =  -423.117903680     A.U. after    1 cycles

 The electronic state is 1-A.
 Alpha  occ. eigenvalues --  -19.15260 -19.12862 -10.24307 -10.23719 -10.22969
 Alpha  occ. eigenvalues --  -10.22687 -10.19358 -10.19107 -10.19080  -1.05046
 Alpha  occ. eigenvalues --   -1.03521  -0.88449  -0.73409  -0.70480  -0.68369
 Alpha  occ. eigenvalues --   -0.60449  -0.58651  -0.52665  -0.51211  -0.49507
 Alpha  occ. eigenvalues --   -0.49124  -0.45069  -0.44366  -0.43852  -0.41141
 Alpha  occ. eigenvalues --   -0.38628  -0.38034  -0.35922  -0.33735  -0.30563
 Alpha  occ. eigenvalues --   -0.29926  -0.26513  -0.25317  -0.24027
 Alpha virt. eigenvalues --    0.07276   0.09884   0.10799   0.11940   0.12353
 Alpha virt. eigenvalues --    0.12985   0.13682   0.15139   0.15720   0.16467
 Alpha virt. eigenvalues --    0.17386   0.17905   0.18976   0.19377   0.20818

 Mulliken charges:
               1
     1  C   -0.259272
     2  O   -0.288656
     3  C    0.462813
     4  C   -0.358381
     5  C   -0.173866
     6  C    0.131603
     7  O   -0.293379
     8  C   -0.085372
     9  C   -0.186025
    10  H    0.113286
    11  H    0.130059
    12  H    0.111835
    13  H    0.121070
    14  H    0.104997
    15  H    0.105665
    16  H    0.077805
    17  H    0.114160
    18  H    0.098576
    19  H    0.073081
 Sum of Mulliken charges =   0.00000

 Dipole moment (field-independent basis, Debye):
    X=             -1.8115    Y=              0.1384    Z=              1.8243  Tot=              2.5747
 Quadrupole moment (field-independent basis, Debye-Ang):
   XX=            -54.7642   YY=            -50.4209   ZZ=            -53.4435
   XY=              1.0324   XZ=              1.1416   YZ=             -1.3585

  Exact polarizability:  82.432  -0.540  79.151   0.428  -0.603  63.709
 Approx polarizability: 111.453   1.446 112.710  -2.605  -0.456 100.264

                      1                      2                      3
                      A                      A                      A
 Frequencies --     80.3821               138.5116               169.4434
 Red. masses --      2.8658                 3.6351                 1.1633
 Frc consts  --      0.0109                 0.0411                 0.0197
 IR Inten    --      1.4561                 0.8869                 0.0720

                      4                      5                      6
                      A                      A                      A
 Frequencies --    224.0001               248.2977               345.5395
 Red. masses --      2.3862                 2.9834                 2.8552
 Frc consts  --      0.0705                 0.1084                 0.2009
 IR Inten    --      4.2599                 2.3674                 8.1399

                      7                      8                      9
                      A                      A                      A
 Frequencies --    411.7289               454.2565               528.3037
 Red. masses --      3.2864                 3.0164                 4.1128
 Frc consts  --      0.3282                 0.3667                 0.6763
 IR Inten    --      4.2126                 1.3739                 3.2968

                     10                     11                     12
                      A                      A                      A
 Frequencies --    620.7706               714.1286               817.2185
 Red. masses --      3.5798                 3.0334                 1.9169
 Frc consts  --      0.8128                 0.9115                 0.7543
 IR Inten    --      6.7921                 1.2095                 7.0084

                     13                     14                     15
                      A                      A                      A
 Frequencies --    842.6714               865.8264               900.7490
 Red. masses --      1.6653                 2.4384                 3.2154
 Frc consts  --      0.6967                 1.0770                 1.5371
 IR Inten    --     10.6271                 9.0819                 4.7842

                     16                     17                     18
                      A                      A                      A
 Frequencies --    939.6960               977.5614              1002.2290
 Red. masses --      3.0199                 1.8719                 1.7350
 Frc consts  --      1.5711                 1.0540                 1.0268
 IR Inten    --      0.6834                16.0498                24.8674

                     19                     20                     21
                      A                      A                      A
 Frequencies --   1010.3387              1028.2130              1035.5678
 Red. masses --      2.1415                 2.8192                 1.9571
 Frc consts  --      1.2880                 1.7561                 1.2366
 IR Inten    --     28.8809                 1.0019                29.9464

                     22                     23                     24
                      A                      A                      A
 Frequencies --   1058.7097              1071.2829              1084.2075
 Red. masses --      3.2380                 1.9176                 1.9055
 Frc consts  --      2.1384                 1.2967                 1.3197
 IR Inten    --     48.4675                12.8868                13.6037

                     25                     26                     27
                      A                      A                      A
 Frequencies --   1107.9064              1159.3769              1180.3225
 Red. masses --      3.0720                 1.4094                 1.4264
 Frc consts  --      2.2217                 1.1162                 1.1708
 IR Inten    --     41.5838                10.4404                 4.2243

                     28                     29                     30
                      A                      A                      A
 Frequencies --   1181.2994              1186.8527              1219.0384
 Red. masses --      1.3291                 1.6580                 1.4574
 Frc consts  --      1.0927                 1.3760                 1.2760
 IR Inten    --      5.0850                 9.9536                 1.4799

                     31                     32                     33
                      A                      A                      A
 Frequencies --   1247.1178              1269.1047              1306.7421
 Red. masses --      1.6116                 1.9873                 1.4398
 Frc consts  --      1.4768                 1.8859                 1.4486
 IR Inten    --      0.7164                44.6062                12.1984

                     34                     35                     36
                      A                      A                      A
 Frequencies --   1318.7863              1358.7694              1368.5401
 Red. masses --      2.4241                 1.9595                 1.9051
 Frc consts  --      2.4840                 2.1315                 2.1022
 IR Inten    --      6.8666                77.6694                66.6426

                     37                     38                     39
                      A                      A                      A
 Frequencies --   1474.6719              1488.1894              1497.1344
 Red. masses --      1.1344                 1.0638                 1.3633
 Frc consts  --      1.4535                 1.3881                 1.8004
 IR Inten    --      3.1907                 4.0539                19.9935

                     40                     41                     42
                      A                      A                      A
 Frequencies --   1506.6844              1521.5261              2993.7599
 Red. masses --      1.0656                 1.1005                 1.0350
 Frc consts  --      1.4252                 1.5010                 5.4654
 IR Inten    --      4.1126                 2.2682                50.1166

                     43                     44                     45
                      A                      A                      A
 Frequencies --   3019.2146              3048.0019              3066.8225
 Red. masses --      1.0563                 1.1038                 1.1027
 Frc consts  --      5.6732                 6.0418                 6.1104
 IR Inten    --     72.7241                42.8279                62.0998

                     46                     47                     48
                      A                      A                      A
 Frequencies --   3067.5231              3097.6611              3103.6581
 Red. masses --      1.0938                 1.0898                 1.0584
 Frc consts  --      6.0641                 6.1610                 6.0066
 IR Inten    --     18.1172                43.4547                22.1069

                     49                     50                     51
                      A                      A                      A
 Frequencies --   3124.5185              3196.8649              3205.1080
 Red. masses --      1.0985                 1.1007                 1.1046
 Frc consts  --      6.3185                 6.6276                 6.6854
 IR Inten    --     27.2921                 4.3312                10.2261

 - Thermochemistry -
 -------------------
 Temperature   298.150 Kelvin.  Pressure   1.00000 Atm.
 Atom     1 has atomic number  6 and mass  12.00000

 Molecular mass:   126.06808 amu.
 Principal axes and moments of inertia in atomic units:
                           1         2         3
     Eigenvalues --   581.630831231.486331548.09679
           X            0.99998   0.00576  -0.00166
           Y           -0.00578   0.99994  -0.00981
           Z            0.00161   0.00982   0.99995
 This molecule is an asymmetric top.
 Rotational symmetry number  1.
 Warning -- assumption of classical behavior for rotation
           may cause significant error
 Rotational temperatures (Kelvin)      0.14892     0.07033     0.05595
 Rotational constants (GHZ):           3.10290     1.46550     1.16578
 Zero-point vibrational energy     418004.1 (Joules/Mol)
                                   99.90538 (Kcal/Mol)
 Warning -- explicit consideration of  10 degrees of freedom as
           vibrations may cause significant error
 Vibrational temperatures:    115.65   199.29   243.79   322.29   357.24
          (Kelvin)            497.15   592.39   653.57   760.11   893.15
                             1027.47  1175.79  1212.41  1245.73  1295.98
                             1352.01  1406.49  1441.98  1453.65  1479.37
                             1489.95  1523.25  1541.34  1559.93  1594.03
                             1668.08  1698.22  1699.62  1707.61  1753.92
                             1794.32  1825.96  1880.11  1897.44  1954.96
                             1969.02  2121.72  2141.17  2154.04  2167.78
                             2189.13  4307.35  4343.97  4385.39  4412.47
                             4413.48  4456.84  4465.47  4495.48  4599.57
                             4611.43

 Zero-point correction=                           0.159209 (Hartree/Particle)
 Thermal correction to Energy=                    0.167252
 Thermal correction to Enthalpy=                  0.168197
 Thermal correction to Gibbs Free Energy=         0.126455
 Sum of electronic and zero-point Energies=           -422.958694
 Sum of electronic and thermal Energies=              -422.950651
 Sum of electronic and thermal Enthalpies=            -422.949707
 Sum of electronic and thermal Free Energies=         -422.991449

                     E (Thermal)             CV                S
                      KCal/Mol        Cal/Mol-Kelvin    Cal/Mol-Kelvin
 Total                  104.953             30.687             87.854
 Electronic               0.000              0.000              0.000
 Translational            0.889              2.981             40.409
 Rotational               0.889              2.981             28.496
 Vibrational            103.175             24.725             18.949
 Vibration     1          0.600              1.962              3.882
 Vibration     2          0.614              1.915              2.824
 Vibration     3          0.625              1.880              2.442
 Vibration     4          0.649              1.805              1.927
 Vibration     5          0.662              1.766              1.743
 Vibration     6          0.724              1.584              1.186
 Vibration     7          0.776              1.445              0.921
 Vibration     8          0.813              1.351              0.783
 Vibration     9          0.883              1.187              0.591
 Vibration    10          0.981              0.988              0.415

 Normal termination of Gaussian 09 at Tue Jan 28 10:26:32 2020.
