 Gaussian 09, Revision D.01,
 Gaussian 09:  ES64L-G09RevD.01 24-Apr-2013

 -----------------------------
 # b3lyp 6-31G(2df,p) opt Freq
 -----------------------------

 -----
 titel
 -----
 Symbolic Z-matrix:
 Charge =  0 Multiplicity = 1

 SCF Done:  E(RB3LYP) =  -423.161818362     A.U. after   14 cycles
 Optimization completed.
    -- Stationary point found.
 Normal termination of Gaussian 09 at Tue Jan 28 08:18:12 2020.

 ----------------------------------------------------------------------
 #N Geom=AllCheck Guess=TCheck SCRF=Check GenChk RB3LYP/6-31G(2df,p) Fr
 eq
 ----------------------------------------------------------------------

 Structure from the checkpoint file:  "/scratch/puck/g09_87e8ba38-bdea-430d-8f59-b51a63479aeb/Gau-14785.chk"
 -----
 titel
 -----
 Charge =  0 Multiplicity = 1

                         Standard orientation:
 ---------------------------------------------------------------------
 Center     Atomic      Atomic             Coordinates (Angstroms)
 Number     Number       Type             X           Y           Z
 ---------------------------------------------------------------------
      1          6           0       -1.081614    1.893227    0.157986
      2          6           0       -1.349231    0.429222   -0.202839
      3          6           0       -2.845313    0.102112   -0.104441
      4          8           0       -3.152671   -1.239477   -0.452198
      5          6           0       -0.544377   -0.548897    0.685864
      6          6           0        0.893730   -0.474155    0.493939
      7          6           0        2.084472   -0.394036    0.299750
      8          6           0        3.508824   -0.327004    0.112385
      9          8           0        4.057166    0.230639   -0.811685
     10          1           0       -1.630200    2.569943   -0.504789
     11          1           0       -1.393859    2.106795    1.187181
     12          1           0       -0.017330    2.128885    0.074166
     13          1           0       -1.036346    0.262806   -1.243496
     14          1           0       -3.184905    0.223682    0.931301
     15          1           0       -3.416155    0.815227   -0.718128
     16          1           0       -2.984054   -1.347530   -1.393971
     17          1           0       -0.780140   -0.361354    1.743086
     18          1           0       -0.885698   -1.569943    0.476846
     19          1           0        4.093785   -0.840620    0.902995
 ---------------------------------------------------------------------

 SCF Done:  E(RB3LYP) =  -423.161818362     A.U. after    1 cycles

 The electronic state is 1-A.
 Alpha  occ. eigenvalues --  -19.14913 -19.13927 -10.28537 -10.23799 -10.21824
 Alpha  occ. eigenvalues --  -10.21032 -10.20678 -10.18880 -10.18601  -1.04493
 Alpha  occ. eigenvalues --   -1.02949  -0.83237  -0.77650  -0.72132  -0.68545
 Alpha  occ. eigenvalues --   -0.64704  -0.59475  -0.52053  -0.51029  -0.49669
 Alpha  occ. eigenvalues --   -0.47435  -0.44279  -0.43467  -0.42366  -0.41883
 Alpha  occ. eigenvalues --   -0.40043  -0.38724  -0.36803  -0.35341  -0.33324
 Alpha  occ. eigenvalues --   -0.28876  -0.28038  -0.27202  -0.26252
 Alpha virt. eigenvalues --   -0.05697   0.03219   0.06173   0.08943   0.10640
 Alpha virt. eigenvalues --    0.11368   0.13163   0.13611   0.15153   0.15720
 Alpha virt. eigenvalues --    0.16605   0.17577   0.18924   0.20449   0.22502

 Mulliken charges:
               1
     1  C   -0.403802
     2  C    0.005205
     3  C   -0.071260
     4  O   -0.417023
     5  C   -0.359392
     6  C    0.080348
     7  C    0.043320
     8  C    0.020590
     9  O   -0.233771
    10  H    0.119063
    11  H    0.117037
    12  H    0.139495
    13  H    0.083901
    14  H    0.111830
    15  H    0.093498
    16  H    0.285869
    17  H    0.134591
    18  H    0.154375
    19  H    0.096128
 Sum of Mulliken charges =   0.00000

 Dipole moment (field-independent basis, Debye):
    X=             -2.7860    Y=             -0.0241    Z=              0.7336  Tot=              2.8810
 Quadrupole moment (field-independent basis, Debye-Ang):
   XX=            -65.4299   YY=            -53.8264   ZZ=            -50.7139
   XY=             -6.4869   XZ=              9.1009   YZ=              1.7723

  Exact polarizability: 121.428   0.579  66.125  -5.042  -3.064  65.212
 Approx polarizability: 172.446   9.903  94.839 -20.411  -8.181 105.141

                      1                      2                      3
                      A                      A                      A
 Frequencies --     26.2665                56.7154                66.5513
 Red. masses --      4.5777                 2.9663                 5.3841
 Frc consts  --      0.0019                 0.0056                 0.0140
 IR Inten    --      8.5485                 1.7288                 3.6311

                      4                      5                      6
                      A                      A                      A
 Frequencies --    140.3790               179.8135               188.2323
 Red. masses --      2.5981                 3.1317                 3.2329
 Frc consts  --      0.0302                 0.0597                 0.0675
 IR Inten    --      3.0177                 5.0352                 2.1054

                      7                      8                      9
                      A                      A                      A
 Frequencies --    212.2788               234.6635               317.8521
 Red. masses --      1.7167                 1.8154                 1.2419
 Frc consts  --      0.0456                 0.0589                 0.0739
 IR Inten    --      0.4687                 5.6786               114.8908

                     10                     11                     12
                      A                      A                      A
 Frequencies --    334.2295               399.0938               407.5408
 Red. masses --      2.3591                 2.4783                 2.9923
 Frc consts  --      0.1553                 0.2326                 0.2928
 IR Inten    --      2.7360                 6.1476                11.2399

                     13                     14                     15
                      A                      A                      A
 Frequencies --    450.6931               496.1854               640.4912
 Red. masses --      4.3968                 4.2501                 6.7455
 Frc consts  --      0.5262                 0.6165                 1.6304
 IR Inten    --      1.4237                 8.4065                 0.7343

                     16                     17                     18
                      A                      A                      A
 Frequencies --    812.7513               844.2915               879.4565
 Red. masses --      3.2395                 2.8803                 1.5432
 Frc consts  --      1.2608                 1.2097                 0.7032
 IR Inten    --     24.8850                51.1465                11.8294

                     19                     20                     21
                      A                      A                      A
 Frequencies --    910.4196               951.8059              1023.1014
 Red. masses --      1.5831                 1.6057                 1.7678
 Frc consts  --      0.7731                 0.8571                 1.0903
 IR Inten    --     10.0496                 7.3081                 0.7921

                     22                     23                     24
                      A                      A                      A
 Frequencies --   1060.2498              1091.9317              1110.2750
 Red. masses --      3.1693                 1.6283                 2.6720
 Frc consts  --      2.0991                 1.1439                 1.9406
 IR Inten    --     86.1867                 0.4970                14.2353

                     25                     26                     27
                      A                      A                      A
 Frequencies --   1144.2014              1160.3794              1200.1031
 Red. masses --      1.7713                 3.5201                 1.3736
 Frc consts  --      1.3663                 2.7926                 1.1656
 IR Inten    --      6.0683                52.8479                10.9839

                     28                     29                     30
                      A                      A                      A
 Frequencies --   1250.5943              1315.2625              1336.7359
 Red. masses --      1.3090                 1.3667                 1.2780
 Frc consts  --      1.2063                 1.3930                 1.3455
 IR Inten    --      6.7414                25.4535                 2.3247

                     31                     32                     33
                      A                      A                      A
 Frequencies --   1375.3308              1397.0416              1405.5398
 Red. masses --      1.3975                 1.3151                 1.2724
 Frc consts  --      1.5574                 1.5123                 1.4810
 IR Inten    --      2.6991                11.4206                 5.9863

                     34                     35                     36
                      A                      A                      A
 Frequencies --   1419.4305              1423.6372              1460.3017
 Red. masses --      1.2263                 1.2029                 1.0918
 Frc consts  --      1.4557                 1.4364                 1.3718
 IR Inten    --     37.4633                17.1085                 3.3332

                     37                     38                     39
                      A                      A                      A
 Frequencies --   1494.6287              1500.3829              1504.0353
 Red. masses --      1.0610                 1.0469                 1.0793
 Frc consts  --      1.3965                 1.3886                 1.4385
 IR Inten    --      2.7591                 6.1498                 1.8129

                     40                     41                     42
                      A                      A                      A
 Frequencies --   1765.4733              2324.3886              2913.3865
 Red. masses --     10.5143                11.9275                 1.0813
 Frc consts  --     19.3088                37.9680                 5.4075
 IR Inten    --    247.9073               207.0491               108.4797

                     43                     44                     45
                      A                      A                      A
 Frequencies --   2991.1642              3004.9827              3017.2649
 Red. masses --      1.0670                 1.0769                 1.0675
 Frc consts  --      5.6247                 5.7295                 5.7261
 IR Inten    --     53.4421                 4.6966                13.1451

                     46                     47                     48
                      A                      A                      A
 Frequencies --   3031.2339              3060.7011              3063.1387
 Red. masses --      1.0385                 1.0953                 1.0960
 Frc consts  --      5.6220                 6.0453                 6.0589
 IR Inten    --     23.4418                13.3135                25.8407

                     49                     50                     51
                      A                      A                      A
 Frequencies --   3097.4651              3116.9044              3813.4656
 Red. masses --      1.0995                 1.1009                 1.0662
 Frc consts  --      6.2155                 6.3015                 9.1353
 IR Inten    --     33.3944                18.4167                21.8529

 - Thermochemistry -
 -------------------
 Temperature   298.150 Kelvin.  Pressure   1.00000 Atm.
 Atom     1 has atomic number  6 and mass  12.00000

 Molecular mass:   126.06808 amu.
 Principal axes and moments of inertia in atomic units:
                           1         2         3
     Eigenvalues --   488.604723062.698603300.04404
           X            0.99990  -0.01245   0.00735
           Y            0.01240   0.99991   0.00566
           Z           -0.00742  -0.00557   0.99996
 This molecule is an asymmetric top.
 Rotational symmetry number  1.
 Warning -- assumption of classical behavior for rotation
           may cause significant error
 Rotational temperatures (Kelvin)      0.17727     0.02828     0.02625
 Rotational constants (GHZ):           3.69366     0.58927     0.54688
 Zero-point vibrational energy     409257.1 (Joules/Mol)
                                   97.81479 (Kcal/Mol)
 Warning -- explicit consideration of  14 degrees of freedom as
           vibrations may cause significant error
 Vibrational temperatures:     37.79    81.60    95.75   201.97   258.71
          (Kelvin)            270.82   305.42   337.63   457.32   480.88
                              574.21   586.36   648.45   713.90   921.52
                             1169.37  1214.75  1265.34  1309.89  1369.43
                             1472.01  1525.46  1571.04  1597.44  1646.25
                             1669.53  1726.68  1799.32  1892.37  1923.26
                             1978.79  2010.03  2022.26  2042.24  2048.29
                             2101.05  2150.43  2158.71  2163.97  2540.12
                             3344.27  4191.71  4303.61  4323.49  4341.17
                             4361.26  4403.66  4407.17  4456.56  4484.52
                             5486.72

 Zero-point correction=                           0.155878 (Hartree/Particle)
 Thermal correction to Energy=                    0.166678
 Thermal correction to Enthalpy=                  0.167622
 Thermal correction to Gibbs Free Energy=         0.118079
 Sum of electronic and zero-point Energies=           -423.005941
 Sum of electronic and thermal Energies=              -422.995141
 Sum of electronic and thermal Enthalpies=            -422.994196
 Sum of electronic and thermal Free Energies=         -423.043740

                     E (Thermal)             CV                S
                      KCal/Mol        Cal/Mol-Kelvin    Cal/Mol-Kelvin
 Total                  104.592             36.754            104.273
 Electronic               0.000              0.000              0.000
 Translational            0.889              2.981             40.409
 Rotational               0.889              2.981             29.980
 Vibrational            102.814             30.793             33.884
 Vibration     1          0.593              1.985              6.093
 Vibration     2          0.596              1.975              4.568
 Vibration     3          0.598              1.970              4.253
 Vibration     4          0.615              1.913              2.799
 Vibration     5          0.629              1.867              2.330
 Vibration     6          0.633              1.856              2.245
 Vibration     7          0.643              1.822              2.024
 Vibration     8          0.654              1.788              1.843
 Vibration     9          0.704              1.639              1.321
 Vibration    10          0.716              1.607              1.240
 Vibration    11          0.765              1.472              0.966
 Vibration    12          0.772              1.454              0.935
 Vibration    13          0.809              1.359              0.794
 Vibration    14          0.852              1.258              0.668

 Optimization completed.
    -- Stationary point found.
 Normal termination of Gaussian 09 at Tue Jan 28 08:54:50 2020.
