 Gaussian 09, Revision D.01,
 Gaussian 09:  ES64L-G09RevD.01 24-Apr-2013

 -----------------------------
 # b3lyp 6-31G(2df,p) opt Freq
 -----------------------------

 -----
 titel
 -----
 Symbolic Z-matrix:
 Charge =  0 Multiplicity = 1

 SCF Done:  E(RB3LYP) =  -423.126883904     A.U. after   14 cycles
 Optimization completed.
    -- Stationary point found.
 Normal termination of Gaussian 09 at Tue Jan 28 08:09:10 2020.

 ----------------------------------------------------------------------
 #N Geom=AllCheck Guess=TCheck SCRF=Check GenChk RB3LYP/6-31G(2df,p) Fr
 eq
 ----------------------------------------------------------------------

 Structure from the checkpoint file:  "/scratch/puck/g09_56fdb755-137f-4709-871a-ff871371b589/Gau-11768.chk"
 -----
 titel
 -----
 Charge =  0 Multiplicity = 1

                         Standard orientation:
 ---------------------------------------------------------------------
 Center     Atomic      Atomic             Coordinates (Angstroms)
 Number     Number       Type             X           Y           Z
 ---------------------------------------------------------------------
      1          8           0        3.706690    0.829280    0.010572
      2          6           0        3.156247   -0.426469    0.387192
      3          6           0        1.777673   -0.612647   -0.062002
      4          6           0        0.630794   -0.698522   -0.419863
      5          6           0       -0.760305   -0.804598   -0.848558
      6          6           0       -1.694819    0.157491   -0.120754
      7          8           0       -1.364453    1.511046   -0.267513
      8          6           0       -2.237316   -0.200043    1.224724
      9          6           0       -3.154680   -0.199370    0.013449
     10          1           0        3.067465    1.504971    0.260266
     11          1           0        3.808757   -1.184237   -0.061304
     12          1           0        3.206517   -0.572507    1.478463
     13          1           0       -0.829394   -0.619887   -1.930923
     14          1           0       -1.116550   -1.831217   -0.698350
     15          1           0       -1.512119    1.756198   -1.188167
     16          1           0       -1.953020   -1.150705    1.661912
     17          1           0       -2.347003    0.614073    1.931182
     18          1           0       -3.503676   -1.150440   -0.375154
     19          1           0       -3.864443    0.616086   -0.067530
 ---------------------------------------------------------------------

 SCF Done:  E(RB3LYP) =  -423.126883904     A.U. after    1 cycles

 The electronic state is 1-A.
 Alpha  occ. eigenvalues --  -19.14522 -19.13432 -10.24709 -10.24600 -10.21249
 Alpha  occ. eigenvalues --  -10.18772 -10.18671 -10.17596 -10.16910  -1.03271
 Alpha  occ. eigenvalues --   -1.01597  -0.85305  -0.78077  -0.73475  -0.66843
 Alpha  occ. eigenvalues --   -0.61191  -0.58260  -0.53152  -0.51272  -0.48220
 Alpha  occ. eigenvalues --   -0.47418  -0.45572  -0.44744  -0.43757  -0.41775
 Alpha  occ. eigenvalues --   -0.38673  -0.36615  -0.35011  -0.32929  -0.28992
 Alpha  occ. eigenvalues --   -0.28006  -0.26522  -0.25588  -0.24550
 Alpha virt. eigenvalues --    0.03466   0.05208   0.07950   0.10305   0.11185
 Alpha virt. eigenvalues --    0.11499   0.13484   0.13621   0.14686   0.16029
 Alpha virt. eigenvalues --    0.17787   0.18492   0.21209   0.22193   0.22415

 Mulliken charges:
               1
     1  O   -0.404979
     2  C   -0.186175
     3  C    0.057348
     4  C    0.075057
     5  C   -0.439293
     6  C    0.432257
     7  O   -0.460606
     8  C   -0.282877
     9  C   -0.333516
    10  H    0.289171
    11  H    0.135958
    12  H    0.115130
    13  H    0.119922
    14  H    0.130425
    15  H    0.280960
    16  H    0.117721
    17  H    0.125874
    18  H    0.110717
    19  H    0.116906
 Sum of Mulliken charges =   0.00000

 Dipole moment (field-independent basis, Debye):
    X=             -2.2580    Y=             -0.6544    Z=             -0.4645  Tot=              2.3964
 Quadrupole moment (field-independent basis, Debye-Ang):
   XX=            -57.7754   YY=            -50.9318   ZZ=            -50.2571
   XY=             -1.5918   XZ=              5.2569   YZ=             -1.3506

  Exact polarizability: 108.684   2.008  67.008   6.372  -0.554  66.540
 Approx polarizability: 146.454   6.038  98.287  14.587  -0.912  99.321

                      1                      2                      3
                      A                      A                      A
 Frequencies --     21.8034                50.7052                75.1307
 Red. masses --      3.5296                 4.3158                 3.0906
 Frc consts  --      0.0010                 0.0065                 0.0103
 IR Inten    --      1.8287                 0.2593                 2.7323

                      4                      5                      6
                      A                      A                      A
 Frequencies --    144.2702               223.2990               287.0124
 Red. masses --      4.3864                 2.6309                 1.4409
 Frc consts  --      0.0538                 0.0773                 0.0699
 IR Inten    --      0.7436                 7.3686                71.2113

                      7                      8                      9
                      A                      A                      A
 Frequencies --    309.0331               320.2121               342.0522
 Red. masses --      1.7038                 1.8954                 2.1432
 Frc consts  --      0.0959                 0.1145                 0.1477
 IR Inten    --     55.0023                32.4175                26.1627

                     10                     11                     12
                      A                      A                      A
 Frequencies --    353.0784               393.6297               437.8112
 Red. masses --      2.0971                 3.5527                 3.0441
 Frc consts  --      0.1540                 0.3243                 0.3438
 IR Inten    --     44.3062                16.3103                 3.3383

                     13                     14                     15
                      A                      A                      A
 Frequencies --    488.3726               584.0199               747.0012
 Red. masses --      4.1616                 6.3651                 3.1611
 Frc consts  --      0.5848                 1.2791                 1.0393
 IR Inten    --     13.2877                 6.8787                 7.4497

                     16                     17                     18
                      A                      A                      A
 Frequencies --    771.1673               785.1573               896.7817
 Red. masses --      1.7392                 1.6778                 1.9189
 Frc consts  --      0.6094                 0.6094                 0.9092
 IR Inten    --      3.2726                 2.9747                 2.9006

                     19                     20                     21
                      A                      A                      A
 Frequencies --    910.6348               935.9691               976.9409
 Red. masses --      1.5954                 2.0316                 2.3189
 Frc consts  --      0.7795                 1.0486                 1.3039
 IR Inten    --      5.2640                30.1604                 7.5051

                     22                     23                     24
                      A                      A                      A
 Frequencies --    990.9698               998.2940              1043.9191
 Red. masses --      1.6235                 2.3895                 5.7903
 Frc consts  --      0.9394                 1.4031                 3.7178
 IR Inten    --     26.0750                10.8205                76.2606

                     25                     26                     27
                      A                      A                      A
 Frequencies --   1049.8116              1081.2023              1154.7868
 Red. masses --      1.4622                 1.4219                 3.6388
 Frc consts  --      0.9495                 0.9794                 2.8590
 IR Inten    --     18.6738                 1.6691                11.3480

                     28                     29                     30
                      A                      A                      A
 Frequencies --   1186.5613              1196.2278              1216.6004
 Red. masses --      1.2607                 1.2997                 1.0881
 Frc consts  --      1.0458                 1.0958                 0.9489
 IR Inten    --      0.1224                 9.4653                17.8205

                     31                     32                     33
                      A                      A                      A
 Frequencies --   1256.2073              1299.2862              1346.6525
 Red. masses --      1.4672                 2.5127                 1.7095
 Frc consts  --      1.3642                 2.4992                 1.8266
 IR Inten    --     73.0647                60.5572                 8.1100

                     34                     35                     36
                      A                      A                      A
 Frequencies --   1356.3490              1402.2769              1421.5755
 Red. masses --      1.2125                 1.5558                 1.2424
 Frc consts  --      1.3142                 1.8025                 1.4793
 IR Inten    --      2.6515                 9.8276               105.1032

                     37                     38                     39
                      A                      A                      A
 Frequencies --   1453.6958              1461.6582              1494.4251
 Red. masses --      1.0886                 1.0943                 1.0801
 Frc consts  --      1.3554                 1.3774                 1.4213
 IR Inten    --      3.0856                 3.6135                 0.7244

                     40                     41                     42
                      A                      A                      A
 Frequencies --   1505.9912              2364.7552              2971.7664
 Red. masses --      1.5801                11.8635                 1.0718
 Frc consts  --      2.1114                39.0873                 5.5767
 IR Inten    --      9.4094                 6.2275                52.4183

                     43                     44                     45
                      A                      A                      A
 Frequencies --   2998.8242              3049.3766              3057.7946
 Red. masses --      1.0665                 1.0925                 1.0879
 Frc consts  --      5.6507                 5.9857                 5.9929
 IR Inten    --     29.1223                12.9403                22.4968

                     46                     47                     48
                      A                      A                      A
 Frequencies --   3131.3366              3142.7917              3218.7458
 Red. masses --      1.0532                 1.0561                 1.1181
 Frc consts  --      6.0842                 6.1458                 6.8249
 IR Inten    --     13.5904                 6.1756                 2.3109

                     49                     50                     51
                      A                      A                      A
 Frequencies --   3235.7813              3787.6293              3814.9480
 Red. masses --      1.1161                 1.0659                 1.0663
 Frc consts  --      6.8851                 9.0096                 9.1430
 IR Inten    --      9.2424                15.1421                19.6017

 - Thermochemistry -
 -------------------
 Temperature   298.150 Kelvin.  Pressure   1.00000 Atm.
 Atom     1 has atomic number  8 and mass  15.99491

 Molecular mass:   126.06808 amu.
 Principal axes and moments of inertia in atomic units:
                           1         2         3
     Eigenvalues --   463.959462694.605412826.22035
           X            0.99999   0.00118   0.00485
           Y           -0.00114   0.99996  -0.00926
           Z           -0.00486   0.00925   0.99995
 This molecule is an asymmetric top.
 Rotational symmetry number  1.
 Warning -- assumption of classical behavior for rotation
           may cause significant error
 Rotational temperatures (Kelvin)      0.18668     0.03214     0.03065
 Rotational constants (GHZ):           3.88987     0.66976     0.63857
 Zero-point vibrational energy     411182.4 (Joules/Mol)
                                   98.27494 (Kcal/Mol)
 Warning -- explicit consideration of  14 degrees of freedom as
           vibrations may cause significant error
 Vibrational temperatures:     31.37    72.95   108.10   207.57   321.28
          (Kelvin)            412.95   444.63   460.71   492.14   508.00
                              566.34   629.91   702.66   840.27  1074.77
                             1109.54  1129.66  1290.27  1310.20  1346.65
                             1405.60  1425.78  1436.32  1501.96  1510.44
                             1555.61  1661.48  1707.19  1721.10  1750.41
                             1807.40  1869.38  1937.53  1951.48  2017.56
                             2045.33  2091.54  2103.00  2150.14  2166.78
                             3402.35  4275.70  4314.63  4387.37  4399.48
                             4505.29  4521.77  4631.05  4655.56  5449.55
                             5488.85

 Zero-point correction=                           0.156611 (Hartree/Particle)
 Thermal correction to Energy=                    0.166867
 Thermal correction to Enthalpy=                  0.167811
 Thermal correction to Gibbs Free Energy=         0.119588
 Sum of electronic and zero-point Energies=           -422.970273
 Sum of electronic and thermal Energies=              -422.960017
 Sum of electronic and thermal Enthalpies=            -422.959073
 Sum of electronic and thermal Free Energies=         -423.007296

                     E (Thermal)             CV                S
                      KCal/Mol        Cal/Mol-Kelvin    Cal/Mol-Kelvin
 Total                  104.710             36.602            101.494
 Electronic               0.000              0.000              0.000
 Translational            0.889              2.981             40.409
 Rotational               0.889              2.981             29.648
 Vibrational            102.933             30.640             31.438
 Vibration     1          0.593              1.985              6.463
 Vibration     2          0.595              1.977              4.790
 Vibration     3          0.599              1.966              4.014
 Vibration     4          0.616              1.909              2.746
 Vibration     5          0.649              1.806              1.932
 Vibration     6          0.684              1.698              1.492
 Vibration     7          0.698              1.657              1.368
 Vibration     8          0.706              1.635              1.309
 Vibration     9          0.721              1.591              1.203
 Vibration    10          0.729              1.569              1.152
 Vibration    11          0.761              1.484              0.986
 Vibration    12          0.798              1.388              0.834
 Vibration    13          0.844              1.276              0.688
 Vibration    14          0.941              1.066              0.478

 Optimization completed.
    -- Stationary point found.
 Normal termination of Gaussian 09 at Tue Jan 28 08:45:31 2020.
