 Gaussian 09, Revision D.01,
 Gaussian 09:  ES64L-G09RevD.01 24-Apr-2013

 -----------------------------
 # b3lyp 6-31G(2df,p) opt Freq
 -----------------------------

 -----
 titel
 -----
 Symbolic Z-matrix:
 Charge =  0 Multiplicity = 1

 SCF Done:  E(RB3LYP) =  -423.101797613     A.U. after   14 cycles
 SCF Done:  E(RB3LYP) =  -423.101797687     A.U. after    7 cycles
 SCF Done:  E(RB3LYP) =  -423.101797551     A.U. after    7 cycles
 SCF Done:  E(RB3LYP) =  -423.101797727     A.U. after    7 cycles
 Optimization completed.
    -- Stationary point found.
 Normal termination of Gaussian 09 at Tue Jan 28 08:31:13 2020.

 ----------------------------------------------------------------------
 #N Geom=AllCheck Guess=TCheck SCRF=Check GenChk RB3LYP/6-31G(2df,p) Fr
 eq
 ----------------------------------------------------------------------

 Structure from the checkpoint file:  "/scratch/puck/g09_1b07907b-2cc8-4f66-9dcb-2e82a11704be/Gau-8442.chk"
 -----
 titel
 -----
 Charge =  0 Multiplicity = 1

                         Standard orientation:
 ---------------------------------------------------------------------
 Center     Atomic      Atomic             Coordinates (Angstroms)
 Number     Number       Type             X           Y           Z
 ---------------------------------------------------------------------
      1          6           0        0.276555    2.284180    0.135169
      2          8           0        0.850435    1.157675   -0.500792
      3          6           0        0.951947   -0.008794    0.301783
      4          6           0       -0.179269   -1.017270   -0.010284
      5          6           0       -1.535015   -0.594927    0.498155
      6          6           0       -2.779409   -0.963139   -0.188828
      7          8           0       -2.265045    0.366663   -0.268791
      8          6           0        2.261842   -0.623824    0.064986
      9          6           0        3.321871   -1.154787   -0.128879
     10          1           0        0.808215    2.536347    1.065219
     11          1           0        0.382410    3.119135   -0.561816
     12          1           0       -0.788983    2.143521    0.352322
     13          1           0        0.892471    0.267458    1.367741
     14          1           0       -0.213018   -1.163110   -1.094061
     15          1           0        0.080960   -1.978189    0.449869
     16          1           0       -1.592700   -0.425103    1.576181
     17          1           0       -2.729864   -1.536899   -1.113376
     18          1           0       -3.700530   -1.077800    0.380755
     19          1           0        4.266798   -1.608690   -0.298794
 ---------------------------------------------------------------------

 SCF Done:  E(RB3LYP) =  -423.101797727     A.U. after    1 cycles

 The electronic state is 1-A.
 Alpha  occ. eigenvalues --  -19.15415 -19.13897 -10.26010 -10.24419 -10.23776
 Alpha  occ. eigenvalues --  -10.21837 -10.19436 -10.18067 -10.17542  -1.07450
 Alpha  occ. eigenvalues --   -1.03172  -0.80208  -0.74162  -0.69976  -0.66793
 Alpha  occ. eigenvalues --   -0.63748  -0.59618  -0.53462  -0.51108  -0.49704
 Alpha  occ. eigenvalues --   -0.49144  -0.46215  -0.45580  -0.41485  -0.41434
 Alpha  occ. eigenvalues --   -0.39166  -0.37292  -0.36581  -0.31883  -0.31239
 Alpha  occ. eigenvalues --   -0.27843  -0.27267  -0.26706  -0.24942
 Alpha virt. eigenvalues --    0.03891   0.05286   0.09180   0.10086   0.10739
 Alpha virt. eigenvalues --    0.12069   0.12881   0.13216   0.14046   0.15490
 Alpha virt. eigenvalues --    0.16428   0.16539   0.17951   0.18659   0.20679

 Mulliken charges:
               1
     1  C   -0.247258
     2  O   -0.238631
     3  C   -0.091365
     4  C   -0.215487
     5  C    0.076557
     6  C   -0.183623
     7  O   -0.224083
     8  C    0.324657
     9  C   -0.422123
    10  H    0.102677
    11  H    0.129787
    12  H    0.135398
    13  H    0.093164
    14  H    0.125111
    15  H    0.114259
    16  H    0.090836
    17  H    0.117699
    18  H    0.116116
    19  H    0.196308
 Sum of Mulliken charges =   0.00000

 Dipole moment (field-independent basis, Debye):
    X=             -0.6354    Y=             -1.4672    Z=              1.5583  Tot=              2.2327
 Quadrupole moment (field-independent basis, Debye-Ang):
   XX=            -50.4456   YY=            -50.0808   ZZ=            -53.1185
   XY=              1.3724   XZ=             -0.6804   YZ=              2.0998

  Exact polarizability: 101.570  -7.651  75.013  -0.933   3.053  59.974
 Approx polarizability: 134.478 -16.827 107.012  -2.656   2.905  93.923

                      1                      2                      3
                      A                      A                      A
 Frequencies --     46.2328                57.0322               109.6836
 Red. masses --      3.0687                 3.2801                 3.1187
 Frc consts  --      0.0039                 0.0063                 0.0221
 IR Inten    --      1.0325                 3.4579                 4.3522

                      4                      5                      6
                      A                      A                      A
 Frequencies --    128.9780               161.7342               190.3510
 Red. masses --      2.9763                 2.2533                 1.8054
 Frc consts  --      0.0292                 0.0347                 0.0385
 IR Inten    --      1.1964                 1.3265                 1.3628

                      7                      8                      9
                      A                      A                      A
 Frequencies --    243.1992               329.2731               368.8962
 Red. masses --      3.3016                 4.5866                 2.8582
 Frc consts  --      0.1151                 0.2930                 0.2292
 IR Inten    --      2.5271                 8.0824                 1.0645

                     10                     11                     12
                      A                      A                      A
 Frequencies --    382.0965               470.4024               535.1467
 Red. masses --      3.4717                 2.3998                 6.6497
 Frc consts  --      0.2986                 0.3129                 1.1220
 IR Inten    --      2.2694                 2.0573                 6.3546

                     13                     14                     15
                      A                      A                      A
 Frequencies --    554.6577               629.0240               664.5712
 Red. masses --      3.5666                 1.2174                 1.2550
 Frc consts  --      0.6465                 0.2838                 0.3266
 IR Inten    --      4.9141                43.2047                34.9060

                     16                     17                     18
                      A                      A                      A
 Frequencies --    789.4699               848.6078               874.1345
 Red. masses --      3.8049                 2.3605                 2.4087
 Frc consts  --      1.3972                 1.0015                 1.0844
 IR Inten    --     12.3033                25.2856                 5.4855

                     19                     20                     21
                      A                      A                      A
 Frequencies --    940.7226               973.0360              1020.9205
 Red. masses --      2.4660                 3.8425                 2.7912
 Frc consts  --      1.2858                 2.1435                 1.7140
 IR Inten    --      9.8475                 5.6978                21.7024

                     22                     23                     24
                      A                      A                      A
 Frequencies --   1041.7964              1097.5367              1121.6131
 Red. masses --      2.5981                 1.4504                 1.9745
 Frc consts  --      1.6614                 1.0294                 1.4635
 IR Inten    --     22.5188                 2.1465                11.0390

                     25                     26                     27
                      A                      A                      A
 Frequencies --   1143.2574              1159.7855              1172.4255
 Red. masses --      5.2548                 1.4435                 1.3329
 Frc consts  --      4.0466                 1.1440                 1.0795
 IR Inten    --    162.6045                14.9245                 2.5297

                     28                     29                     30
                      A                      A                      A
 Frequencies --   1183.2705              1214.0272              1249.2020
 Red. masses --      1.2648                 1.4090                 1.3474
 Frc consts  --      1.0434                 1.2235                 1.2388
 IR Inten    --      1.3599                15.2701                19.3384

                     31                     32                     33
                      A                      A                      A
 Frequencies --   1285.6520              1299.0521              1359.1713
 Red. masses --      1.3227                 1.5000                 1.3134
 Frc consts  --      1.2882                 1.4914                 1.4295
 IR Inten    --      2.3804                 7.2514                 5.3773

                     34                     35                     36
                      A                      A                      A
 Frequencies --   1374.0493              1444.0157              1456.6049
 Red. masses --      1.3336                 1.3765                 1.2897
 Frc consts  --      1.4835                 1.6911                 1.6122
 IR Inten    --     37.5438                 9.8668                 8.2455

                     37                     38                     39
                      A                      A                      A
 Frequencies --   1479.8169              1496.2859              1511.0724
 Red. masses --      1.0990                 1.0986                 1.0485
 Frc consts  --      1.4180                 1.4491                 1.4106
 IR Inten    --      1.7944                 0.5787                 3.7624

                     40                     41                     42
                      A                      A                      A
 Frequencies --   1530.3716              2239.9649              2962.9220
 Red. masses --      1.3655                 5.8975                 1.0802
 Frc consts  --      1.8843                17.4342                 5.5870
 IR Inten    --      4.4053                 0.8389                15.7394

                     43                     44                     45
                      A                      A                      A
 Frequencies --   2988.6284              3041.2075              3064.9649
 Red. masses --      1.0437                 1.0621                 1.0934
 Frc consts  --      5.4923                 5.7879                 6.0517
 IR Inten    --     68.7722                12.8183                32.6372

                     46                     47                     48
                      A                      A                      A
 Frequencies --   3076.5929              3084.2604              3103.6138
 Red. masses --      1.0812                 1.0563                 1.0999
 Frc consts  --      6.0295                 5.9204                 6.2424
 IR Inten    --     18.7605                25.7673                19.3875

                     49                     50                     51
                      A                      A                      A
 Frequencies --   3117.5110              3170.6445              3503.8303
 Red. masses --      1.0998                 1.1196                 1.1631
 Frc consts  --      6.2975                 6.6314                 8.4130
 IR Inten    --     24.2029                26.2765                64.5490

 - Thermochemistry -
 -------------------
 Temperature   298.150 Kelvin.  Pressure   1.00000 Atm.
 Atom     1 has atomic number  6 and mass  12.00000

 Molecular mass:   126.06808 amu.
 Principal axes and moments of inertia in atomic units:
                           1         2         3
     Eigenvalues --   665.036371728.331002258.46517
           X            0.99992   0.01292  -0.00055
           Y           -0.01290   0.99963   0.02382
           Z            0.00086  -0.02381   0.99972
 This molecule is an asymmetric top.
 Rotational symmetry number  1.
 Warning -- assumption of classical behavior for rotation
           may cause significant error
 Rotational temperatures (Kelvin)      0.13024     0.05011     0.03835
 Rotational constants (GHZ):           2.71375     1.04421     0.79910
 Zero-point vibrational energy     408472.8 (Joules/Mol)
                                   97.62734 (Kcal/Mol)
 Warning -- explicit consideration of  13 degrees of freedom as
           vibrations may cause significant error
 Vibrational temperatures:     66.52    82.06   157.81   185.57   232.70
          (Kelvin)            273.87   349.91   473.75   530.76   549.75
                              676.80   769.96   798.03   905.02   956.17
                             1135.87  1220.96  1257.68  1353.49  1399.98
                             1468.88  1498.91  1579.11  1613.75  1644.89
                             1668.67  1686.86  1702.46  1746.71  1797.32
                             1849.76  1869.04  1955.54  1976.95  2077.61
                             2095.73  2129.12  2152.82  2174.09  2201.86
                             3222.81  4262.98  4299.96  4375.61  4409.80
                             4426.53  4437.56  4465.40  4485.40  4561.84
                             5041.22

 Zero-point correction=                           0.155579 (Hartree/Particle)
 Thermal correction to Energy=                    0.165711
 Thermal correction to Enthalpy=                  0.166655
 Thermal correction to Gibbs Free Energy=         0.119372
 Sum of electronic and zero-point Energies=           -422.946219
 Sum of electronic and thermal Energies=              -422.936087
 Sum of electronic and thermal Enthalpies=            -422.935143
 Sum of electronic and thermal Free Energies=         -422.982426

                     E (Thermal)             CV                S
                      KCal/Mol        Cal/Mol-Kelvin    Cal/Mol-Kelvin
 Total                  103.985             35.620             99.516
 Electronic               0.000              0.000              0.000
 Translational            0.889              2.981             40.409
 Rotational               0.889              2.981             29.341
 Vibrational            102.208             29.659             29.766
 Vibration     1          0.595              1.979              4.972
 Vibration     2          0.596              1.975              4.557
 Vibration     3          0.606              1.941              3.275
 Vibration     4          0.611              1.924              2.961
 Vibration     5          0.622              1.889              2.529
 Vibration     6          0.634              1.853              2.224
 Vibration     7          0.659              1.774              1.779
 Vibration     8          0.712              1.617              1.264
 Vibration     9          0.741              1.536              1.084
 Vibration    10          0.752              1.508              1.031
 Vibration    11          0.827              1.316              0.736
 Vibration    12          0.890              1.172              0.576
 Vibration    13          0.910              1.130              0.535

 Optimization completed.
    -- Stationary point found.
 Normal termination of Gaussian 09 at Tue Jan 28 09:11:26 2020.
