 Gaussian 09, Revision D.01,
 Gaussian 09:  ES64L-G09RevD.01 24-Apr-2013

 -----------------------------
 # b3lyp 6-31G(2df,p) opt Freq
 -----------------------------

 -----
 titel
 -----
 Symbolic Z-matrix:
 Charge =  0 Multiplicity = 1

 SCF Done:  E(RB3LYP) =  -423.151764609     A.U. after   14 cycles
 Optimization completed.
    -- Stationary point found.
 Normal termination of Gaussian 09 at Tue Jan 28 08:09:20 2020.

 ----------------------------------------------------------------------
 #N Geom=AllCheck Guess=TCheck SCRF=Check GenChk RB3LYP/6-31G(2df,p) Fr
 eq
 ----------------------------------------------------------------------

 Structure from the checkpoint file:  "/scratch/puck/g09_f79641eb-8f79-458b-8240-db3f50e10ba4/Gau-11693.chk"
 -----
 titel
 -----
 Charge =  0 Multiplicity = 1

                         Standard orientation:
 ---------------------------------------------------------------------
 Center     Atomic      Atomic             Coordinates (Angstroms)
 Number     Number       Type             X           Y           Z
 ---------------------------------------------------------------------
      1          8           0        3.869650    0.748547   -0.378661
      2          6           0        3.264645   -0.501274   -0.073098
      3          6           0        1.822856   -0.412148    0.156839
      4          6           0        0.643043   -0.298066    0.377019
      5          6           0       -0.787176   -0.181401    0.607127
      6          6           0       -1.399124    1.201473    0.234915
      7          6           0       -2.800593    0.837627   -0.322163
      8          8           0       -2.948734   -0.573221   -0.186655
      9          6           0       -1.654903   -1.134469   -0.248057
     10          1           0        3.608404    1.368701    0.309981
     11          1           0        3.470708   -1.147522   -0.933700
     12          1           0        3.744116   -0.974689    0.798903
     13          1           0       -1.008798   -0.392409    1.659835
     14          1           0       -1.450229    1.860926    1.103427
     15          1           0       -0.787349    1.694618   -0.523368
     16          1           0       -3.621386    1.308221    0.225864
     17          1           0       -2.883483    1.129544   -1.379344
     18          1           0       -1.701797   -2.152172    0.145621
     19          1           0       -1.270007   -1.168277   -1.280179
 ---------------------------------------------------------------------

 SCF Done:  E(RB3LYP) =  -423.151764609     A.U. after    1 cycles

 The electronic state is 1-A.
 Alpha  occ. eigenvalues --  -19.14076 -19.14046 -10.25151 -10.23168 -10.23062
 Alpha  occ. eigenvalues --  -10.21519 -10.19394 -10.18087 -10.17538  -1.04028
 Alpha  occ. eigenvalues --   -1.02197  -0.81157  -0.75747  -0.74109  -0.68551
 Alpha  occ. eigenvalues --   -0.61367  -0.60097  -0.53277  -0.50924  -0.50382
 Alpha  occ. eigenvalues --   -0.46986  -0.45759  -0.44348  -0.42731  -0.41518
 Alpha  occ. eigenvalues --   -0.38208  -0.36489  -0.35576  -0.34360  -0.32879
 Alpha  occ. eigenvalues --   -0.28595  -0.26460  -0.25629  -0.24890
 Alpha virt. eigenvalues --    0.02861   0.05076   0.08559   0.09980   0.10647
 Alpha virt. eigenvalues --    0.12991   0.13392   0.14464   0.14634   0.15743
 Alpha virt. eigenvalues --    0.17160   0.18185   0.19362   0.21004   0.22968

 Mulliken charges:
               1
     1  O   -0.401939
     2  C   -0.192964
     3  C    0.071799
     4  C    0.031257
     5  C   -0.162585
     6  C   -0.249415
     7  C   -0.077576
     8  O   -0.240881
     9  C   -0.088021
    10  H    0.286375
    11  H    0.139371
    12  H    0.116650
    13  H    0.107584
    14  H    0.115412
    15  H    0.120565
    16  H    0.111522
    17  H    0.098065
    18  H    0.118000
    19  H    0.096780
 Sum of Mulliken charges =   0.00000

 Dipole moment (field-independent basis, Debye):
    X=             -0.1221    Y=              0.6735    Z=              1.1978  Tot=              1.3796
 Quadrupole moment (field-independent basis, Debye-Ang):
   XX=            -61.3027   YY=            -49.9156   ZZ=            -52.3452
   XY=             -5.0346   XZ=              3.4059   YZ=              1.7503

  Exact polarizability: 111.867  -5.895  70.356  -2.808   0.951  61.206
 Approx polarizability: 152.122  -5.838  99.439 -10.689   0.907  92.702

                      1                      2                      3
                      A                      A                      A
 Frequencies --     20.0019                39.1871                77.1369
 Red. masses --      2.9861                 2.1085                 4.1547
 Frc consts  --      0.0007                 0.0019                 0.0146
 IR Inten    --      1.8424                 0.4974                 0.2129

                      4                      5                      6
                      A                      A                      A
 Frequencies --    113.2592               188.3798               235.0878
 Red. masses --      3.2722                 3.6100                 2.5821
 Frc consts  --      0.0247                 0.0755                 0.0841
 IR Inten    --      1.2642                 6.2865                 8.2229

                      7                      8                      9
                      A                      A                      A
 Frequencies --    298.8060               339.9764               405.0632
 Red. masses --      1.8832                 1.7887                 5.6892
 Frc consts  --      0.0991                 0.1218                 0.5500
 IR Inten    --     70.3849                61.6733                 2.6321

                     10                     11                     12
                      A                      A                      A
 Frequencies --    502.1508               537.4981               597.1122
 Red. masses --      6.1382                 2.6192                 7.5872
 Frc consts  --      0.9119                 0.4458                 1.5938
 IR Inten    --      8.3504                 2.7334                 9.5717

                     13                     14                     15
                      A                      A                      A
 Frequencies --    691.9282               803.5605               839.0113
 Red. masses --      5.6933                 1.7515                 1.9671
 Frc consts  --      1.6060                 0.6663                 0.8159
 IR Inten    --      6.2446                 5.0504                 1.4690

                     16                     17                     18
                      A                      A                      A
 Frequencies --    902.5548               938.3926               966.2237
 Red. masses --      2.9449                 3.7313                 1.8281
 Frc consts  --      1.4134                 1.9359                 1.0056
 IR Inten    --     13.3275                13.8684                13.0084

                     19                     20                     21
                      A                      A                      A
 Frequencies --    986.9907               994.3728              1047.0206
 Red. masses --      1.6531                 1.8308                 5.9601
 Frc consts  --      0.9488                 1.0666                 3.8496
 IR Inten    --     49.5981                 1.2806                80.6524

                     22                     23                     24
                      A                      A                      A
 Frequencies --   1058.4812              1099.9820              1132.6977
 Red. masses --      4.1759                 4.0012                 2.5583
 Frc consts  --      2.7565                 2.8524                 1.9338
 IR Inten    --      4.5302                61.4716                34.7768

                     25                     26                     27
                      A                      A                      A
 Frequencies --   1174.3853              1215.2850              1226.1712
 Red. masses --      2.7425                 1.0939                 1.1274
 Frc consts  --      2.2285                 0.9519                 0.9987
 IR Inten    --      6.9441                15.6546                 5.0080

                     28                     29                     30
                      A                      A                      A
 Frequencies --   1229.3641              1273.6256              1287.9795
 Red. masses --      1.3622                 1.1665                 1.3399
 Frc consts  --      1.2130                 1.1149                 1.3096
 IR Inten    --      4.0444                 2.8144                 1.4919

                     31                     32                     33
                      A                      A                      A
 Frequencies --   1303.4956              1331.4719              1358.9124
 Red. masses --      1.2117                 1.2795                 1.2197
 Frc consts  --      1.2131                 1.3365                 1.3270
 IR Inten    --      0.8846                16.7158                 4.9887

                     34                     35                     36
                      A                      A                      A
 Frequencies --   1369.6286              1401.6572              1419.3044
 Red. masses --      1.3901                 1.3888                 1.2418
 Frc consts  --      1.5364                 1.6076                 1.4738
 IR Inten    --      9.8184                10.7145                95.3088

                     37                     38                     39
                      A                      A                      A
 Frequencies --   1493.2572              1499.1795              1510.2253
 Red. masses --      1.0790                 1.0849                 1.0831
 Frc consts  --      1.4176                 1.4366                 1.4555
 IR Inten    --      0.5556                 1.6555                 0.7735

                     40                     41                     42
                      A                      A                      A
 Frequencies --   1528.8575              2357.9920              2974.0412
 Red. masses --      1.0995                11.8793                 1.0715
 Frc consts  --      1.5142                38.9158                 5.5841
 IR Inten    --      1.5653                15.0400                55.3976

                     43                     44                     45
                      A                      A                      A
 Frequencies --   2977.0662              2995.4811              3035.2372
 Red. masses --      1.0700                 1.0709                 1.0826
 Frc consts  --      5.5875                 5.6616                 5.8760
 IR Inten    --     42.0170                71.1805                17.8243

                     46                     47                     48
                      A                      A                      A
 Frequencies --   3060.7408              3076.1042              3083.7429
 Red. masses --      1.0882                 1.0621                 1.0918
 Frc consts  --      6.0064                 5.9213                 6.1171
 IR Inten    --     18.7170                17.4359                28.9298

                     49                     50                     51
                      A                      A                      A
 Frequencies --   3107.5490              3125.5457              3817.2698
 Red. masses --      1.0944                 1.1069                 1.0662
 Frc consts  --      6.2268                 6.3711                 9.1541
 IR Inten    --     24.3725                28.4253                19.0449

 - Thermochemistry -
 -------------------
 Temperature   298.150 Kelvin.  Pressure   1.00000 Atm.
 Atom     1 has atomic number  8 and mass  15.99491

 Molecular mass:   126.06808 amu.
 Principal axes and moments of inertia in atomic units:
                           1         2         3
     Eigenvalues --   368.051012857.300643071.82243
           X            0.99991  -0.01313   0.00310
           Y            0.01307   0.99974   0.01853
           Z           -0.00334  -0.01849   0.99982
 This molecule is an asymmetric top.
 Rotational symmetry number  1.
 Rotational temperatures (Kelvin)      0.23533     0.03031     0.02820
 Rotational constants (GHZ):           4.90351     0.63162     0.58751
 Zero-point vibrational energy     418982.7 (Joules/Mol)
                                  100.13928 (Kcal/Mol)
 Warning -- explicit consideration of  12 degrees of freedom as
           vibrations may cause significant error
 Vibrational temperatures:     28.78    56.38   110.98   162.95   271.04
          (Kelvin)            338.24   429.91   489.15   582.79   722.48
                              773.34   859.11   995.53  1156.14  1207.15
                             1298.57  1350.14  1390.18  1420.06  1430.68
                             1506.43  1522.92  1582.63  1629.70  1689.68
                             1748.52  1764.18  1768.78  1832.46  1853.11
                             1875.44  1915.69  1955.17  1970.59  2016.67
                             2042.06  2148.46  2156.98  2172.87  2199.68
                             3392.62  4278.98  4283.33  4309.82  4367.02
                             4403.72  4425.82  4436.81  4471.06  4496.96
                             5492.19

 Zero-point correction=                           0.159582 (Hartree/Particle)
 Thermal correction to Energy=                    0.169175
 Thermal correction to Enthalpy=                  0.170119
 Thermal correction to Gibbs Free Energy=         0.122447
 Sum of electronic and zero-point Energies=           -422.992183
 Sum of electronic and thermal Energies=              -422.982590
 Sum of electronic and thermal Enthalpies=            -422.981646
 Sum of electronic and thermal Free Energies=         -423.029317

                     E (Thermal)             CV                S
                      KCal/Mol        Cal/Mol-Kelvin    Cal/Mol-Kelvin
 Total                  106.159             33.177            100.334
 Electronic               0.000              0.000              0.000
 Translational            0.889              2.981             40.409
 Rotational               0.889              2.981             29.559
 Vibrational            104.381             27.215             30.366
 Vibration     1          0.593              1.986              6.634
 Vibration     2          0.594              1.981              5.300
 Vibration     3          0.599              1.964              3.962
 Vibration     4          0.607              1.938              3.212
 Vibration     5          0.633              1.856              2.244
 Vibration     6          0.655              1.787              1.840
 Vibration     7          0.692              1.676              1.424
 Vibration     8          0.720              1.596              1.212
 Vibration     9          0.770              1.459              0.944
 Vibration    10          0.857              1.245              0.653
 Vibration    11          0.893              1.167              0.571
 Vibration    12          0.955              1.038              0.455

 Optimization completed on the basis of negligible forces.
    -- Stationary point found.
 Normal termination of Gaussian 09 at Tue Jan 28 08:45:47 2020.
