 Gaussian 09, Revision D.01,
 Gaussian 09:  ES64L-G09RevD.01 24-Apr-2013

 -----------------------------
 # b3lyp 6-31G(2df,p) opt Freq
 -----------------------------

 -----
 titel
 -----
 Symbolic Z-matrix:
 Charge =  0 Multiplicity = 1

 SCF Done:  E(RB3LYP) =  -423.157859374     A.U. after   14 cycles
 Optimization completed.
    -- Stationary point found.
 Normal termination of Gaussian 09 at Tue Jan 28 08:19:51 2020.

 ----------------------------------------------------------------------
 #N Geom=AllCheck Guess=TCheck SCRF=Check GenChk RB3LYP/6-31G(2df,p) Fr
 eq
 ----------------------------------------------------------------------

 Structure from the checkpoint file:  "/scratch/puck/g09_9cafa1e8-d029-4178-9dff-7bef2b9fe829/Gau-59936.chk"
 -----
 titel
 -----
 Charge =  0 Multiplicity = 1

                         Standard orientation:
 ---------------------------------------------------------------------
 Center     Atomic      Atomic             Coordinates (Angstroms)
 Number     Number       Type             X           Y           Z
 ---------------------------------------------------------------------
      1          6           0       -2.857451   -0.520135    0.736952
      2          6           0       -1.609647   -0.962800   -0.027633
      3          6           0       -0.396556   -0.042780    0.212475
      4          6           0       -0.615510    1.322407   -0.261863
      5          6           0       -0.788312    2.432440   -0.691269
      6          6           0        0.878940   -0.587398   -0.471737
      7          8           0        0.842024   -1.470862   -1.291397
      8          6           0        2.204651    0.063115   -0.057030
      9          8           0        2.301261    0.296910    1.338211
     10          1           0       -3.692349   -1.199148    0.540009
     11          1           0       -2.681873   -0.513143    1.818721
     12          1           0       -3.164587    0.487918    0.442991
     13          1           0       -1.322436   -1.977955    0.266440
     14          1           0       -1.809471   -1.002268   -1.102159
     15          1           0       -0.171620    0.010702    1.286313
     16          1           0       -0.947443    3.418457   -1.052315
     17          1           0        3.019423   -0.559736   -0.445469
     18          1           0        2.263817    1.045584   -0.538454
     19          1           0        2.463571   -0.547893    1.770046
 ---------------------------------------------------------------------

 SCF Done:  E(RB3LYP) =  -423.157859373     A.U. after    1 cycles

 The electronic state is 1-A.
 Alpha  occ. eigenvalues --  -19.15839 -19.14412 -10.27777 -10.24277 -10.21834
 Alpha  occ. eigenvalues --  -10.18936 -10.18780 -10.17860 -10.17477  -1.05681
 Alpha  occ. eigenvalues --   -1.03539  -0.82312  -0.74882  -0.72911  -0.69561
 Alpha  occ. eigenvalues --   -0.60854  -0.56503  -0.53483  -0.51705  -0.49070
 Alpha  occ. eigenvalues --   -0.46598  -0.45640  -0.44743  -0.42380  -0.40959
 Alpha  occ. eigenvalues --   -0.37465  -0.36208  -0.35298  -0.35273  -0.34043
 Alpha  occ. eigenvalues --   -0.31133  -0.28503  -0.27075  -0.23942
 Alpha virt. eigenvalues --   -0.03046   0.04563   0.05336   0.07133   0.11039
 Alpha virt. eigenvalues --    0.12423   0.13083   0.14293   0.15321   0.15611
 Alpha virt. eigenvalues --    0.16725   0.18187   0.18673   0.19233   0.21741

 Mulliken charges:
               1
     1  C   -0.396452
     2  C   -0.171620
     3  C   -0.225657
     4  C    0.336004
     5  C   -0.487774
     6  C    0.324118
     7  O   -0.286676
     8  C   -0.159904
     9  O   -0.404468
    10  H    0.116163
    11  H    0.111866
    12  H    0.131407
    13  H    0.103755
    14  H    0.121877
    15  H    0.123799
    16  H    0.201932
    17  H    0.119165
    18  H    0.149113
    19  H    0.293353
 Sum of Mulliken charges =   0.00000

 Dipole moment (field-independent basis, Debye):
    X=              0.2954    Y=              0.0691    Z=              1.2958  Tot=              1.3308
 Quadrupole moment (field-independent basis, Debye-Ang):
   XX=            -50.6966   YY=            -52.1128   ZZ=            -54.8305
   XY=             -2.1152   XZ=              1.2844   YZ=             -7.8520

  Exact polarizability:  80.047  -2.852  88.037  -0.795  -4.525  65.184
 Approx polarizability:  97.182  -7.288 142.346   1.914  -6.438 103.788

                      1                      2                      3
                      A                      A                      A
 Frequencies --     22.2586                62.8537                87.6350
 Red. masses --      4.6791                 3.6178                 2.2814
 Frc consts  --      0.0014                 0.0084                 0.0103
 IR Inten    --      0.3930                 7.0146                 0.3893

                      4                      5                      6
                      A                      A                      A
 Frequencies --    134.6222               155.3175               176.9705
 Red. masses --      3.6246                 3.3603                 2.1234
 Frc consts  --      0.0387                 0.0478                 0.0392
 IR Inten    --      0.2740                 0.8547                 0.1281

                      7                      8                      9
                      A                      A                      A
 Frequencies --    244.8015               264.5114               337.0167
 Red. masses --      1.7468                 2.7108                 1.2187
 Frc consts  --      0.0617                 0.1117                 0.0816
 IR Inten    --      3.6752                 2.7678               104.6445

                     10                     11                     12
                      A                      A                      A
 Frequencies --    343.6995               397.6607               477.1359
 Red. masses --      3.6414                 3.2302                 4.4478
 Frc consts  --      0.2534                 0.3010                 0.5966
 IR Inten    --      0.3555                26.7626                14.0820

                     13                     14                     15
                      A                      A                      A
 Frequencies --    538.0198               543.5858               617.4241
 Red. masses --      5.0725                 3.8080                 1.2191
 Frc consts  --      0.8651                 0.6630                 0.2738
 IR Inten    --     18.6550                 0.1136                43.6731

                     16                     17                     18
                      A                      A                      A
 Frequencies --    647.2133               647.7649               760.9802
 Red. masses --      2.7454                 1.3572                 1.5196
 Frc consts  --      0.6776                 0.3355                 0.5185
 IR Inten    --     29.9736                24.5212                 3.3604

                     19                     20                     21
                      A                      A                      A
 Frequencies --    819.1214               898.6484               941.8482
 Red. masses --      2.4105                 2.2048                 2.1172
 Frc consts  --      0.9529                 1.0490                 1.1065
 IR Inten    --      1.3482                 4.4665                 6.5496

                     22                     23                     24
                      A                      A                      A
 Frequencies --    991.3296              1055.5936              1078.4705
 Red. masses --      1.9320                 2.2362                 5.2480
 Frc consts  --      1.1187                 1.4681                 3.5964
 IR Inten    --     13.6171                 1.9157                62.3021

                     25                     26                     27
                      A                      A                      A
 Frequencies --   1098.1766              1123.9771              1163.5079
 Red. masses --      2.4197                 1.6935                 2.3158
 Frc consts  --      1.7193                 1.2605                 1.8471
 IR Inten    --      9.5954                 1.8874                27.2239

                     28                     29                     30
                      A                      A                      A
 Frequencies --   1190.9156              1270.1705              1285.2794
 Red. masses --      1.1865                 1.3244                 1.6935
 Frc consts  --      0.9914                 1.2589                 1.6482
 IR Inten    --     22.2446                 2.9638                46.5348

                     31                     32                     33
                      A                      A                      A
 Frequencies --   1336.1002              1359.9610              1365.1430
 Red. masses --      1.2692                 1.3303                 1.4295
 Frc consts  --      1.3349                 1.4497                 1.5696
 IR Inten    --      3.5680                 2.8637                 7.3254

                     34                     35                     36
                      A                      A                      A
 Frequencies --   1400.9262              1413.7334              1474.0232
 Red. masses --      1.1948                 1.2404                 1.0752
 Frc consts  --      1.3816                 1.4607                 1.3765
 IR Inten    --     26.6562                 1.3266                 8.1054

                     37                     38                     39
                      A                      A                      A
 Frequencies --   1482.8673              1497.3907              1507.8652
 Red. masses --      1.0668                 1.0405                 1.0610
 Frc consts  --      1.3821                 1.3746                 1.4213
 IR Inten    --      1.9133                 5.7104                 3.0918

                     40                     41                     42
                      A                      A                      A
 Frequencies --   1820.1082              2227.3419              3023.8222
 Red. masses --     11.9284                 5.9432                 1.0793
 Frc consts  --     23.2823                17.3718                 5.8145
 IR Inten    --    143.2275                 1.6715                 2.6738

                     43                     44                     45
                      A                      A                      A
 Frequencies --   3031.8314              3034.3911              3052.5657
 Red. masses --      1.0582                 1.0370                 1.0628
 Frc consts  --      5.7308                 5.6257                 5.8348
 IR Inten    --     25.0510                23.4510                18.0300

                     46                     47                     48
                      A                      A                      A
 Frequencies --   3087.9108              3087.9631              3107.2970
 Red. masses --      1.1038                 1.0997                 1.1003
 Frc consts  --      6.2009                 6.1784                 6.2596
 IR Inten    --     12.7060                 6.8851                34.8097

                     49                     50                     51
                      A                      A                      A
 Frequencies --   3116.0171              3502.8678              3818.3901
 Red. masses --      1.1023                 1.1612                 1.0666
 Frc consts  --      6.3062                 8.3950                 9.1625
 IR Inten    --     30.4553                69.9578                30.3943

 - Thermochemistry -
 -------------------
 Temperature   298.150 Kelvin.  Pressure   1.00000 Atm.
 Atom     1 has atomic number  6 and mass  12.00000

 Molecular mass:   126.06808 amu.
 Principal axes and moments of inertia in atomic units:
                           1         2         3
     Eigenvalues --   892.578251595.321501897.30004
           X            0.99961   0.02279  -0.01589
           Y           -0.02381   0.99744  -0.06739
           Z            0.01432   0.06774   0.99760
 This molecule is an asymmetric top.
 Rotational symmetry number  1.
 Warning -- assumption of classical behavior for rotation
           may cause significant error
 Rotational temperatures (Kelvin)      0.09704     0.05429     0.04565
 Rotational constants (GHZ):           2.02194     1.13127     0.95122
 Zero-point vibrational energy     407478.1 (Joules/Mol)
                                   97.38961 (Kcal/Mol)
 Warning -- explicit consideration of  15 degrees of freedom as
           vibrations may cause significant error
 Vibrational temperatures:     32.03    90.43   126.09   193.69   223.47
          (Kelvin)            254.62   352.21   380.57   484.89   494.51
                              572.14   686.49   774.09   782.10   888.33
                              931.19   931.99  1094.88  1178.53  1292.95
                             1355.11  1426.30  1518.76  1551.68  1580.03
                             1617.15  1674.03  1713.46  1827.49  1849.23
                             1922.35  1956.68  1964.13  2015.62  2034.04
                             2120.79  2133.51  2154.41  2169.48  2618.73
                             3204.64  4350.60  4362.12  4365.81  4391.96
                             4442.81  4442.88  4470.70  4483.25  5039.84
                             5493.80

 Zero-point correction=                           0.155200 (Hartree/Particle)
 Thermal correction to Energy=                    0.165998
 Thermal correction to Enthalpy=                  0.166943
 Thermal correction to Gibbs Free Energy=         0.117863
 Sum of electronic and zero-point Energies=           -423.002659
 Sum of electronic and thermal Energies=              -422.991861
 Sum of electronic and thermal Enthalpies=            -422.990917
 Sum of electronic and thermal Free Energies=         -423.039996

                     E (Thermal)             CV                S
                      KCal/Mol        Cal/Mol-Kelvin    Cal/Mol-Kelvin
 Total                  104.166             37.728            103.297
 Electronic               0.000              0.000              0.000
 Translational            0.889              2.981             40.409
 Rotational               0.889              2.981             29.381
 Vibrational            102.388             31.766             33.507
 Vibration     1          0.593              1.985              6.422
 Vibration     2          0.597              1.972              4.366
 Vibration     3          0.601              1.958              3.712
 Vibration     4          0.613              1.919              2.879
 Vibration     5          0.620              1.897              2.606
 Vibration     6          0.628              1.871              2.360
 Vibration     7          0.660              1.771              1.768
 Vibration     8          0.671              1.738              1.632
 Vibration     9          0.718              1.602              1.226
 Vibration    10          0.722              1.588              1.195
 Vibration    11          0.764              1.475              0.971
 Vibration    12          0.834              1.301              0.718
 Vibration    13          0.893              1.166              0.570
 Vibration    14          0.899              1.154              0.558
 Vibration    15          0.977              0.995              0.421

 Normal termination of Gaussian 09 at Tue Jan 28 10:00:11 2020.
