 Gaussian 09, Revision D.01,
 Gaussian 09:  ES64L-G09RevD.01 24-Apr-2013

 -----------------------------
 # b3lyp 6-31G(2df,p) opt Freq
 -----------------------------

 -----
 titel
 -----
 Symbolic Z-matrix:
 Charge =  0 Multiplicity = 1

 SCF Done:  E(RB3LYP) =  -423.120704941     A.U. after   12 cycles
 Optimization completed.
    -- Stationary point found.
 Normal termination of Gaussian 09 at Tue Jan 28 12:48:08 2020.

 ----------------------------------------------------------------------
 #N Geom=AllCheck Guess=TCheck SCRF=Check GenChk RB3LYP/6-31G(2df,p) Fr
 eq
 ----------------------------------------------------------------------

 Structure from the checkpoint file:  "/scratch/puck/g09_e2035293-b9c5-4a9a-8556-bd4a910c9715/Gau-10897.chk"
 -----
 titel
 -----
 Charge =  0 Multiplicity = 1

                         Standard orientation:
 ---------------------------------------------------------------------
 Center     Atomic      Atomic             Coordinates (Angstroms)
 Number     Number       Type             X           Y           Z
 ---------------------------------------------------------------------
      1          6           0       -2.846414   -0.320140   -0.140385
      2          8           0       -1.652810    0.369424    0.158098
      3          6           0       -0.513998   -0.115067   -0.524346
      4          6           0        0.134442   -1.345904    0.102548
      5          6           0        1.654655   -1.167343   -0.059329
      6          6           0        1.901946    0.165269   -0.775133
      7          6           0        0.695429    0.683772    0.025141
      8          8           0        0.548202    2.027096    0.263979
      9          6           0        0.924221   -0.512017    1.080999
     10          1           0       -2.805123   -1.370387    0.181515
     11          1           0       -3.655052    0.180701    0.397392
     12          1           0       -3.066887   -0.295877   -1.218483
     13          1           0       -0.694870   -0.100832   -1.611394
     14          1           0       -0.298407   -2.325308    0.258854
     15          1           0        2.313378   -2.024465   -0.016712
     16          1           0        2.831271    0.627896   -0.432262
     17          1           0        1.840335    0.215067   -1.868736
     18          1           0       -0.375281    2.153389    0.523833
     19          1           0        1.045809   -0.563774    2.152401
 ---------------------------------------------------------------------

 SCF Done:  E(RB3LYP) =  -423.120704941     A.U. after    1 cycles

 The electronic state is 1-A.
 Alpha  occ. eigenvalues --  -19.14873 -19.13976 -10.23890 -10.22959 -10.22954
 Alpha  occ. eigenvalues --  -10.19343 -10.18963 -10.18260 -10.17993  -1.04858
 Alpha  occ. eigenvalues --   -1.02227  -0.91959  -0.73098  -0.71231  -0.65719
 Alpha  occ. eigenvalues --   -0.61780  -0.55250  -0.53955  -0.53269  -0.49214
 Alpha  occ. eigenvalues --   -0.47645  -0.45617  -0.43328  -0.41763  -0.41507
 Alpha  occ. eigenvalues --   -0.39270  -0.37385  -0.34591  -0.33534  -0.30655
 Alpha  occ. eigenvalues --   -0.28599  -0.26046  -0.25310  -0.24446
 Alpha virt. eigenvalues --    0.08630   0.09573   0.11291   0.12383   0.13015
 Alpha virt. eigenvalues --    0.13473   0.14319   0.15397   0.15873   0.16430
 Alpha virt. eigenvalues --    0.17852   0.18838   0.19971   0.20233   0.21975

 Mulliken charges:
               1
     1  C   -0.238229
     2  O   -0.272847
     3  C    0.071345
     4  C   -0.103435
     5  C   -0.071237
     6  C   -0.286149
     7  C    0.384687
     8  O   -0.481694
     9  C   -0.165936
    10  H    0.111815
    11  H    0.128243
    12  H    0.108867
    13  H    0.056454
    14  H    0.086745
    15  H    0.089423
    16  H    0.108490
    17  H    0.088726
    18  H    0.292084
    19  H    0.092647
 Sum of Mulliken charges =   0.00000

 Dipole moment (field-independent basis, Debye):
    X=             -1.2832    Y=             -1.6675    Z=             -0.2104  Tot=              2.1146
 Quadrupole moment (field-independent basis, Debye-Ang):
   XX=            -49.0875   YY=            -54.5174   ZZ=            -52.5500
   XY=             -1.8864   XZ=              0.4001   YZ=             -0.1313

  Exact polarizability:  87.259  -0.707  71.868  -0.931  -1.053  66.561
 Approx polarizability: 113.817  -0.326 108.978  -1.367   1.713 104.086

                      1                      2                      3
                      A                      A                      A
 Frequencies --     76.7905               164.1900               167.1987
 Red. masses --      2.6627                 2.4377                 1.4863
 Frc consts  --      0.0093                 0.0387                 0.0245
 IR Inten    --      1.8590                 0.4150                 0.7643

                      4                      5                      6
                      A                      A                      A
 Frequencies --    244.4524               304.7402               358.2346
 Red. masses --      2.9036                 3.4650                 3.1587
 Frc consts  --      0.1022                 0.1896                 0.2388
 IR Inten    --      3.6373                 6.7211                 0.7622

                      7                      8                      9
                      A                      A                      A
 Frequencies --    433.5676               459.1492               503.0205
 Red. masses --      2.4792                 1.3415                 3.3525
 Frc consts  --      0.2746                 0.1666                 0.4998
 IR Inten    --      1.3545                65.3915                 5.6347

                     10                     11                     12
                      A                      A                      A
 Frequencies --    514.7925               678.4502               724.1484
 Red. masses --      2.6852                 4.7609                 3.3264
 Frc consts  --      0.4193                 1.2912                 1.0277
 IR Inten    --     22.7919                 6.6486                 5.7498

                     13                     14                     15
                      A                      A                      A
 Frequencies --    780.2736               803.2349               816.9221
 Red. masses --      1.7843                 1.7249                 2.0255
 Frc consts  --      0.6401                 0.6557                 0.7964
 IR Inten    --     12.8573                 9.7524                 8.6887

                     16                     17                     18
                      A                      A                      A
 Frequencies --    912.2029               923.4426               946.1992
 Red. masses --      2.0523                 1.6679                 2.4638
 Frc consts  --      1.0062                 0.8380                 1.2997
 IR Inten    --      9.1869                 1.1560                 0.7972

                     19                     20                     21
                      A                      A                      A
 Frequencies --    961.9082               994.8459              1008.3074
 Red. masses --      3.6872                 1.7297                 2.1559
 Frc consts  --      2.0101                 1.0086                 1.2914
 IR Inten    --     31.8899                 3.9751                 2.8267

                     22                     23                     24
                      A                      A                      A
 Frequencies --   1026.9406              1053.1071              1060.9850
 Red. masses --      1.3848                 2.7402                 1.8726
 Frc consts  --      0.8605                 1.7905                 1.2419
 IR Inten    --      0.8761                 1.6904                 8.1355

                     25                     26                     27
                      A                      A                      A
 Frequencies --   1097.3705              1142.1774              1143.8533
 Red. masses --      2.1767                 1.4453                 2.5162
 Frc consts  --      1.5444                 1.1109                 1.9397
 IR Inten    --     19.5500                21.1169                95.8390

                     28                     29                     30
                      A                      A                      A
 Frequencies --   1168.4415              1183.0715              1220.8584
 Red. masses --      2.4748                 1.2884                 1.6244
 Frc consts  --      1.9907                 1.0625                 1.4265
 IR Inten    --     75.3675                 2.1572                34.0359

                     31                     32                     33
                      A                      A                      A
 Frequencies --   1241.3221              1254.0672              1278.3096
 Red. masses --      1.8765                 1.5553                 1.7135
 Frc consts  --      1.7036                 1.4412                 1.6497
 IR Inten    --     16.2254                23.3147                11.8814

                     34                     35                     36
                      A                      A                      A
 Frequencies --   1342.7119              1347.5756              1391.5050
 Red. masses --      3.1324                 1.7421                 1.9422
 Frc consts  --      3.3273                 1.8639                 2.2157
 IR Inten    --    114.2051                43.4956                93.4409

                     37                     38                     39
                      A                      A                      A
 Frequencies --   1418.0657              1480.9403              1488.4321
 Red. masses --      1.7655                 1.1255                 1.0707
 Frc consts  --      2.0918                 1.4544                 1.3976
 IR Inten    --     17.9615                 2.1424                 3.8700

                     40                     41                     42
                      A                      A                      A
 Frequencies --   1505.2610              1509.4678              2970.7583
 Red. masses --      1.1377                 1.0904                 1.0790
 Frc consts  --      1.5188                 1.4638                 5.6108
 IR Inten    --      8.0861                 3.2107                45.7730

                     43                     44                     45
                      A                      A                      A
 Frequencies --   2984.6717              3032.0768              3035.5411
 Red. masses --      1.0405                 1.0618                 1.1021
 Frc consts  --      5.4613                 5.7513                 5.9835
 IR Inten    --     79.2853                58.9375                50.3107

                     46                     47                     48
                      A                      A                      A
 Frequencies --   3102.2604              3115.2264              3195.9691
 Red. masses --      1.1026                 1.0975                 1.0916
 Frc consts  --      6.2524                 6.2753                 6.5694
 IR Inten    --     22.5007                28.6029                 8.8479

                     49                     50                     51
                      A                      A                      A
 Frequencies --   3203.9305              3233.6022              3748.5555
 Red. masses --      1.0914                 1.1005                 1.0647
 Frc consts  --      6.6010                 6.7800                 8.8149
 IR Inten    --     19.4746                 6.2743                47.9245

 - Thermochemistry -
 -------------------
 Temperature   298.150 Kelvin.  Pressure   1.00000 Atm.
 Atom     1 has atomic number  6 and mass  12.00000

 Molecular mass:   126.06808 amu.
 Principal axes and moments of inertia in atomic units:
                           1         2         3
     Eigenvalues --   617.348351179.910871515.46199
           X            0.99998   0.00649   0.00078
           Y           -0.00648   0.99993  -0.00984
           Z           -0.00084   0.00984   0.99995
 This molecule is an asymmetric top.
 Rotational symmetry number  1.
 Warning -- assumption of classical behavior for rotation
           may cause significant error
 Rotational temperatures (Kelvin)      0.14030     0.07341     0.05715
 Rotational constants (GHZ):           2.92338     1.52956     1.19089
 Zero-point vibrational energy     417216.4 (Joules/Mol)
                                   99.71710 (Kcal/Mol)
 Warning -- explicit consideration of  10 degrees of freedom as
           vibrations may cause significant error
 Vibrational temperatures:    110.48   236.23   240.56   351.71   438.45
          (Kelvin)            515.42   623.81   660.61   723.73   740.67
                              976.14  1041.89  1122.64  1155.67  1175.37
                             1312.45  1328.63  1361.37  1383.97  1431.36
                             1450.73  1477.54  1515.18  1526.52  1578.87
                             1643.34  1645.75  1681.12  1702.17  1756.54
                             1785.98  1804.32  1839.20  1931.86  1938.86
                             2002.06  2040.28  2130.74  2141.52  2165.73
                             2171.78  4274.25  4294.27  4362.48  4367.46
                             4463.46  4482.11  4598.28  4609.74  4652.43
                             5393.33

 Zero-point correction=                           0.158909 (Hartree/Particle)
 Thermal correction to Energy=                    0.167013
 Thermal correction to Enthalpy=                  0.167957
 Thermal correction to Gibbs Free Energy=         0.126298
 Sum of electronic and zero-point Energies=           -422.961796
 Sum of electronic and thermal Energies=              -422.953692
 Sum of electronic and thermal Enthalpies=            -422.952748
 Sum of electronic and thermal Free Energies=         -422.994407

                     E (Thermal)             CV                S
                      KCal/Mol        Cal/Mol-Kelvin    Cal/Mol-Kelvin
 Total                  104.802             31.733             87.680
 Electronic               0.000              0.000              0.000
 Translational            0.889              2.981             40.409
 Rotational               0.889              2.981             28.492
 Vibrational            103.025             25.771             18.779
 Vibration     1          0.599              1.965              3.971
 Vibration     2          0.623              1.886              2.501
 Vibration     3          0.624              1.883              2.467
 Vibration     4          0.660              1.772              1.770
 Vibration     5          0.696              1.665              1.391
 Vibration     6          0.733              1.558              1.130
 Vibration     7          0.794              1.397              0.847
 Vibration     8          0.817              1.341              0.769
 Vibration     9          0.858              1.243              0.651
 Vibration    10          0.870              1.217              0.622

 Optimization completed.
    -- Stationary point found.
 Normal termination of Gaussian 09 at Tue Jan 28 14:48:22 2020.
