 Gaussian 09, Revision D.01,
 Gaussian 09:  ES64L-G09RevD.01 24-Apr-2013

 -----------------------------
 # b3lyp 6-31G(2df,p) opt Freq
 -----------------------------

 -----
 titel
 -----
 Symbolic Z-matrix:
 Charge =  0 Multiplicity = 1

 SCF Done:  E(RB3LYP) =  -423.126724898     A.U. after   14 cycles
 Optimization completed.
    -- Stationary point found.
 Normal termination of Gaussian 09 at Mon Jan 27 15:52:43 2020.

 ----------------------------------------------------------------------
 #N Geom=AllCheck Guess=TCheck SCRF=Check GenChk RB3LYP/6-31G(2df,p) Fr
 eq
 ----------------------------------------------------------------------

 Structure from the checkpoint file:  "/scratch/puck/g09_0bbf59af-760b-442f-bef9-a7d4a2e6a175/Gau-10045.chk"
 -----
 titel
 -----
 Charge =  0 Multiplicity = 1

                         Standard orientation:
 ---------------------------------------------------------------------
 Center     Atomic      Atomic             Coordinates (Angstroms)
 Number     Number       Type             X           Y           Z
 ---------------------------------------------------------------------
      1          6           0        1.703949    1.102780    1.009042
      2          6           0        1.271379   -0.004002    0.074473
      3          6           0        1.995602   -1.283948    0.044362
      4          8           0        2.203931   -0.306007   -0.973558
      5          6           0       -0.180336   -0.000623   -0.379993
      6          8           0       -0.491881    1.307493   -0.815351
      7          6           0       -1.143508   -0.454513    0.748611
      8          6           0       -2.530941   -0.372094    0.310292
      9          6           0       -3.651394   -0.262596   -0.113828
     10          1           0        1.498996    2.074940    0.555617
     11          1           0        1.168107    1.054955    1.962915
     12          1           0        2.774530    1.022513    1.210628
     13          1           0        2.830129   -1.440922    0.726857
     14          1           0        1.489928   -2.194118   -0.279171
     15          1           0       -0.262174   -0.718287   -1.209899
     16          1           0       -1.432379    1.322582   -1.031160
     17          1           0       -0.899544   -1.480278    1.048846
     18          1           0       -0.999329    0.184444    1.627637
     19          1           0       -4.653171   -0.187745   -0.458754
 ---------------------------------------------------------------------

 SCF Done:  E(RB3LYP) =  -423.126724898     A.U. after    1 cycles

 The electronic state is 1-A.
 Alpha  occ. eigenvalues --  -19.14808 -19.13877 -10.24470 -10.24371 -10.23371
 Alpha  occ. eigenvalues --  -10.21681 -10.19513 -10.18488 -10.17930  -1.07140
 Alpha  occ. eigenvalues --   -1.02423  -0.80571  -0.75761  -0.72136  -0.66789
 Alpha  occ. eigenvalues --   -0.65785  -0.55808  -0.53809  -0.52179  -0.49818
 Alpha  occ. eigenvalues --   -0.47720  -0.46132  -0.44957  -0.41843  -0.41164
 Alpha  occ. eigenvalues --   -0.39643  -0.37524  -0.36809  -0.33708  -0.29987
 Alpha  occ. eigenvalues --   -0.29023  -0.27795  -0.26995  -0.26163
 Alpha virt. eigenvalues --    0.03751   0.04481   0.08353   0.09571   0.10678
 Alpha virt. eigenvalues --    0.11565   0.11894   0.13609   0.13703   0.15865
 Alpha virt. eigenvalues --    0.16196   0.16687   0.18864   0.20344   0.21644

 Mulliken charges:
               1
     1  C   -0.470551
     2  C    0.427473
     3  C   -0.236476
     4  O   -0.280646
     5  C    0.069443
     6  O   -0.440781
     7  C   -0.372568
     8  C    0.257230
     9  C   -0.416100
    10  H    0.152438
    11  H    0.117716
    12  H    0.124547
    13  H    0.111903
    14  H    0.108116
    15  H    0.084645
    16  H    0.289540
    17  H    0.132866
    18  H    0.138946
    19  H    0.202259
 Sum of Mulliken charges =   0.00000

 Dipole moment (field-independent basis, Debye):
    X=             -1.4557    Y=             -1.2073    Z=              1.7244  Tot=              2.5593
 Quadrupole moment (field-independent basis, Debye-Ang):
   XX=            -50.1322   YY=            -53.0061   ZZ=            -54.5905
   XY=             -2.3402   XZ=              6.9133   YZ=              0.2157

  Exact polarizability: 102.055  -3.822  68.765   8.289   0.158  61.645
 Approx polarizability: 139.685  -7.178 102.231  13.091  -3.430  97.095

                      1                      2                      3
                      A                      A                      A
 Frequencies --     68.7915                71.8108               120.8746
 Red. masses --      4.0680                 2.7895                 4.1734
 Frc consts  --      0.0113                 0.0085                 0.0359
 IR Inten    --      0.9146                 0.1593                 0.4963

                      4                      5                      6
                      A                      A                      A
 Frequencies --    178.0079               207.1653               270.0544
 Red. masses --      1.1115                 4.2528                 3.2022
 Frc consts  --      0.0208                 0.1075                 0.1376
 IR Inten    --      0.2155                 0.7410                 2.3408

                      7                      8                      9
                      A                      A                      A
 Frequencies --    317.4675               350.3252               360.5511
 Red. masses --      4.1142                 2.6606                 2.4712
 Frc consts  --      0.2443                 0.1924                 0.1893
 IR Inten    --      6.3334                 8.0170                 3.5469

                     10                     11                     12
                      A                      A                      A
 Frequencies --    383.3670               395.9551               470.8869
 Red. masses --      1.1583                 4.1760                 3.7057
 Frc consts  --      0.1003                 0.3857                 0.4841
 IR Inten    --     94.8951                 6.6449                 3.2399

                     13                     14                     15
                      A                      A                      A
 Frequencies --    522.0598               562.5634               628.5900
 Red. masses --      3.7917                 3.2195                 1.2112
 Frc consts  --      0.6089                 0.6003                 0.2820
 IR Inten    --     11.6063                14.2604                46.1507

                     16                     17                     18
                      A                      A                      A
 Frequencies --    660.7778               763.0024               835.2331
 Red. masses --      1.2217                 3.6431                 3.7627
 Frc consts  --      0.3143                 1.2496                 1.5466
 IR Inten    --     42.2400                 9.8012                18.4834

                     19                     20                     21
                      A                      A                      A
 Frequencies --    874.3095               917.6234               934.5564
 Red. masses --      2.2828                 1.5170                 2.7536
 Frc consts  --      1.0281                 0.7526                 1.4170
 IR Inten    --     15.6424                 3.8211                 7.8223

                     22                     23                     24
                      A                      A                      A
 Frequencies --    967.1514              1019.0676              1047.8091
 Red. masses --      2.5826                 2.1068                 2.4114
 Frc consts  --      1.4233                 1.2891                 1.5598
 IR Inten    --      1.5354                14.9237                23.9918

                     25                     26                     27
                      A                      A                      A
 Frequencies --   1095.2979              1116.9482              1136.4014
 Red. masses --      2.2407                 2.6793                 1.3694
 Frc consts  --      1.5838                 1.9694                 1.0419
 IR Inten    --     49.1950                 8.1584                 6.5317

                     28                     29                     30
                      A                      A                      A
 Frequencies --   1168.3988              1216.4936              1239.8555
 Red. masses --      1.3543                 1.3529                 1.2982
 Frc consts  --      1.0893                 1.1796                 1.1758
 IR Inten    --      0.4494                44.7089                14.7393

                     31                     32                     33
                      A                      A                      A
 Frequencies --   1290.8592              1306.2718              1367.7074
 Red. masses --      1.4561                 1.6048                 1.2208
 Frc consts  --      1.4295                 1.6134                 1.3455
 IR Inten    --     18.5012                 5.5940                10.9310

                     34                     35                     36
                      A                      A                      A
 Frequencies --   1386.4189              1413.1335              1448.9220
 Red. masses --      1.8856                 1.5105                 1.5008
 Frc consts  --      2.1355                 1.7772                 1.8563
 IR Inten    --     33.8648                14.7744                 6.8690

                     37                     38                     39
                      A                      A                      A
 Frequencies --   1464.9363              1479.3980              1499.8906
 Red. masses --      1.1311                 1.0483                 1.0881
 Frc consts  --      1.4302                 1.3517                 1.4422
 IR Inten    --      5.6915                 5.9358                 4.6156

                     40                     41                     42
                      A                      A                      A
 Frequencies --   1533.4381              2231.6121              2993.9246
 Red. masses --      1.4108                 5.9365                 1.0837
 Frc consts  --      1.9545                17.4187                 5.7231
 IR Inten    --      2.9730                 2.6121                30.3421

                     43                     44                     45
                      A                      A                      A
 Frequencies --   3034.2662              3047.3290              3074.3191
 Red. masses --      1.0579                 1.0381                 1.0566
 Frc consts  --      5.7386                 5.6798                 5.8836
 IR Inten    --     12.0096                14.7089                14.8129

                     46                     47                     48
                      A                      A                      A
 Frequencies --   3075.8071              3116.0730              3140.0585
 Red. masses --      1.0954                 1.0975                 1.1024
 Frc consts  --      6.1057                 6.2789                 6.4042
 IR Inten    --     23.0256                19.4991                 8.8242

                     49                     50                     51
                      A                      A                      A
 Frequencies --   3158.2312              3503.8491              3779.2050
 Red. masses --      1.1186                 1.1617                 1.0657
 Frc consts  --      6.5737                 8.4031                 8.9675
 IR Inten    --     28.2735                74.4719                39.5934

 - Thermochemistry -
 -------------------
 Temperature   298.150 Kelvin.  Pressure   1.00000 Atm.
 Atom     1 has atomic number  6 and mass  12.00000

 Molecular mass:   126.06808 amu.
 Principal axes and moments of inertia in atomic units:
                           1         2         3
     Eigenvalues --   523.338881943.903042037.73958
           X            0.99975  -0.00178   0.02223
           Y           -0.00021   0.99601   0.08919
           Z           -0.02230  -0.08917   0.99577
 This molecule is an asymmetric top.
 Rotational symmetry number  1.
 Warning -- assumption of classical behavior for rotation
           may cause significant error
 Rotational temperatures (Kelvin)      0.16550     0.04456     0.04250
 Rotational constants (GHZ):           3.44851     0.92841     0.88566
 Zero-point vibrational energy     408208.0 (Joules/Mol)
                                   97.56405 (Kcal/Mol)
 Warning -- explicit consideration of  14 degrees of freedom as
           vibrations may cause significant error
 Vibrational temperatures:     98.98   103.32   173.91   256.11   298.06
          (Kelvin)            388.55   456.76   504.04   518.75   551.58
                              569.69   677.50   751.13   809.40   904.40
                              950.71  1097.79  1201.71  1257.93  1320.25
                             1344.62  1391.51  1466.21  1507.56  1575.89
                             1607.04  1635.03  1681.06  1750.26  1783.87
                             1857.26  1879.43  1967.82  1994.75  2033.18
                             2084.67  2107.71  2128.52  2158.01  2206.27
                             3210.79  4307.58  4365.63  4384.42  4423.25
                             4425.39  4483.33  4517.84  4543.98  5041.25
                             5437.43

 Zero-point correction=                           0.155478 (Hartree/Particle)
 Thermal correction to Energy=                    0.165471
 Thermal correction to Enthalpy=                  0.166415
 Thermal correction to Gibbs Free Energy=         0.120463
 Sum of electronic and zero-point Energies=           -422.971247
 Sum of electronic and thermal Energies=              -422.961254
 Sum of electronic and thermal Enthalpies=            -422.960310
 Sum of electronic and thermal Free Energies=         -423.006262

                     E (Thermal)             CV                S
                      KCal/Mol        Cal/Mol-Kelvin    Cal/Mol-Kelvin
 Total                  103.835             36.821             96.715
 Electronic               0.000              0.000              0.000
 Translational            0.889              2.981             40.409
 Rotational               0.889              2.981             29.118
 Vibrational            102.057             30.860             27.188
 Vibration     1          0.598              1.969              4.188
 Vibration     2          0.598              1.967              4.103
 Vibration     3          0.609              1.932              3.086
 Vibration     4          0.628              1.869              2.349
 Vibration     5          0.641              1.830              2.069
 Vibration     6          0.674              1.728              1.596
 Vibration     7          0.704              1.640              1.323
 Vibration     8          0.727              1.575              1.165
 Vibration     9          0.735              1.554              1.120
 Vibration    10          0.753              1.506              1.026
 Vibration    11          0.763              1.479              0.978
 Vibration    12          0.828              1.315              0.735
 Vibration    13          0.877              1.201              0.605
 Vibration    14          0.918              1.112              0.519

 Normal termination of Gaussian 09 at Mon Jan 27 17:38:52 2020.
