 Gaussian 09, Revision D.01,
 Gaussian 09:  ES64L-G09RevD.01 24-Apr-2013

 -----------------------------
 # b3lyp 6-31G(2df,p) opt Freq
 -----------------------------

 -----
 titel
 -----
 Symbolic Z-matrix:
 Charge =  0 Multiplicity = 1

 SCF Done:  E(RB3LYP) =  -423.143003281     A.U. after   14 cycles
 Optimization completed.
    -- Stationary point found.
 Normal termination of Gaussian 09 at Mon Jan 27 22:06:35 2020.

 ----------------------------------------------------------------------
 #N Geom=AllCheck Guess=TCheck SCRF=Check GenChk RB3LYP/6-31G(2df,p) Fr
 eq
 ----------------------------------------------------------------------

 Structure from the checkpoint file:  "/scratch/puck/g09_ebd616d5-f28f-4763-ba27-53ea796aa4c3/Gau-46860.chk"
 -----
 titel
 -----
 Charge =  0 Multiplicity = 1

                         Standard orientation:
 ---------------------------------------------------------------------
 Center     Atomic      Atomic             Coordinates (Angstroms)
 Number     Number       Type             X           Y           Z
 ---------------------------------------------------------------------
      1          6           0        2.313311   -0.846420   -0.063160
      2          6           0        1.008215   -0.472784    0.632810
      3          6           0       -0.218043   -1.275475    0.151511
      4          6           0       -1.539425   -0.504329    0.559005
      5          6           0       -0.961575    0.862977    0.965993
      6          6           0        0.249271    0.729828    0.014120
      7          8           0        0.988590    1.846893   -0.350491
      8          6           0       -0.438512   -0.303249   -1.025806
      9          8           0       -1.860176   -0.266409   -0.846749
     10          1           0        3.069673   -0.074141    0.103732
     11          1           0        2.702566   -1.794411    0.322750
     12          1           0        2.186669   -0.954694   -1.144944
     13          1           0        1.163265   -0.407166    1.715644
     14          1           0       -0.250374   -2.359339    0.061563
     15          1           0       -2.353937   -0.950560    1.127952
     16          1           0       -1.658636    1.662914    0.701206
     17          1           0       -0.662622    0.956486    2.012859
     18          1           0        0.383833    2.521605   -0.677474
     19          1           0       -0.087200   -0.387854   -2.052206
 ---------------------------------------------------------------------

 SCF Done:  E(RB3LYP) =  -423.143003280     A.U. after    1 cycles

 The electronic state is 1-A.
 Alpha  occ. eigenvalues --  -19.14633 -19.13171 -10.24038 -10.23780 -10.22982
 Alpha  occ. eigenvalues --  -10.19102 -10.18832 -10.18207 -10.17428  -1.05423
 Alpha  occ. eigenvalues --   -1.02776  -0.85416  -0.74614  -0.70208  -0.67277
 Alpha  occ. eigenvalues --   -0.61192  -0.57326  -0.53878  -0.52443  -0.48523
 Alpha  occ. eigenvalues --   -0.45807  -0.44625  -0.42587  -0.40325  -0.38913
 Alpha  occ. eigenvalues --   -0.38254  -0.36922  -0.35903  -0.34472  -0.32024
 Alpha  occ. eigenvalues --   -0.30186  -0.28734  -0.27960  -0.22420
 Alpha virt. eigenvalues --    0.07033   0.08949   0.10802   0.11547   0.12268
 Alpha virt. eigenvalues --    0.13911   0.15068   0.15608   0.16601   0.17149
 Alpha virt. eigenvalues --    0.17381   0.18321   0.20069   0.21764   0.23055

 Mulliken charges:
               1
     1  C   -0.418371
     2  C   -0.038448
     3  C   -0.073908
     4  C    0.058571
     5  C   -0.288817
     6  C    0.378735
     7  O   -0.492908
     8  C    0.019530
     9  O   -0.299498
    10  H    0.130786
    11  H    0.112464
    12  H    0.118066
    13  H    0.064822
    14  H    0.077469
    15  H    0.081718
    16  H    0.097277
    17  H    0.101622
    18  H    0.282843
    19  H    0.088049
 Sum of Mulliken charges =   0.00000

 Dipole moment (field-independent basis, Debye):
    X=              0.1691    Y=              0.0032    Z=              0.7971  Tot=              0.8149
 Quadrupole moment (field-independent basis, Debye-Ang):
   XX=            -58.0183   YY=            -49.7128   ZZ=            -51.9347
   XY=             -2.8995   XZ=             -2.9411   YZ=             -1.6237

  Exact polarizability:  79.426  -2.074  73.134  -2.309   0.032  67.999
 Approx polarizability: 111.683   0.283 107.253   0.139  -1.502 107.239

                      1                      2                      3
                      A                      A                      A
 Frequencies --    199.8795               208.1521               217.2859
 Red. masses --      1.2986                 2.8288                 2.0177
 Frc consts  --      0.0306                 0.0722                 0.0561
 IR Inten    --      0.3683                 2.5352                 1.8946

                      4                      5                      6
                      A                      A                      A
 Frequencies --    256.4622               306.8370               377.7349
 Red. masses --      1.2148                 3.0634                 3.5643
 Frc consts  --      0.0471                 0.1699                 0.2996
 IR Inten    --     62.9487                25.7686                12.4179

                      7                      8                      9
                      A                      A                      A
 Frequencies --    461.2745               500.8159               545.1862
 Red. masses --      1.9659                 3.8907                 4.0747
 Frc consts  --      0.2464                 0.5750                 0.7136
 IR Inten    --      0.9968                 4.4970                 1.9039

                     10                     11                     12
                      A                      A                      A
 Frequencies --    645.3130               676.1651               733.2329
 Red. masses --      5.4793                 3.7809                 3.4974
 Frc consts  --      1.3444                 1.0185                 1.1079
 IR Inten    --     11.1307                 1.4315                 2.0820

                     13                     14                     15
                      A                      A                      A
 Frequencies --    809.5839               827.7688               849.3445
 Red. masses --      2.5301                 2.7432                 1.6490
 Frc consts  --      0.9771                 1.1074                 0.7009
 IR Inten    --      5.2470                17.9173                 4.1147

                     16                     17                     18
                      A                      A                      A
 Frequencies --    873.0197               919.2281               934.4896
 Red. masses --      3.3569                 2.2232                 2.0606
 Frc consts  --      1.5074                 1.1068                 1.0602
 IR Inten    --      2.8428                22.5156                 2.9811

                     19                     20                     21
                      A                      A                      A
 Frequencies --    945.4568              1007.5428              1019.4484
 Red. masses --      3.2172                 3.4589                 1.6138
 Frc consts  --      1.6944                 2.0688                 0.9882
 IR Inten    --     21.7328                16.6554                23.0075

                     22                     23                     24
                      A                      A                      A
 Frequencies --   1031.9293              1057.1572              1074.6550
 Red. masses --      2.0344                 1.4632                 1.6407
 Frc consts  --      1.2764                 0.9635                 1.1164
 IR Inten    --     12.7117                 1.1652                 1.5318

                     25                     26                     27
                      A                      A                      A
 Frequencies --   1086.1928              1136.9091              1144.1791
 Red. masses --      1.7586                 1.9794                 1.6069
 Frc consts  --      1.2225                 1.5074                 1.2394
 IR Inten    --      8.3629                14.4855                 2.1317

                     28                     29                     30
                      A                      A                      A
 Frequencies --   1176.3186              1216.3361              1222.1314
 Red. masses --      1.6262                 1.4035                 1.9337
 Frc consts  --      1.3258                 1.2234                 1.7017
 IR Inten    --      3.4250                14.1827                 5.2060

                     31                     32                     33
                      A                      A                      A
 Frequencies --   1245.1005              1262.0967              1269.6528
 Red. masses --      1.6289                 1.7297                 1.9427
 Frc consts  --      1.4878                 1.6233                 1.8452
 IR Inten    --     10.2216                 9.9297                80.9209

                     34                     35                     36
                      A                      A                      A
 Frequencies --   1304.2071              1344.4470              1358.6163
 Red. masses --      1.7474                 1.9038                 1.5094
 Frc consts  --      1.7512                 2.0275                 1.6415
 IR Inten    --     58.8315                37.6369                 3.1268

                     37                     38                     39
                      A                      A                      A
 Frequencies --   1403.1441              1416.8607              1482.5043
 Red. masses --      1.8226                 1.3022                 1.1198
 Frc consts  --      2.1141                 1.5402                 1.4500
 IR Inten    --      0.3437                 2.9702                 2.1420

                     40                     41                     42
                      A                      A                      A
 Frequencies --   1494.4189              1499.9689              3036.2980
 Red. masses --      1.0518                 1.0656                 1.0545
 Frc consts  --      1.3839                 1.4126                 5.7278
 IR Inten    --      3.6338                 6.4998                27.3022

                     43                     44                     45
                      A                      A                      A
 Frequencies --   3037.6726              3060.0181              3102.0836
 Red. masses --      1.0644                 1.0580                 1.1009
 Frc consts  --      5.7865                 5.8371                 6.2419
 IR Inten    --     25.2654                28.7108                23.1280

                     46                     47                     48
                      A                      A                      A
 Frequencies --   3111.8537              3116.3864              3127.3541
 Red. masses --      1.1010                 1.1074                 1.0914
 Frc consts  --      6.2816                 6.3366                 6.2889
 IR Inten    --     19.5144                23.8278                29.4917

                     49                     50                     51
                      A                      A                      A
 Frequencies --   3137.0141              3147.3700              3806.2812
 Red. masses --      1.0886                 1.0956                 1.0658
 Frc consts  --      6.3115                 6.3943                 9.0978
 IR Inten    --     48.2054                22.5945                23.1248

 - Thermochemistry -
 -------------------
 Temperature   298.150 Kelvin.  Pressure   1.00000 Atm.
 Atom     1 has atomic number  6 and mass  12.00000

 Molecular mass:   126.06808 amu.
 Principal axes and moments of inertia in atomic units:
                           1         2         3
     Eigenvalues --   669.576421014.370171248.68974
           X            0.99686  -0.07406  -0.02815
           Y            0.07448   0.99712   0.01411
           Z            0.02703  -0.01616   0.99950
 This molecule is an asymmetric top.
 Rotational symmetry number  1.
 Warning -- assumption of classical behavior for rotation
           may cause significant error
 Rotational temperatures (Kelvin)      0.12936     0.08539     0.06936
 Rotational constants (GHZ):           2.69535     1.77917     1.44531
 Zero-point vibrational energy     420029.1 (Joules/Mol)
                                  100.38936 (Kcal/Mol)
 Warning -- explicit consideration of   9 degrees of freedom as
           vibrations may cause significant error
 Vibrational temperatures:    287.58   299.48   312.63   368.99   441.47
          (Kelvin)            543.48   663.67   720.56   784.40   928.46
                              972.85  1054.96  1164.81  1190.97  1222.02
                             1256.08  1322.56  1344.52  1360.30  1449.63
                             1466.76  1484.71  1521.01  1546.19  1562.79
                             1635.76  1646.22  1692.46  1750.03  1758.37
                             1791.42  1815.87  1826.74  1876.46  1934.36
                             1954.74  2018.81  2038.54  2132.99  2150.13
                             2158.12  4368.55  4370.53  4402.68  4463.20
                             4477.26  4483.78  4499.56  4513.46  4528.36
                             5476.38

 Zero-point correction=                           0.159981 (Hartree/Particle)
 Thermal correction to Energy=                    0.167498
 Thermal correction to Enthalpy=                  0.168442
 Thermal correction to Gibbs Free Energy=         0.128580
 Sum of electronic and zero-point Energies=           -422.983023
 Sum of electronic and thermal Energies=              -422.975506
 Sum of electronic and thermal Enthalpies=            -422.974561
 Sum of electronic and thermal Free Energies=         -423.014424

                     E (Thermal)             CV                S
                      KCal/Mol        Cal/Mol-Kelvin    Cal/Mol-Kelvin
 Total                  105.106             30.834             83.897
 Electronic               0.000              0.000              0.000
 Translational            0.889              2.981             40.409
 Rotational               0.889              2.981             28.230
 Vibrational            103.329             24.872             15.259
 Vibration     1          0.638              1.840              2.134
 Vibration     2          0.641              1.828              2.060
 Vibration     3          0.646              1.815              1.982
 Vibration     4          0.666              1.752              1.686
 Vibration     5          0.697              1.661              1.379
 Vibration     6          0.748              1.518              1.048
 Vibration     7          0.819              1.336              0.762
 Vibration     8          0.856              1.248              0.656
 Vibration     9          0.900              1.150              0.554

 Optimization completed.
    -- Stationary point found.
 Normal termination of Gaussian 09 at Mon Jan 27 22:58:42 2020.
