 Gaussian 09, Revision D.01,
 Gaussian 09:  ES64L-G09RevD.01 24-Apr-2013

 -----------------------------
 # b3lyp 6-31G(2df,p) opt Freq
 -----------------------------

 -----
 titel
 -----
 Symbolic Z-matrix:
 Charge =  0 Multiplicity = 1

 SCF Done:  E(RB3LYP) =  -423.240964366     A.U. after   14 cycles
 Optimization completed.
    -- Stationary point found.
 Normal termination of Gaussian 09 at Tue Jan 28 08:13:18 2020.

 ----------------------------------------------------------------------
 #N Geom=AllCheck Guess=TCheck SCRF=Check GenChk RB3LYP/6-31G(2df,p) Fr
 eq
 ----------------------------------------------------------------------

 Structure from the checkpoint file:  "/scratch/puck/g09_c31567fa-694e-4fdd-9cb5-a0fcfe6ecc1a/Gau-92065.chk"
 -----
 titel
 -----
 Charge =  0 Multiplicity = 1

                         Standard orientation:
 ---------------------------------------------------------------------
 Center     Atomic      Atomic             Coordinates (Angstroms)
 Number     Number       Type             X           Y           Z
 ---------------------------------------------------------------------
      1          6           0        3.231995   -0.513386    0.051424
      2          8           0        1.821324   -0.749391    0.041361
      3          6           0        1.054329    0.363862   -0.016108
      4          8           0        1.513344    1.483089   -0.054892
      5          6           0       -0.387820    0.061676   -0.025036
      6          6           0       -0.955758   -1.149843   -0.034649
      7          6           0       -2.458064   -1.068241   -0.096228
      8          6           0       -2.746228    0.427237    0.204004
      9          6           0       -1.416161    1.170894   -0.080500
     10          1           0        3.518854    0.087691    0.918449
     11          1           0        3.697909   -1.497965    0.099518
     12          1           0        3.544011    0.013034   -0.854578
     13          1           0       -0.407316   -2.083955   -0.035483
     14          1           0       -2.808538   -1.364933   -1.095666
     15          1           0       -2.948801   -1.748396    0.608981
     16          1           0       -3.583330    0.820005   -0.377614
     17          1           0       -3.007714    0.538872    1.260859
     18          1           0       -1.409137    1.644072   -1.071082
     19          1           0       -1.207047    1.968800    0.637423
 ---------------------------------------------------------------------

 SCF Done:  E(RB3LYP) =  -423.240964366     A.U. after    1 cycles

 The electronic state is 1-A.
 Alpha  occ. eigenvalues --  -19.17587 -19.11736 -10.29733 -10.23285 -10.19525
 Alpha  occ. eigenvalues --  -10.19095 -10.19075 -10.18476 -10.18281  -1.09337
 Alpha  occ. eigenvalues --   -1.00450  -0.85032  -0.74862  -0.71128  -0.69980
 Alpha  occ. eigenvalues --   -0.59636  -0.57730  -0.53599  -0.51339  -0.47829
 Alpha  occ. eigenvalues --   -0.46697  -0.45924  -0.43439  -0.40427  -0.39570
 Alpha  occ. eigenvalues --   -0.38804  -0.36002  -0.35513  -0.34576  -0.34456
 Alpha  occ. eigenvalues --   -0.34264  -0.29472  -0.26558  -0.25001
 Alpha virt. eigenvalues --   -0.03297   0.09021   0.09273   0.11552   0.12412
 Alpha virt. eigenvalues --    0.12931   0.14577   0.15347   0.15898   0.16253
 Alpha virt. eigenvalues --    0.17605   0.18698   0.19196   0.20289   0.23217

 Mulliken charges:
               1
     1  C   -0.239657
     2  O   -0.238404
     3  C    0.371530
     4  O   -0.377679
     5  C    0.212983
     6  C   -0.152503
     7  C   -0.253559
     8  C   -0.216667
     9  C   -0.297432
    10  H    0.138811
    11  H    0.129225
    12  H    0.138670
    13  H    0.112558
    14  H    0.115738
    15  H    0.110560
    16  H    0.101878
    17  H    0.109206
    18  H    0.114686
    19  H    0.120057
 Sum of Mulliken charges =   0.00000

 Dipole moment (field-independent basis, Debye):
    X=             -0.7623    Y=             -1.9256    Z=              0.0130  Tot=              2.0711
 Quadrupole moment (field-independent basis, Debye-Ang):
   XX=            -46.0356   YY=            -55.8922   ZZ=            -52.2545
   XY=             -3.4270   XZ=              0.3871   YZ=              0.2410

  Exact polarizability: 103.245   6.034  83.457   0.667  -0.191  54.967
 Approx polarizability: 125.920  19.812 142.401   1.237  -0.891  84.739

                      1                      2                      3
                      A                      A                      A
 Frequencies --     62.9804                97.6730               124.3825
 Red. masses --      3.4630                 2.1607                 1.2599
 Frc consts  --      0.0081                 0.0121                 0.0115
 IR Inten    --      0.7596                 0.8385                 0.1269

                      4                      5                      6
                      A                      A                      A
 Frequencies --    144.8162               151.8723               220.7831
 Red. masses --      1.9000                 3.7394                 2.9288
 Frc consts  --      0.0235                 0.0508                 0.0841
 IR Inten    --      2.1165                 1.5664                 1.1769

                      7                      8                      9
                      A                      A                      A
 Frequencies --    316.2339               373.5433               428.1891
 Red. masses --      4.4201                 4.5301                 2.5049
 Frc consts  --      0.2604                 0.3724                 0.2706
 IR Inten    --     19.1979                 0.0609                 0.0793

                     10                     11                     12
                      A                      A                      A
 Frequencies --    495.4273               632.6281               755.0500
 Red. masses --      6.4660                 1.8205                 3.5043
 Frc consts  --      0.9351                 0.4293                 1.1771
 IR Inten    --      1.6709                 5.1170                21.9144

                     13                     14                     15
                      A                      A                      A
 Frequencies --    778.2130               818.3023               859.3480
 Red. masses --      5.2977                 2.0535                 1.6187
 Frc consts  --      1.8903                 0.8102                 0.7043
 IR Inten    --      6.5833                 0.1802                 1.9013

                     16                     17                     18
                      A                      A                      A
 Frequencies --    883.2165               915.2066               923.6747
 Red. masses --      3.4859                 2.4717                 1.6218
 Frc consts  --      1.6022                 1.2198                 0.8152
 IR Inten    --      3.7283                 2.0241                 2.2928

                     19                     20                     21
                      A                      A                      A
 Frequencies --    957.3851               987.4349              1036.3058
 Red. masses --      2.1429                 3.5900                 2.1745
 Frc consts  --      1.1573                 2.0623                 1.3759
 IR Inten    --     13.3849                 0.8701                 8.4718

                     22                     23                     24
                      A                      A                      A
 Frequencies --   1069.0411              1117.3883              1151.5698
 Red. masses --      1.7229                 3.4059                 1.2413
 Frc consts  --      1.1601                 2.5054                 0.9699
 IR Inten    --      3.4864               108.7302                 3.5116

                     25                     26                     27
                      A                      A                      A
 Frequencies --   1179.0934              1209.9069              1217.7254
 Red. masses --      1.2810                 1.4700                 1.7611
 Frc consts  --      1.0493                 1.2679                 1.5387
 IR Inten    --      1.0925                 3.5469               144.3187

                     28                     29                     30
                      A                      A                      A
 Frequencies --   1225.8054              1269.3749              1293.9503
 Red. masses --      1.2447                 1.4366                 1.6288
 Frc consts  --      1.1020                 1.3638                 1.6068
 IR Inten    --      0.9377                23.0542               134.7730

                     31                     32                     33
                      A                      A                      A
 Frequencies --   1327.8563              1330.4668              1375.7199
 Red. masses --      1.6594                 1.5093                 2.7013
 Frc consts  --      1.7239                 1.5741                 3.0121
 IR Inten    --     21.3288                45.2005                65.3463

                     34                     35                     36
                      A                      A                      A
 Frequencies --   1473.9391              1477.6578              1480.6705
 Red. masses --      1.2157                 1.0853                 1.0486
 Frc consts  --      1.5560                 1.3962                 1.3545
 IR Inten    --     20.6425                 4.4308                 5.8336

                     37                     38                     39
                      A                      A                      A
 Frequencies --   1486.8079              1498.6802              1505.4379
 Red. masses --      1.0820                 1.0631                 1.1023
 Frc consts  --      1.4092                 1.4069                 1.4719
 IR Inten    --      1.4959                 6.1635                 1.4057

                     40                     41                     42
                      A                      A                      A
 Frequencies --   1689.0281              1789.0566              3004.7627
 Red. masses --      7.2929                11.8907                 1.0699
 Frc consts  --     12.2582                22.4236                 5.6914
 IR Inten    --     29.2571               246.3217                29.6534

                     43                     44                     45
                      A                      A                      A
 Frequencies --   3026.8216              3048.0842              3049.8144
 Red. masses --      1.0704                 1.0299                 1.0773
 Frc consts  --      5.7782                 5.6377                 5.9040
 IR Inten    --     23.7018                36.5100                10.3674

                     46                     47                     48
                      A                      A                      A
 Frequencies --   3062.7880              3085.7534              3107.5929
 Red. masses --      1.0782                 1.0897                 1.1032
 Frc consts  --      5.9593                 6.1132                 6.2769
 IR Inten    --     40.5894                17.6814                34.5618

                     49                     50                     51
                      A                      A                      A
 Frequencies --   3120.3729              3154.2683              3214.3462
 Red. masses --      1.1053                 1.1056                 1.0939
 Frc consts  --      6.3406                 6.4813                 6.6591
 IR Inten    --     20.8485                16.5365                 4.1549

 - Thermochemistry -
 -------------------
 Temperature   298.150 Kelvin.  Pressure   1.00000 Atm.
 Atom     1 has atomic number  6 and mass  12.00000

 Molecular mass:   126.06808 amu.
 Principal axes and moments of inertia in atomic units:
                           1         2         3
     Eigenvalues --   441.418441845.326712234.51891
           X            0.99993  -0.01145   0.00030
           Y            0.01145   0.99993   0.00260
           Z           -0.00033  -0.00260   1.00000
 This molecule is an asymmetric top.
 Rotational symmetry number  1.
 Warning -- assumption of classical behavior for rotation
           may cause significant error
 Rotational temperatures (Kelvin)      0.19622     0.04694     0.03876
 Rotational constants (GHZ):           4.08850     0.97801     0.80766
 Zero-point vibrational energy     418731.5 (Joules/Mol)
                                  100.07924 (Kcal/Mol)
 Warning -- explicit consideration of  10 degrees of freedom as
           vibrations may cause significant error
 Vibrational temperatures:     90.61   140.53   178.96   208.36   218.51
          (Kelvin)            317.66   454.99   537.44   616.07   712.81
                              910.21  1086.35  1119.67  1177.35  1236.41
                             1270.75  1316.78  1328.96  1377.46  1420.70
                             1491.01  1538.11  1607.67  1656.85  1696.45
                             1740.78  1752.03  1763.66  1826.35  1861.70
                             1910.49  1914.24  1979.35  2120.67  2126.02
                             2130.35  2139.18  2156.26  2165.99  2430.13
                             2574.05  4323.18  4354.92  4385.51  4388.00
                             4406.66  4439.71  4471.13  4489.52  4538.28
                             4624.72

 Zero-point correction=                           0.159486 (Hartree/Particle)
 Thermal correction to Energy=                    0.168575
 Thermal correction to Enthalpy=                  0.169519
 Thermal correction to Gibbs Free Energy=         0.124841
 Sum of electronic and zero-point Energies=           -423.081478
 Sum of electronic and thermal Energies=              -423.072389
 Sum of electronic and thermal Enthalpies=            -423.071445
 Sum of electronic and thermal Free Energies=         -423.116124

                     E (Thermal)             CV                S
                      KCal/Mol        Cal/Mol-Kelvin    Cal/Mol-Kelvin
 Total                  105.783             32.301             94.035
 Electronic               0.000              0.000              0.000
 Translational            0.889              2.981             40.409
 Rotational               0.889              2.981             28.989
 Vibrational            104.005             26.339             24.637
 Vibration     1          0.597              1.972              4.362
 Vibration     2          0.603              1.951              3.500
 Vibration     3          0.610              1.929              3.031
 Vibration     4          0.616              1.908              2.739
 Vibration     5          0.619              1.901              2.649
 Vibration     6          0.647              1.809              1.953
 Vibration     7          0.703              1.643              1.330
 Vibration     8          0.745              1.526              1.065
 Vibration     9          0.790              1.409              0.865
 Vibration    10          0.851              1.260              0.670

 Optimization completed.
    -- Stationary point found.
 Normal termination of Gaussian 09 at Tue Jan 28 08:51:16 2020.
