 Gaussian 09, Revision D.01,
 Gaussian 09:  ES64L-G09RevD.01 24-Apr-2013

 -----------------------------
 # b3lyp 6-31G(2df,p) opt Freq
 -----------------------------

 -----
 titel
 -----
 Symbolic Z-matrix:
 Charge =  0 Multiplicity = 1

 SCF Done:  E(RB3LYP) =  -423.205191123     A.U. after   14 cycles
 Optimization completed.
    -- Stationary point found.
 Normal termination of Gaussian 09 at Mon Jan 27 22:03:29 2020.

 ----------------------------------------------------------------------
 #N Geom=AllCheck Guess=TCheck SCRF=Check GenChk RB3LYP/6-31G(2df,p) Fr
 eq
 ----------------------------------------------------------------------

 Structure from the checkpoint file:  "/scratch/puck/g09_d3500af7-c22c-4371-9d25-c7076c9b201c/Gau-72794.chk"
 -----
 titel
 -----
 Charge =  0 Multiplicity = 1

                         Standard orientation:
 ---------------------------------------------------------------------
 Center     Atomic      Atomic             Coordinates (Angstroms)
 Number     Number       Type             X           Y           Z
 ---------------------------------------------------------------------
      1          6           0        2.001773   -1.818961   -0.234440
      2          6           0        1.368679   -0.477655   -0.531797
      3          6           0        1.310148    0.632221    0.519838
      4          6           0        1.546677    2.076860    0.136414
      5          6           0        0.072406   -0.078775    0.086272
      6          6           0       -0.981318   -0.861558    0.853914
      7          6           0       -1.952284   -0.067972   -0.026743
      8          8           0       -3.124644    0.032913   -0.186910
      9          8           0       -0.952461    0.602975   -0.692082
     10          1           0        1.616312   -2.599326   -0.899571
     11          1           0        3.088555   -1.777265   -0.362577
     12          1           0        1.802759   -2.131719    0.796021
     13          1           0        1.500219   -0.118315   -1.550356
     14          1           0        1.673910    0.351073    1.507112
     15          1           0        1.093571    2.303304   -0.832318
     16          1           0        1.106010    2.757239    0.872601
     17          1           0        2.617731    2.295218    0.074427
     18          1           0       -1.009109   -1.939896    0.684109
     19          1           0       -1.069613   -0.652377    1.921753
 ---------------------------------------------------------------------

 SCF Done:  E(RB3LYP) =  -423.205191123     A.U. after    1 cycles

 The electronic state is 1-A.
 Alpha  occ. eigenvalues --  -19.18068 -19.13362 -10.30943 -10.25757 -10.21219
 Alpha  occ. eigenvalues --  -10.20378 -10.20344 -10.19249 -10.18577  -1.10619
 Alpha  occ. eigenvalues --   -1.03321  -0.87698  -0.76488  -0.74011  -0.69864
 Alpha  occ. eigenvalues --   -0.59304  -0.57837  -0.53856  -0.50744  -0.49082
 Alpha  occ. eigenvalues --   -0.48048  -0.44504  -0.43744  -0.41495  -0.41250
 Alpha  occ. eigenvalues --   -0.40102  -0.39282  -0.38963  -0.36300  -0.34949
 Alpha  occ. eigenvalues --   -0.34516  -0.28655  -0.27432  -0.26493
 Alpha virt. eigenvalues --    0.01187   0.07700   0.08387   0.11021   0.11164
 Alpha virt. eigenvalues --    0.11609   0.13492   0.14688   0.15114   0.16178
 Alpha virt. eigenvalues --    0.16755   0.17568   0.18069   0.20719   0.21992

 Mulliken charges:
               1
     1  C   -0.415919
     2  C   -0.099236
     3  C   -0.101781
     4  C   -0.411555
     5  C    0.434183
     6  C   -0.504501
     7  C    0.437452
     8  O   -0.314394
     9  O   -0.259881
    10  H    0.125440
    11  H    0.126694
    12  H    0.117391
    13  H    0.103641
    14  H    0.089718
    15  H    0.136499
    16  H    0.124430
    17  H    0.120683
    18  H    0.146080
    19  H    0.145055
 Sum of Mulliken charges =   0.00000

 Dipole moment (field-independent basis, Debye):
    X=              3.6857    Y=             -1.2284    Z=              1.4502  Tot=              4.1468
 Quadrupole moment (field-independent basis, Debye-Ang):
   XX=            -63.8759   YY=            -51.2813   ZZ=            -51.5972
   XY=              1.6029   XZ=             -2.5050   YZ=              0.6036

  Exact polarizability:  91.490   0.698  75.939  -0.960  -0.144  63.802
 Approx polarizability: 128.129   0.794 102.253   0.206  -1.373  99.683

                      1                      2                      3
                      A                      A                      A
 Frequencies --     87.9875               159.4906               175.7306
 Red. masses --      5.2363                 2.4838                 2.4701
 Frc consts  --      0.0239                 0.0372                 0.0449
 IR Inten    --      2.1289                 2.0354                 1.4465

                      4                      5                      6
                      A                      A                      A
 Frequencies --    186.1485               197.8613               219.3422
 Red. masses --      1.1769                 1.3280                 2.0562
 Frc consts  --      0.0240                 0.0306                 0.0583
 IR Inten    --      0.4360                 0.1498                 1.1731

                      7                      8                      9
                      A                      A                      A
 Frequencies --    262.0763               351.9027               451.9933
 Red. masses --      2.5101                 3.5418                 3.1267
 Frc consts  --      0.1016                 0.2584                 0.3764
 IR Inten    --      0.1456                 0.2984                 0.9586

                     10                     11                     12
                      A                      A                      A
 Frequencies --    494.1489               525.2750               543.3178
 Red. masses --      4.5713                 2.3079                 3.7749
 Frc consts  --      0.6577                 0.3752                 0.6565
 IR Inten    --      2.3723                 3.7118                 1.1730

                     13                     14                     15
                      A                      A                      A
 Frequencies --    578.8613               792.0481               804.2675
 Red. masses --      3.2846                 3.0589                 3.1642
 Frc consts  --      0.6485                 1.1306                 1.2059
 IR Inten    --      2.7573                 7.4294                10.6342

                     16                     17                     18
                      A                      A                      A
 Frequencies --    825.5279               894.8016               956.9500
 Red. masses --      2.4709                 2.3083                 2.1885
 Frc consts  --      0.9921                 1.0889                 1.1808
 IR Inten    --      5.1018                40.4165                 2.3785

                     19                     20                     21
                      A                      A                      A
 Frequencies --    981.3444              1004.9002              1009.5169
 Red. masses --      1.6467                 1.7599                 1.8899
 Frc consts  --      0.9344                 1.0471                 1.1348
 IR Inten    --     55.5864                14.4633                37.6471

                     22                     23                     24
                      A                      A                      A
 Frequencies --   1071.3572              1087.8378              1101.4096
 Red. masses --      1.8056                 1.8750                 2.5563
 Frc consts  --      1.2211                 1.3073                 1.8271
 IR Inten    --     31.5820                19.0325                48.6222

                     25                     26                     27
                      A                      A                      A
 Frequencies --   1127.2100              1138.2790              1174.8849
 Red. masses --      1.8214                 1.6669                 2.1063
 Frc consts  --      1.3636                 1.2725                 1.7131
 IR Inten    --      0.0597                14.7101                 6.5445

                     28                     29                     30
                      A                      A                      A
 Frequencies --   1180.5091              1204.7086              1239.4256
 Red. masses --      1.8747                 1.4804                 3.0247
 Frc consts  --      1.5393                 1.2659                 2.7376
 IR Inten    --      0.5031                 1.1840                54.3001

                     31                     32                     33
                      A                      A                      A
 Frequencies --   1307.9579              1345.1985              1417.8864
 Red. masses --      1.6401                 1.4997                 1.2500
 Frc consts  --      1.6531                 1.5989                 1.4806
 IR Inten    --     27.7289                 2.6329                 1.3730

                     34                     35                     36
                      A                      A                      A
 Frequencies --   1421.0625              1451.7242              1484.3936
 Red. masses --      1.2357                 1.1615                 1.6100
 Frc consts  --      1.4702                 1.4422                 2.0901
 IR Inten    --      0.9000                 8.3955                 6.7415

                     37                     38                     39
                      A                      A                      A
 Frequencies --   1491.9544              1492.8303              1501.6352
 Red. masses --      1.0548                 1.0458                 1.0427
 Frc consts  --      1.3833                 1.3731                 1.3853
 IR Inten    --      3.2454                 5.5642                 9.6040

                     40                     41                     42
                      A                      A                      A
 Frequencies --   1516.7352              1944.1537              3029.5236
 Red. masses --      1.7024                12.9155                 1.0351
 Frc consts  --      2.3075                28.7623                 5.5974
 IR Inten    --     18.9619               513.7177                29.8725

                     43                     44                     45
                      A                      A                      A
 Frequencies --   3037.1004              3082.2492              3094.6797
 Red. masses --      1.0359                 1.0592                 1.1013
 Frc consts  --      5.6298                 5.9290                 6.2140
 IR Inten    --     28.9217                 6.4351                19.4138

                     46                     47                     48
                      A                      A                      A
 Frequencies --   3096.9877              3098.2488              3111.4122
 Red. masses --      1.1002                 1.1015                 1.0921
 Frc consts  --      6.2170                 6.2298                 6.2291
 IR Inten    --     15.3452                26.4621                 2.4739

                     49                     50                     51
                      A                      A                      A
 Frequencies --   3126.1185              3137.5458              3139.8605
 Red. masses --      1.0954                 1.1069                 1.0875
 Frc consts  --      6.3070                 6.4200                 6.3167
 IR Inten    --     14.8318                 3.6165                19.7625

 - Thermochemistry -
 -------------------
 Temperature   298.150 Kelvin.  Pressure   1.00000 Atm.
 Atom     1 has atomic number  6 and mass  12.00000

 Molecular mass:   126.06808 amu.
 Principal axes and moments of inertia in atomic units:
                           1         2         3
     Eigenvalues --   669.856831483.252841892.54668
           X            0.99995   0.00418  -0.00932
           Y           -0.00417   0.99999   0.00035
           Z            0.00932  -0.00031   0.99996
 This molecule is an asymmetric top.
 Rotational symmetry number  1.
 Warning -- assumption of classical behavior for rotation
           may cause significant error
 Rotational temperatures (Kelvin)      0.12930     0.05839     0.04577
 Rotational constants (GHZ):           2.69422     1.21675     0.95360
 Zero-point vibrational energy     413658.9 (Joules/Mol)
                                   98.86686 (Kcal/Mol)
 Warning -- explicit consideration of  13 degrees of freedom as
           vibrations may cause significant error
 Vibrational temperatures:    126.59   229.47   252.84   267.83   284.68
          (Kelvin)            315.58   377.07   506.31   650.32   710.97
                              755.75   781.71   832.85  1139.58  1157.16
                             1187.75  1287.42  1376.84  1411.93  1445.83
                             1452.47  1541.44  1565.15  1584.68  1621.80
                             1637.73  1690.40  1698.49  1733.30  1783.25
                             1881.86  1935.44  2040.02  2044.59  2088.70
                             2135.71  2146.59  2147.85  2160.52  2182.24
                             2797.20  4358.80  4369.70  4434.66  4452.55
                             4455.87  4457.68  4476.62  4497.78  4514.22
                             4517.55

 Zero-point correction=                           0.157554 (Hartree/Particle)
 Thermal correction to Energy=                    0.166636
 Thermal correction to Enthalpy=                  0.167580
 Thermal correction to Gibbs Free Energy=         0.123806
 Sum of electronic and zero-point Energies=           -423.047637
 Sum of electronic and thermal Energies=              -423.038555
 Sum of electronic and thermal Enthalpies=            -423.037611
 Sum of electronic and thermal Free Energies=         -423.081386

                     E (Thermal)             CV                S
                      KCal/Mol        Cal/Mol-Kelvin    Cal/Mol-Kelvin
 Total                  104.565             33.699             92.131
 Electronic               0.000              0.000              0.000
 Translational            0.889              2.981             40.409
 Rotational               0.889              2.981             29.021
 Vibrational            102.788             27.737             22.701
 Vibration     1          0.601              1.958              3.704
 Vibration     2          0.621              1.892              2.556
 Vibration     3          0.628              1.872              2.373
 Vibration     4          0.632              1.859              2.266
 Vibration     5          0.637              1.843              2.153
 Vibration     6          0.647              1.812              1.965
 Vibration     7          0.669              1.742              1.648
 Vibration     8          0.728              1.571              1.158
 Vibration     9          0.811              1.356              0.790
 Vibration    10          0.850              1.263              0.673
 Vibration    11          0.880              1.194              0.598
 Vibration    12          0.898              1.154              0.558
 Vibration    13          0.935              1.077              0.487

 Optimization completed.
    -- Stationary point found.
 Normal termination of Gaussian 09 at Mon Jan 27 22:45:07 2020.
