 Gaussian 09, Revision D.01,
 Gaussian 09:  ES64L-G09RevD.01 24-Apr-2013

 -----------------------------
 # b3lyp 6-31G(2df,p) opt Freq
 -----------------------------

 -----
 titel
 -----
 Symbolic Z-matrix:
 Charge =  0 Multiplicity = 1

 SCF Done:  E(RB3LYP) =  -423.166480063     A.U. after   14 cycles
 Optimization completed.
    -- Stationary point found.
 Normal termination of Gaussian 09 at Mon Jan 27 18:51:10 2020.

 ----------------------------------------------------------------------
 #N Geom=AllCheck Guess=TCheck SCRF=Check GenChk RB3LYP/6-31G(2df,p) Fr
 eq
 ----------------------------------------------------------------------

 Structure from the checkpoint file:  "/scratch/puck/g09_2148268e-7d3c-4577-bfb8-2e14e88a970c/Gau-172656.chk"
 -----
 titel
 -----
 Charge =  0 Multiplicity = 1

                         Standard orientation:
 ---------------------------------------------------------------------
 Center     Atomic      Atomic             Coordinates (Angstroms)
 Number     Number       Type             X           Y           Z
 ---------------------------------------------------------------------
      1          6           0       -1.889097   -1.462801    0.012021
      2          6           0       -0.830590   -0.393793   -0.001998
      3          8           0       -0.682360    0.237793   -1.293456
      4          6           0       -0.716389    1.562781   -0.701293
      5          6           0       -0.865790    0.986978    0.719924
      6          6           0        0.471572    0.668867    1.433129
      7          6           0        0.570923   -0.678244    0.667025
      8          6           0        1.688818   -0.814792   -0.333607
      9          8           0        2.572444   -0.010073   -0.487560
     10          1           0       -2.022286   -1.868470    1.019928
     11          1           0       -2.845553   -1.060769   -0.335009
     12          1           0       -1.607427   -2.286834   -0.653522
     13          1           0        0.204050    2.124681   -0.897364
     14          1           0       -1.576734    2.133421   -1.069923
     15          1           0       -1.706639    1.334289    1.319518
     16          1           0        1.295575    1.357976    1.237009
     17          1           0        0.363425    0.540173    2.511854
     18          1           0        0.557155   -1.573275    1.299582
     19          1           0        1.641083   -1.736934   -0.955152
 ---------------------------------------------------------------------

 SCF Done:  E(RB3LYP) =  -423.166480063     A.U. after    1 cycles

 The electronic state is 1-A.
 Alpha  occ. eigenvalues --  -19.13747 -19.13624 -10.26749 -10.24982 -10.23248
 Alpha  occ. eigenvalues --  -10.19627 -10.19563 -10.18853 -10.18726  -1.04764
 Alpha  occ. eigenvalues --   -1.03952  -0.83667  -0.75307  -0.72102  -0.65665
 Alpha  occ. eigenvalues --   -0.62940  -0.56889  -0.51789  -0.49864  -0.49387
 Alpha  occ. eigenvalues --   -0.47326  -0.45076  -0.42462  -0.42212  -0.41630
 Alpha  occ. eigenvalues --   -0.39401  -0.39016  -0.37487  -0.34018  -0.33804
 Alpha  occ. eigenvalues --   -0.30734  -0.29075  -0.25370  -0.24315
 Alpha virt. eigenvalues --   -0.01726   0.06640   0.08849   0.09896   0.11796
 Alpha virt. eigenvalues --    0.12658   0.13825   0.14460   0.14845   0.15467
 Alpha virt. eigenvalues --    0.17194   0.17486   0.19598   0.19958   0.22504

 Mulliken charges:
               1
     1  C   -0.482318
     2  C    0.444037
     3  O   -0.320087
     4  C   -0.091787
     5  C   -0.126097
     6  C   -0.255652
     7  C   -0.163474
     8  C    0.166797
     9  O   -0.251326
    10  H    0.120312
    11  H    0.128610
    12  H    0.131724
    13  H    0.117217
    14  H    0.105491
    15  H    0.077490
    16  H    0.126156
    17  H    0.105142
    18  H    0.089447
    19  H    0.078319
 Sum of Mulliken charges =   0.00000

 Dipole moment (field-independent basis, Debye):
    X=             -2.4558    Y=             -0.7507    Z=              2.0761  Tot=              3.3022
 Quadrupole moment (field-independent basis, Debye-Ang):
   XX=            -59.1268   YY=            -48.4712   ZZ=            -54.7743
   XY=             -2.2840   XZ=              0.6134   YZ=             -0.4294

  Exact polarizability:  79.073   1.755  78.093  -0.958   0.297  68.073
 Approx polarizability: 112.829   6.857 114.015  -2.914  -0.389 102.395

                      1                      2                      3
                      A                      A                      A
 Frequencies --     56.9196               104.7599               194.0182
 Red. masses --      4.0782                 3.8190                 2.3665
 Frc consts  --      0.0078                 0.0247                 0.0525
 IR Inten    --      2.0800                 3.1538                 3.9166

                      4                      5                      6
                      A                      A                      A
 Frequencies --    207.5779               217.9861               279.9136
 Red. masses --      2.7554                 1.1816                 2.9868
 Frc consts  --      0.0700                 0.0331                 0.1379
 IR Inten    --      2.5526                 0.9852                 6.8161

                      7                      8                      9
                      A                      A                      A
 Frequencies --    322.2213               382.0813               476.0233
 Red. masses --      2.7508                 2.1261                 3.3826
 Frc consts  --      0.1683                 0.1829                 0.4516
 IR Inten    --      0.5783                 0.5728                 1.9611

                     10                     11                     12
                      A                      A                      A
 Frequencies --    593.1039               653.5440               675.4922
 Red. masses --      3.7564                 3.0598                 2.9382
 Frc consts  --      0.7785                 0.7700                 0.7899
 IR Inten    --      8.8004                 1.2264                 4.8664

                     13                     14                     15
                      A                      A                      A
 Frequencies --    800.0291               826.9557               864.6036
 Red. masses --      2.9356                 2.3349                 1.8622
 Frc consts  --      1.1070                 0.9408                 0.8202
 IR Inten    --     11.6787                 1.1571                 7.8535

                     16                     17                     18
                      A                      A                      A
 Frequencies --    887.2359               909.6532               939.1022
 Red. masses --      1.8696                 2.6680                 1.8584
 Frc consts  --      0.8671                 1.3007                 0.9656
 IR Inten    --      5.9219                19.2360                 1.1967

                     19                     20                     21
                      A                      A                      A
 Frequencies --    969.1513              1000.9206              1031.9739
 Red. masses --      1.4199                 8.1040                 1.6999
 Frc consts  --      0.7857                 4.7835                 1.0666
 IR Inten    --      2.4283                85.3094                10.3787

                     22                     23                     24
                      A                      A                      A
 Frequencies --   1047.3784              1098.5686              1120.0526
 Red. masses --      2.0537                 2.3785                 1.7980
 Frc consts  --      1.3274                 1.6912                 1.3290
 IR Inten    --      6.7897                21.8035                 2.6468

                     25                     26                     27
                      A                      A                      A
 Frequencies --   1148.6444              1160.1255              1164.8488
 Red. masses --      1.7775                 1.5413                 1.6348
 Frc consts  --      1.3818                 1.2222                 1.3070
 IR Inten    --      6.6532                 6.7979                13.6530

                     28                     29                     30
                      A                      A                      A
 Frequencies --   1181.3506              1193.6512              1267.8572
 Red. masses --      1.7871                 1.4563                 1.5778
 Frc consts  --      1.4694                 1.2225                 1.4943
 IR Inten    --     12.5563                 3.0254                 2.7473

                     31                     32                     33
                      A                      A                      A
 Frequencies --   1301.0609              1321.9189              1334.8893
 Red. masses --      1.7546                 2.0428                 1.7863
 Frc consts  --      1.7499                 2.1032                 1.8754
 IR Inten    --     10.1595                24.8006                11.6795

                     34                     35                     36
                      A                      A                      A
 Frequencies --   1354.8317              1407.8183              1422.9345
 Red. masses --      1.5257                 1.3559                 1.2166
 Frc consts  --      1.6501                 1.5833                 1.4513
 IR Inten    --      2.7023                11.7460                 8.4513

                     37                     38                     39
                      A                      A                      A
 Frequencies --   1478.6304              1481.4961              1487.6284
 Red. masses --      1.0554                 1.0910                 1.0552
 Frc consts  --      1.3596                 1.4109                 1.3759
 IR Inten    --      2.7964                 5.7893                 2.8497

                     40                     41                     42
                      A                      A                      A
 Frequencies --   1523.0400              1822.4060              2880.2492
 Red. masses --      1.1028                10.3662                 1.0830
 Frc consts  --      1.5072                20.2842                 5.2933
 IR Inten    --      1.1005               143.8200               111.1716

                     43                     44                     45
                      A                      A                      A
 Frequencies --   3022.2641              3031.4968              3047.1783
 Red. masses --      1.0556                 1.0364                 1.0832
 Frc consts  --      5.6808                 5.6114                 5.9261
 IR Inten    --     71.5975                11.3465                19.3937

                     46                     47                     48
                      A                      A                      A
 Frequencies --   3070.2307              3073.7932              3100.3309
 Red. masses --      1.1085                 1.0616                 1.1000
 Frc consts  --      6.1564                 5.9097                 6.2298
 IR Inten    --     18.6711                30.1928                13.2428

                     49                     50                     51
                      A                      A                      A
 Frequencies --   3113.3848              3114.0156              3129.5040
 Red. masses --      1.0921                 1.1012                 1.1060
 Frc consts  --      6.2373                 6.2915                 6.3822
 IR Inten    --     24.8471                22.4981                15.7570

 - Thermochemistry -
 -------------------
 Temperature   298.150 Kelvin.  Pressure   1.00000 Atm.
 Atom     1 has atomic number  6 and mass  12.00000

 Molecular mass:   126.06808 amu.
 Principal axes and moments of inertia in atomic units:
                           1         2         3
     Eigenvalues --   737.345301196.896371293.28818
           X            0.99962   0.02727   0.00464
           Y           -0.02729   0.99961   0.00562
           Z           -0.00449  -0.00574   0.99997
 This molecule is an asymmetric top.
 Rotational symmetry number  1.
 Warning -- assumption of classical behavior for rotation
           may cause significant error
 Rotational temperatures (Kelvin)      0.11747     0.07237     0.06697
 Rotational constants (GHZ):           2.44762     1.50785     1.39547
 Zero-point vibrational energy     414475.2 (Joules/Mol)
                                   99.06195 (Kcal/Mol)
 Warning -- explicit consideration of  10 degrees of freedom as
           vibrations may cause significant error
 Vibrational temperatures:     81.89   150.73   279.15   298.66   313.63
          (Kelvin)            402.73   463.60   549.73   684.89   853.34
                              940.30   971.88  1151.06  1189.80  1243.97
                             1276.53  1308.79  1351.16  1394.39  1440.10
                             1484.78  1506.94  1580.59  1611.50  1652.64
                             1669.16  1675.96  1699.70  1717.40  1824.16
                             1871.93  1901.94  1920.61  1949.30  2025.53
                             2047.28  2127.42  2131.54  2140.36  2191.31
                             2622.03  4144.03  4348.36  4361.64  4384.20
                             4417.37  4422.50  4460.68  4479.46  4480.37
                             4502.65

 Zero-point correction=                           0.157865 (Hartree/Particle)
 Thermal correction to Energy=                    0.166463
 Thermal correction to Enthalpy=                  0.167407
 Thermal correction to Gibbs Free Energy=         0.124303
 Sum of electronic and zero-point Energies=           -423.008615
 Sum of electronic and thermal Energies=              -423.000017
 Sum of electronic and thermal Enthalpies=            -422.999073
 Sum of electronic and thermal Free Energies=         -423.042177

                     E (Thermal)             CV                S
                      KCal/Mol        Cal/Mol-Kelvin    Cal/Mol-Kelvin
 Total                  104.457             32.004             90.720
 Electronic               0.000              0.000              0.000
 Translational            0.889              2.981             40.409
 Rotational               0.889              2.981             28.525
 Vibrational            102.680             26.042             21.787
 Vibration     1          0.596              1.975              4.561
 Vibration     2          0.605              1.945              3.364
 Vibration     3          0.635              1.848              2.189
 Vibration     4          0.641              1.829              2.065
 Vibration     5          0.646              1.814              1.976
 Vibration     6          0.680              1.711              1.534
 Vibration     7          0.707              1.631              1.299
 Vibration     8          0.752              1.508              1.031
 Vibration     9          0.833              1.303              0.721
 Vibration    10          0.951              1.046              0.462

 Optimization completed.
    -- Stationary point found.
 Normal termination of Gaussian 09 at Mon Jan 27 19:35:00 2020.
