 Gaussian 09, Revision D.01,
 Gaussian 09:  ES64L-G09RevD.01 24-Apr-2013

 -----------------------------
 # b3lyp 6-31G(2df,p) opt Freq
 -----------------------------

 -----
 titel
 -----
 Symbolic Z-matrix:
 Charge =  0 Multiplicity = 1

 SCF Done:  E(RB3LYP) =  -423.148150851     A.U. after   13 cycles
 Optimization completed.
    -- Stationary point found.
 Normal termination of Gaussian 09 at Tue Jan 28 13:35:00 2020.

 ----------------------------------------------------------------------
 #N Geom=AllCheck Guess=TCheck SCRF=Check GenChk RB3LYP/6-31G(2df,p) Fr
 eq
 ----------------------------------------------------------------------

 Structure from the checkpoint file:  "/scratch/puck/g09_0827898c-c01a-4d2a-b118-cda10f95502b/Gau-32237.chk"
 -----
 titel
 -----
 Charge =  0 Multiplicity = 1

                         Standard orientation:
 ---------------------------------------------------------------------
 Center     Atomic      Atomic             Coordinates (Angstroms)
 Number     Number       Type             X           Y           Z
 ---------------------------------------------------------------------
      1          6           0        2.902407   -0.130453   -0.229406
      2          8           0        1.718173    0.623691   -0.036415
      3          6           0        0.691238   -0.086443    0.564625
      4          8           0        0.231224   -1.150229   -0.289835
      5          6           0       -1.176918   -1.159805   -0.215435
      6          6           0       -1.961685    0.052528   -0.677620
      7          6           0       -1.055360    1.282630   -0.632432
      8          6           0       -0.538843    0.798104    0.761771
      9          6           0       -1.705637   -0.223397    0.813790
     10          1           0        2.739300   -0.955803   -0.931395
     11          1           0        3.651523    0.552025   -0.636369
     12          1           0        3.271712   -0.541767    0.722185
     13          1           0        1.047602   -0.537070    1.509776
     14          1           0       -1.607254   -2.143175   -0.361450
     15          1           0       -2.885864   -0.048888   -1.236079
     16          1           0       -0.304470    1.398947   -1.417304
     17          1           0       -1.635753    2.202816   -0.536459
     18          1           0       -0.432851    1.540768    1.550013
     19          1           0       -2.370330   -0.454524    1.635322
 ---------------------------------------------------------------------

 SCF Done:  E(RB3LYP) =  -423.148150851     A.U. after    1 cycles

 The electronic state is 1-A.
 Alpha  occ. eigenvalues --  -19.14385 -19.13513 -10.27097 -10.23250 -10.22104
 Alpha  occ. eigenvalues --  -10.19274 -10.19011 -10.18947 -10.18117  -1.06768
 Alpha  occ. eigenvalues --   -1.01243  -0.88196  -0.75730  -0.69307  -0.66624
 Alpha  occ. eigenvalues --   -0.60980  -0.57474  -0.53714  -0.52052  -0.49742
 Alpha  occ. eigenvalues --   -0.47734  -0.46522  -0.42607  -0.41750  -0.40343
 Alpha  occ. eigenvalues --   -0.39852  -0.35715  -0.34284  -0.33092  -0.32511
 Alpha  occ. eigenvalues --   -0.30479  -0.27158  -0.25835  -0.23017
 Alpha virt. eigenvalues --    0.08994   0.10423   0.11298   0.12192   0.13360
 Alpha virt. eigenvalues --    0.14422   0.15555   0.16044   0.16912   0.17295
 Alpha virt. eigenvalues --    0.17654   0.18074   0.19093   0.20041   0.21757

 Mulliken charges:
               1
     1  C   -0.240463
     2  O   -0.236195
     3  C    0.244840
     4  O   -0.291700
     5  C    0.112088
     6  C   -0.100765
     7  C   -0.224872
     8  C   -0.113231
     9  C   -0.131939
    10  H    0.132204
    11  H    0.125853
    12  H    0.105244
    13  H    0.054476
    14  H    0.101123
    15  H    0.081746
    16  H    0.114076
    17  H    0.099498
    18  H    0.079496
    19  H    0.088521
 Sum of Mulliken charges =   0.00000

 Dipole moment (field-independent basis, Debye):
    X=             -0.5717    Y=             -0.0741    Z=              0.9020  Tot=              1.0705
 Quadrupole moment (field-independent basis, Debye-Ang):
   XX=            -47.4892   YY=            -53.8846   ZZ=            -52.3416
   XY=             -0.0554   XZ=              0.0831   YZ=             -0.1593

  Exact polarizability:  87.106   0.988  69.149   1.637  -1.260  67.081
 Approx polarizability: 110.999   0.705 104.316   1.728  -0.470 104.606

                      1                      2                      3
                      A                      A                      A
 Frequencies --    101.6720               130.5343               179.3402
 Red. masses --      3.3086                 2.2763                 1.3861
 Frc consts  --      0.0202                 0.0229                 0.0263
 IR Inten    --      3.7497                 2.1722                 2.7797

                      4                      5                      6
                      A                      A                      A
 Frequencies --    232.4417               347.3446               444.7255
 Red. masses --      2.6611                 2.9806                 3.6696
 Frc consts  --      0.0847                 0.2119                 0.4276
 IR Inten    --      1.0730                 2.0173                 1.1526

                      7                      8                      9
                      A                      A                      A
 Frequencies --    476.2062               548.5859               656.5989
 Red. masses --      3.4984                 4.8317                 3.7408
 Frc consts  --      0.4674                 0.8567                 0.9502
 IR Inten    --      2.9580                 3.3007                 2.5295

                     10                     11                     12
                      A                      A                      A
 Frequencies --    722.5857               750.4164               788.9072
 Red. masses --      4.6602                 2.0944                 2.1306
 Frc consts  --      1.4336                 0.6949                 0.7813
 IR Inten    --      1.1418                 5.7703                15.8148

                     13                     14                     15
                      A                      A                      A
 Frequencies --    814.5179               857.0832               913.5514
 Red. masses --      2.6109                 2.5815                 1.9479
 Frc consts  --      1.0206                 1.1173                 0.9578
 IR Inten    --     10.6318                 8.5862                19.3181

                     16                     17                     18
                      A                      A                      A
 Frequencies --    932.3420               974.3884               998.5659
 Red. masses --      1.9171                 2.0916                 1.8987
 Frc consts  --      0.9818                 1.1700                 1.1155
 IR Inten    --     26.3160                29.5074                11.2881

                     19                     20                     21
                      A                      A                      A
 Frequencies --   1005.9880              1015.0971              1042.0934
 Red. masses --      1.8450                 2.6954                 2.8567
 Frc consts  --      1.1001                 1.6364                 1.8278
 IR Inten    --     19.2566                66.1443                18.9221

                     22                     23                     24
                      A                      A                      A
 Frequencies --   1052.8433              1066.5215              1095.1276
 Red. masses --      2.3069                 1.5527                 2.4808
 Frc consts  --      1.5066                 1.0406                 1.7529
 IR Inten    --     10.2393                20.1167                 2.7414

                     25                     26                     27
                      A                      A                      A
 Frequencies --   1121.0424              1151.4424              1167.1828
 Red. masses --      1.9297                 1.5127                 2.3403
 Frc consts  --      1.4288                 1.1817                 1.8785
 IR Inten    --    119.9070                32.9815                72.8887

                     28                     29                     30
                      A                      A                      A
 Frequencies --   1181.0889              1199.7914              1230.4895
 Red. masses --      1.3164                 1.6612                 1.5391
 Frc consts  --      1.0820                 1.4089                 1.3730
 IR Inten    --      8.7672                 2.8409                11.8256

                     31                     32                     33
                      A                      A                      A
 Frequencies --   1238.3897              1276.2044              1289.4359
 Red. masses --      1.9833                 1.7827                 1.3070
 Frc consts  --      1.7921                 1.7107                 1.2804
 IR Inten    --     65.0070                 7.4943                 0.1019

                     34                     35                     36
                      A                      A                      A
 Frequencies --   1325.1425              1360.4610              1401.9064
 Red. masses --      1.6464                 1.4332                 1.5068
 Frc consts  --      1.7034                 1.5629                 1.7448
 IR Inten    --      2.3994                 0.5101                73.4377

                     37                     38                     39
                      A                      A                      A
 Frequencies --   1409.4856              1480.9563              1484.6802
 Red. masses --      2.0224                 1.1677                 1.0641
 Frc consts  --      2.3673                 1.5090                 1.3819
 IR Inten    --      5.5313                 3.9320                 2.7754

                     40                     41                     42
                      A                      A                      A
 Frequencies --   1494.4871              1512.0288              2926.9027
 Red. masses --      1.1203                 1.0560                 1.0822
 Frc consts  --      1.4743                 1.4224                 5.4624
 IR Inten    --      5.7248                 4.3876                77.1688

                     43                     44                     45
                      A                      A                      A
 Frequencies --   2993.0237              3066.2223              3070.2248
 Red. masses --      1.0432                 1.0566                 1.0919
 Frc consts  --      5.5059                 5.8528                 6.0645
 IR Inten    --     65.4850                35.0019                33.9148

                     46                     47                     48
                      A                      A                      A
 Frequencies --   3119.5063              3125.9822              3136.5097
 Red. masses --      1.1086                 1.1016                 1.0901
 Frc consts  --      6.3562                 6.3422                 6.3185
 IR Inten    --     15.2832                25.9350                24.4925

                     49                     50                     51
                      A                      A                      A
 Frequencies --   3167.9420              3188.8717              3203.0488
 Red. masses --      1.0906                 1.0898                 1.0985
 Frc consts  --      6.4489                 6.5291                 6.6402
 IR Inten    --     22.4878                15.7740                20.9055

 - Thermochemistry -
 -------------------
 Temperature   298.150 Kelvin.  Pressure   1.00000 Atm.
 Atom     1 has atomic number  6 and mass  12.00000

 Molecular mass:   126.06808 amu.
 Principal axes and moments of inertia in atomic units:
                           1         2         3
     Eigenvalues --   473.193301309.768821463.24473
           X            0.99992  -0.01251   0.00026
           Y            0.01251   0.99944  -0.03103
           Z            0.00012   0.03103   0.99952
 This molecule is an asymmetric top.
 Rotational symmetry number  1.
 Warning -- assumption of classical behavior for rotation
           may cause significant error
 Rotational temperatures (Kelvin)      0.18304     0.06613     0.05919
 Rotational constants (GHZ):           3.81396     1.37791     1.23338
 Zero-point vibrational energy     421503.8 (Joules/Mol)
                                  100.74182 (Kcal/Mol)
 Warning -- explicit consideration of   8 degrees of freedom as
           vibrations may cause significant error
 Vibrational temperatures:    146.28   187.81   258.03   334.43   499.75
          (Kelvin)            639.86   685.15   789.29   944.70  1039.64
                             1079.68  1135.06  1171.91  1233.15  1314.40
                             1341.43  1401.93  1436.71  1447.39  1460.50
                             1499.34  1514.80  1534.48  1575.64  1612.93
                             1656.67  1679.31  1699.32  1726.23  1770.40
                             1781.76  1836.17  1855.21  1906.58  1957.40
                             2017.03  2027.93  2130.76  2136.12  2150.23
                             2175.47  4211.15  4306.29  4411.60  4417.36
                             4488.27  4497.59  4512.73  4557.96  4588.07
                             4608.47

 Zero-point correction=                           0.160542 (Hartree/Particle)
 Thermal correction to Energy=                    0.168070
 Thermal correction to Enthalpy=                  0.169015
 Thermal correction to Gibbs Free Energy=         0.128432
 Sum of electronic and zero-point Energies=           -422.987609
 Sum of electronic and thermal Energies=              -422.980080
 Sum of electronic and thermal Enthalpies=            -422.979136
 Sum of electronic and thermal Free Energies=         -423.019719

                     E (Thermal)             CV                S
                      KCal/Mol        Cal/Mol-Kelvin    Cal/Mol-Kelvin
 Total                  105.466             29.496             85.413
 Electronic               0.000              0.000              0.000
 Translational            0.889              2.981             40.409
 Rotational               0.889              2.981             28.296
 Vibrational            103.688             23.534             16.708
 Vibration     1          0.604              1.948              3.422
 Vibration     2          0.612              1.923              2.938
 Vibration     3          0.629              1.868              2.335
 Vibration     4          0.653              1.791              1.860
 Vibration     5          0.725              1.581              1.178
 Vibration     6          0.804              1.373              0.812
 Vibration     7          0.833              1.303              0.720
 Vibration     8          0.904              1.143              0.547

 Normal termination of Gaussian 09 at Tue Jan 28 14:18:50 2020.
