 Gaussian 09, Revision D.01,
 Gaussian 09:  ES64L-G09RevD.01 24-Apr-2013

 -----------------------------
 # b3lyp 6-31G(2df,p) opt Freq
 -----------------------------

 -----
 titel
 -----
 Symbolic Z-matrix:
 Charge =  0 Multiplicity = 1

 SCF Done:  E(RB3LYP) =  -423.153536195     A.U. after   13 cycles
 Optimization completed.
    -- Stationary point found.
 Normal termination of Gaussian 09 at Tue Jan 28 00:02:31 2020.

 ----------------------------------------------------------------------
 #N Geom=AllCheck Guess=TCheck SCRF=Check GenChk RB3LYP/6-31G(2df,p) Fr
 eq
 ----------------------------------------------------------------------

 Structure from the checkpoint file:  "/scratch/puck/g09_6dbc3b69-8a09-4c21-93c1-9cc16375fdca/Gau-181360.chk"
 -----
 titel
 -----
 Charge =  0 Multiplicity = 1

                         Standard orientation:
 ---------------------------------------------------------------------
 Center     Atomic      Atomic             Coordinates (Angstroms)
 Number     Number       Type             X           Y           Z
 ---------------------------------------------------------------------
      1          6           0        1.977253   -1.437197   -0.118313
      2          6           0        0.663417   -0.757690   -0.483639
      3          6           0       -0.498160   -1.028503    0.538425
      4          6           0       -1.855606   -0.878068   -0.146289
      5          8           0       -1.841363    0.456249   -0.675978
      6          6           0       -0.845373    1.162336    0.033423
      7          6           0       -0.257827    0.376178    1.161304
      8          6           0        0.602722    0.712623   -0.053887
      9          8           0        1.664310    1.599276   -0.089470
     10          1           0        2.803697   -1.038943   -0.714808
     11          1           0        2.224914   -1.273022    0.936006
     12          1           0        1.919912   -2.516725   -0.293080
     13          1           0        0.406356   -0.957365   -1.532318
     14          1           0       -0.388580   -1.909048    1.171325
     15          1           0       -2.000527   -1.575025   -0.978364
     16          1           0       -2.687077   -0.996292    0.564816
     17          1           0       -1.039713    2.224212    0.130883
     18          1           0       -0.207129    0.664841    2.202257
     19          1           0        1.666017    2.035093   -0.949282
 ---------------------------------------------------------------------

 SCF Done:  E(RB3LYP) =  -423.153536195     A.U. after    1 cycles

 The electronic state is 1-A.
 Alpha  occ. eigenvalues --  -19.15050 -19.13589 -10.23550 -10.22928 -10.22453
 Alpha  occ. eigenvalues --  -10.19505 -10.18810 -10.18677 -10.17272  -1.04483
 Alpha  occ. eigenvalues --   -1.02831  -0.87854  -0.76642  -0.72583  -0.63154
 Alpha  occ. eigenvalues --   -0.61842  -0.58125  -0.55056  -0.51926  -0.48126
 Alpha  occ. eigenvalues --   -0.46928  -0.44141  -0.43523  -0.41326  -0.39819
 Alpha  occ. eigenvalues --   -0.38242  -0.36413  -0.34819  -0.33394  -0.32477
 Alpha  occ. eigenvalues --   -0.32039  -0.28162  -0.25685  -0.22033
 Alpha virt. eigenvalues --    0.07554   0.09945   0.11261   0.11930   0.13299
 Alpha virt. eigenvalues --    0.13976   0.14194   0.15067   0.16143   0.16545
 Alpha virt. eigenvalues --    0.17405   0.18683   0.19888   0.20316   0.23337

 Mulliken charges:
               1
     1  C   -0.405590
     2  C   -0.055328
     3  C   -0.078373
     4  C   -0.088990
     5  O   -0.270663
     6  C    0.023744
     7  C   -0.176958
     8  C    0.345512
     9  O   -0.464565
    10  H    0.118079
    11  H    0.119741
    12  H    0.108448
    13  H    0.064885
    14  H    0.075506
    15  H    0.106333
    16  H    0.092152
    17  H    0.103675
    18  H    0.094845
    19  H    0.287549
 Sum of Mulliken charges =   0.00000

 Dipole moment (field-independent basis, Debye):
    X=              0.2961    Y=             -0.5779    Z=             -0.0649  Tot=              0.6526
 Quadrupole moment (field-independent basis, Debye-Ang):
   XX=            -57.5377   YY=            -49.4613   ZZ=            -51.4875
   XY=              1.4916   XZ=             -4.4247   YZ=             -1.9344

  Exact polarizability:  79.543   1.643  76.480  -2.666  -0.071  65.815
 Approx polarizability: 109.269   4.170 109.288  -1.765  -2.600 105.832

                      1                      2                      3
                      A                      A                      A
 Frequencies --    157.3359               221.6239               230.9791
 Red. masses --      3.4387                 1.7661                 1.3379
 Frc consts  --      0.0502                 0.0511                 0.0421
 IR Inten    --      0.1299                 0.4079                 5.6645

                      4                      5                      6
                      A                      A                      A
 Frequencies --    257.1993               279.3366               330.3878
 Red. masses --      2.1360                 1.9962                 1.7402
 Frc consts  --      0.0833                 0.0918                 0.1119
 IR Inten    --     46.4961                11.5611                37.6978

                      7                      8                      9
                      A                      A                      A
 Frequencies --    344.9363               436.3016               550.8975
 Red. masses --      3.6981                 3.0917                 5.0492
 Frc consts  --      0.2592                 0.3468                 0.9028
 IR Inten    --      8.9013                 2.3301                 4.5551

                     10                     11                     12
                      A                      A                      A
 Frequencies --    600.4242               704.0818               745.6901
 Red. masses --      3.1638                 3.0457                 5.9107
 Frc consts  --      0.6720                 0.8896                 1.9364
 IR Inten    --      3.8201                 0.3369                 6.1010

                     13                     14                     15
                      A                      A                      A
 Frequencies --    764.2836               810.1902               883.1019
 Red. masses --      2.9313                 2.0732                 2.7588
 Frc consts  --      1.0088                 0.8018                 1.2676
 IR Inten    --      8.1466                 1.1214                16.2817

                     16                     17                     18
                      A                      A                      A
 Frequencies --    893.0221               909.3906               938.9599
 Red. masses --      1.7090                 2.0258                 2.4344
 Frc consts  --      0.8030                 0.9871                 1.2645
 IR Inten    --     12.4267                 2.6868                12.2120

                     19                     20                     21
                      A                      A                      A
 Frequencies --    959.0890               997.6260              1017.3933
 Red. masses --      3.1683                 1.8631                 1.4468
 Frc consts  --      1.7171                 1.0925                 0.8823
 IR Inten    --      9.7253                17.6467                 5.1859

                     22                     23                     24
                      A                      A                      A
 Frequencies --   1031.8046              1063.2509              1094.3618
 Red. masses --      1.6684                 1.9159                 2.4715
 Frc consts  --      1.0465                 1.2761                 1.7439
 IR Inten    --      1.9147                 6.2679                40.5662

                     25                     26                     27
                      A                      A                      A
 Frequencies --   1100.1891              1132.9325              1165.3815
 Red. masses --      2.7345                 2.1481                 1.6313
 Frc consts  --      1.9501                 1.6245                 1.3053
 IR Inten    --     86.8662                 1.8108                 5.4507

                     28                     29                     30
                      A                      A                      A
 Frequencies --   1182.7179              1225.4768              1240.8819
 Red. masses --      1.6618                 1.5080                 1.7449
 Frc consts  --      1.3696                 1.3343                 1.5830
 IR Inten    --     12.6953                17.0593                23.3239

                     31                     32                     33
                      A                      A                      A
 Frequencies --   1254.7348              1273.5653              1296.7352
 Red. masses --      1.4015                 1.7113                 1.7389
 Frc consts  --      1.3000                 1.6354                 1.7228
 IR Inten    --     25.9043                 1.2626                74.6833

                     34                     35                     36
                      A                      A                      A
 Frequencies --   1312.2754              1368.9863              1375.5453
 Red. masses --      1.5355                 1.4779                 1.8336
 Frc consts  --      1.5580                 1.6319                 2.0441
 IR Inten    --      0.8303                 5.7041                 6.9153

                     37                     38                     39
                      A                      A                      A
 Frequencies --   1410.8996              1443.9327              1493.6345
 Red. masses --      1.2553                 2.6385                 1.0514
 Frc consts  --      1.4723                 3.2411                 1.3820
 IR Inten    --      1.1290                17.7221                 2.3300

                     40                     41                     42
                      A                      A                      A
 Frequencies --   1497.6762              1514.6103              2990.3586
 Red. masses --      1.0653                 1.1018                 1.0679
 Frc consts  --      1.4079                 1.4892                 5.6265
 IR Inten    --      7.0219                 0.8418                80.4935

                     43                     44                     45
                      A                      A                      A
 Frequencies --   3014.9415              3031.6861              3071.7828
 Red. masses --      1.0835                 1.0351                 1.0962
 Frc consts  --      5.8027                 5.6053                 6.0941
 IR Inten    --     34.9728                26.0601                33.7672

                     46                     47                     48
                      A                      A                      A
 Frequencies --   3100.3562              3105.0691              3116.4826
 Red. masses --      1.1017                 1.1008                 1.0894
 Frc consts  --      6.2391                 6.2529                 6.2341
 IR Inten    --     32.3639                18.3635                27.3897

                     49                     50                     51
                      A                      A                      A
 Frequencies --   3187.7026              3206.7423              3790.5609
 Red. masses --      1.0903                 1.0966                 1.0661
 Frc consts  --      6.5277                 6.6441                 9.0248
 IR Inten    --     11.2793                 9.3703                26.4561

 - Thermochemistry -
 -------------------
 Temperature   298.150 Kelvin.  Pressure   1.00000 Atm.
 Atom     1 has atomic number  6 and mass  12.00000

 Molecular mass:   126.06808 amu.
 Principal axes and moments of inertia in atomic units:
                           1         2         3
     Eigenvalues --   681.976011013.234751390.56004
           X            0.99914  -0.03799  -0.01647
           Y            0.03805   0.99927   0.00333
           Z            0.01633  -0.00395   0.99986
 This molecule is an asymmetric top.
 Rotational symmetry number  1.
 Warning -- assumption of classical behavior for rotation
           may cause significant error
 Rotational temperatures (Kelvin)      0.12700     0.08548     0.06229
 Rotational constants (GHZ):           2.64634     1.78117     1.29785
 Zero-point vibrational energy     419455.8 (Joules/Mol)
                                  100.25233 (Kcal/Mol)
 Warning -- explicit consideration of  10 degrees of freedom as
           vibrations may cause significant error
 Vibrational temperatures:    226.37   318.87   332.33   370.05   401.90
          (Kelvin)            475.35   496.29   627.74   792.62   863.88
                             1013.02  1072.88  1099.63  1165.68  1270.59
                             1284.86  1308.41  1350.95  1379.91  1435.36
                             1463.80  1484.53  1529.78  1574.54  1582.92
                             1630.04  1676.72  1701.67  1763.19  1785.35
                             1805.28  1832.37  1865.71  1888.07  1969.66
                             1979.10  2029.97  2077.49  2149.00  2154.82
                             2179.18  4302.45  4337.82  4361.91  4419.60
                             4460.72  4467.50  4483.92  4586.39  4613.78
                             5453.76

 Zero-point correction=                           0.159762 (Hartree/Particle)
 Thermal correction to Energy=                    0.167556
 Thermal correction to Enthalpy=                  0.168500
 Thermal correction to Gibbs Free Energy=         0.128011
 Sum of electronic and zero-point Energies=           -422.993774
 Sum of electronic and thermal Energies=              -422.985981
 Sum of electronic and thermal Enthalpies=            -422.985036
 Sum of electronic and thermal Free Energies=         -423.025525

                     E (Thermal)             CV                S
                      KCal/Mol        Cal/Mol-Kelvin    Cal/Mol-Kelvin
 Total                  105.143             31.287             85.215
 Electronic               0.000              0.000              0.000
 Translational            0.889              2.981             40.409
 Rotational               0.889              2.981             28.354
 Vibrational            103.365             25.325             16.452
 Vibration     1          0.621              1.894              2.582
 Vibration     2          0.648              1.808              1.946
 Vibration     3          0.653              1.794              1.871
 Vibration     4          0.667              1.751              1.681
 Vibration     5          0.680              1.712              1.538
 Vibration     6          0.713              1.615              1.258
 Vibration     7          0.723              1.586              1.189
 Vibration     8          0.797              1.391              0.838
 Vibration     9          0.906              1.138              0.542
 Vibration    10          0.959              1.031              0.449

 Optimization completed.
    -- Stationary point found.
 Normal termination of Gaussian 09 at Tue Jan 28 00:50:10 2020.
