 Gaussian 09, Revision D.01,
 Gaussian 09:  ES64L-G09RevD.01 24-Apr-2013

 -----------------------------
 # b3lyp 6-31G(2df,p) opt Freq
 -----------------------------

 -----
 titel
 -----
 Symbolic Z-matrix:
 Charge =  0 Multiplicity = 1

 SCF Done:  E(RB3LYP) =  -423.176719326     A.U. after   13 cycles
 Optimization completed.
    -- Stationary point found.
 Normal termination of Gaussian 09 at Mon Jan 27 22:03:37 2020.

 ----------------------------------------------------------------------
 #N Geom=AllCheck Guess=TCheck SCRF=Check GenChk RB3LYP/6-31G(2df,p) Fr
 eq
 ----------------------------------------------------------------------

 Structure from the checkpoint file:  "/scratch/puck/g09_f374af92-ac71-4048-9290-eb4ddeab55c8/Gau-76294.chk"
 -----
 titel
 -----
 Charge =  0 Multiplicity = 1

                         Standard orientation:
 ---------------------------------------------------------------------
 Center     Atomic      Atomic             Coordinates (Angstroms)
 Number     Number       Type             X           Y           Z
 ---------------------------------------------------------------------
      1          6           0        2.729809    0.081760   -0.193530
      2          6           0        1.261247    0.353550   -0.199301
      3          6           0        0.629288    1.529652   -0.112891
      4          6           0       -0.855114    1.374414   -0.076340
      5          6           0       -1.384821    0.610077    1.136278
      6          6           0       -1.101163   -0.119181   -0.143256
      7          8           0       -2.212343   -0.687303   -0.762365
      8          6           0        0.262288   -0.798370   -0.300007
      9          8           0        0.514633   -1.869849    0.597833
     10          1           0        3.049312   -0.381679   -1.136442
     11          1           0        3.311861    0.995606   -0.047702
     12          1           0        2.987223   -0.630240    0.598796
     13          1           0        1.121284    2.494039   -0.032764
     14          1           0       -1.513796    2.082274   -0.566175
     15          1           0       -0.731645    0.503278    1.997446
     16          1           0       -2.439651    0.719962    1.363694
     17          1           0       -2.057372   -0.687154   -1.713571
     18          1           0        0.322166   -1.266682   -1.294762
     19          1           0        0.283097   -1.563606    1.482012
 ---------------------------------------------------------------------

 SCF Done:  E(RB3LYP) =  -423.176719326     A.U. after    1 cycles

 The electronic state is 1-A.
 Alpha  occ. eigenvalues --  -19.14562 -19.13474 -10.23702 -10.23264 -10.19158
 Alpha  occ. eigenvalues --  -10.19034 -10.18365 -10.18159 -10.17940  -1.03512
 Alpha  occ. eigenvalues --   -1.01366  -0.87645  -0.78459  -0.69763  -0.68954
 Alpha  occ. eigenvalues --   -0.59754  -0.57891  -0.54804  -0.52455  -0.48263
 Alpha  occ. eigenvalues --   -0.46020  -0.43513  -0.42752  -0.41131  -0.40707
 Alpha  occ. eigenvalues --   -0.39394  -0.37362  -0.35259  -0.34298  -0.33149
 Alpha  occ. eigenvalues --   -0.29918  -0.27647  -0.25708  -0.22037
 Alpha virt. eigenvalues --    0.01175   0.07947   0.08206   0.10194   0.12327
 Alpha virt. eigenvalues --    0.13691   0.14737   0.16076   0.16391   0.17109
 Alpha virt. eigenvalues --    0.18292   0.18684   0.20814   0.22583   0.22853

 Mulliken charges:
               1
     1  C   -0.484594
     2  C    0.263610
     3  C   -0.183100
     4  C   -0.162183
     5  C   -0.322631
     6  C    0.393046
     7  O   -0.470388
     8  C   -0.037543
     9  O   -0.426232
    10  H    0.124675
    11  H    0.119193
    12  H    0.134412
    13  H    0.092818
    14  H    0.092595
    15  H    0.102327
    16  H    0.125226
    17  H    0.280900
    18  H    0.078455
    19  H    0.279415
 Sum of Mulliken charges =   0.00000

 Dipole moment (field-independent basis, Debye):
    X=              0.5276    Y=              1.6655    Z=             -0.4570  Tot=              1.8059
 Quadrupole moment (field-independent basis, Debye-Ang):
   XX=            -54.9089   YY=            -57.0765   ZZ=            -47.0064
   XY=             -0.6692   XZ=              1.2918   YZ=              0.3479

  Exact polarizability:  87.613  -4.775  77.823  -2.904   2.086  65.522
 Approx polarizability: 116.504 -11.194 126.305  -4.209   3.322 102.505

                      1                      2                      3
                      A                      A                      A
 Frequencies --    108.2932               166.7103               212.2746
 Red. masses --      3.8766                 1.0502                 2.4780
 Frc consts  --      0.0268                 0.0172                 0.0658
 IR Inten    --      1.9029                 0.3397                10.9240

                      4                      5                      6
                      A                      A                      A
 Frequencies --    225.4680               251.5121               283.6267
 Red. masses --      1.8870                 2.1077                 1.4487
 Frc consts  --      0.0565                 0.0786                 0.0687
 IR Inten    --     16.8405                19.8340                52.5759

                      7                      8                      9
                      A                      A                      A
 Frequencies --    310.4914               326.7770               391.2224
 Red. masses --      2.1322                 2.3326                 3.2332
 Frc consts  --      0.1211                 0.1468                 0.2916
 IR Inten    --     47.7158                27.3858                 5.6708

                     10                     11                     12
                      A                      A                      A
 Frequencies --    458.7231               491.4439               554.3887
 Red. masses --      2.7183                 3.3136                 3.5729
 Frc consts  --      0.3370                 0.4715                 0.6470
 IR Inten    --      2.6991                 5.3531                 8.1367

                     13                     14                     15
                      A                      A                      A
 Frequencies --    613.3617               672.7954               744.1801
 Red. masses --      3.8062                 4.3633                 2.8522
 Frc consts  --      0.8437                 1.1637                 0.9306
 IR Inten    --      5.5434                 3.6275                10.6438

                     16                     17                     18
                      A                      A                      A
 Frequencies --    840.7405               862.2161               887.1741
 Red. masses --      1.7490                 1.7583                 2.9364
 Frc consts  --      0.7284                 0.7702                 1.3617
 IR Inten    --      3.7982                 6.3233                 9.0031

                     19                     20                     21
                      A                      A                      A
 Frequencies --    922.1606               958.7484               970.9719
 Red. masses --      2.2462                 2.7000                 1.6824
 Frc consts  --      1.1254                 1.4623                 0.9345
 IR Inten    --     46.3643                 2.5528                11.7489

                     22                     23                     24
                      A                      A                      A
 Frequencies --    996.6311              1053.5259              1063.2547
 Red. masses --      1.5035                 1.3420                 1.5433
 Frc consts  --      0.8799                 0.8776                 1.0280
 IR Inten    --     14.4650                 4.8156                 4.2638

                     25                     26                     27
                      A                      A                      A
 Frequencies --   1065.1288              1081.2279              1098.4349
 Red. masses --      1.3754                 1.7878                 3.4583
 Frc consts  --      0.9193                 1.2314                 2.4585
 IR Inten    --      6.2998                32.8762                56.8027

                     28                     29                     30
                      A                      A                      A
 Frequencies --   1186.1483              1217.2302              1239.2946
 Red. masses --      1.8229                 1.6535                 1.9763
 Frc consts  --      1.5111                 1.4434                 1.7883
 IR Inten    --     17.4098                10.1935                42.1093

                     31                     32                     33
                      A                      A                      A
 Frequencies --   1265.9377              1292.9928              1331.2668
 Red. masses --      1.5436                 1.6213                 2.2679
 Frc consts  --      1.4575                 1.5970                 2.3681
 IR Inten    --     31.9104                11.4246                80.1706

                     34                     35                     36
                      A                      A                      A
 Frequencies --   1335.7908              1400.5480              1411.3200
 Red. masses --      2.3008                 1.4658                 1.3205
 Frc consts  --      2.4188                 1.6941                 1.5497
 IR Inten    --     10.4136                20.5513                 3.0922

                     37                     38                     39
                      A                      A                      A
 Frequencies --   1432.2419              1472.7757              1477.7201
 Red. masses --      1.3073                 1.0545                 1.5175
 Frc consts  --      1.5800                 1.3476                 1.9524
 IR Inten    --     42.7165                 3.9080                16.8212

                     40                     41                     42
                      A                      A                      A
 Frequencies --   1490.1891              1708.1528              2989.8401
 Red. masses --      1.0789                 7.2551                 1.0824
 Frc consts  --      1.4116                12.4723                 5.7009
 IR Inten    --      6.6999                 0.7154                40.6208

                     43                     44                     45
                      A                      A                      A
 Frequencies --   3019.0289              3071.1001              3113.9829
 Red. masses --      1.0407                 1.0935                 1.1009
 Frc consts  --      5.5886                 6.0766                 6.2896
 IR Inten    --     32.4651                14.9126                17.2434

                     46                     47                     48
                      A                      A                      A
 Frequencies --   3119.0996              3172.7005              3183.6959
 Red. masses --      1.0548                 1.0906                 1.0939
 Frc consts  --      6.0462                 6.4679                 6.5328
 IR Inten    --     13.0608                17.8954                15.0572

                     49                     50                     51
                      A                      A                      A
 Frequencies --   3217.1242              3794.5249              3797.7951
 Red. masses --      1.1153                 1.0659                 1.0656
 Frc consts  --      6.8014                 9.0425                 9.0555
 IR Inten    --      7.9486                20.1347                 7.1020

 - Thermochemistry -
 -------------------
 Temperature   298.150 Kelvin.  Pressure   1.00000 Atm.
 Atom     1 has atomic number  6 and mass  12.00000

 Molecular mass:   126.06808 amu.
 Principal axes and moments of inertia in atomic units:
                           1         2         3
     Eigenvalues --   690.138351194.574481544.11346
           X            0.99990  -0.01095  -0.00939
           Y            0.01107   0.99986   0.01276
           Z            0.00925  -0.01286   0.99987
 This molecule is an asymmetric top.
 Rotational symmetry number  1.
 Warning -- assumption of classical behavior for rotation
           may cause significant error
 Rotational temperatures (Kelvin)      0.12550     0.07251     0.05609
 Rotational constants (GHZ):           2.61504     1.51078     1.16879
 Zero-point vibrational energy     414817.0 (Joules/Mol)
                                   99.14364 (Kcal/Mol)
 Warning -- explicit consideration of  13 degrees of freedom as
           vibrations may cause significant error
 Vibrational temperatures:    155.81   239.86   305.42   324.40   361.87
          (Kelvin)            408.08   446.73   470.16   562.88   660.00
                              707.08   797.64   882.49   968.00  1070.71
                             1209.64  1240.54  1276.44  1326.78  1379.42
                             1397.01  1433.93  1515.79  1529.78  1532.48
                             1555.64  1580.40  1706.60  1751.32  1783.07
                             1821.40  1860.33  1915.39  1921.90  2015.07
                             2030.57  2060.67  2118.99  2126.11  2144.05
                             2457.65  4301.71  4343.70  4418.62  4480.32
                             4487.68  4564.80  4580.62  4628.72  5459.47
                             5464.17

 Zero-point correction=                           0.157995 (Hartree/Particle)
 Thermal correction to Energy=                    0.166938
 Thermal correction to Enthalpy=                  0.167882
 Thermal correction to Gibbs Free Energy=         0.125017
 Sum of electronic and zero-point Energies=           -423.018724
 Sum of electronic and thermal Energies=              -423.009781
 Sum of electronic and thermal Enthalpies=            -423.008837
 Sum of electronic and thermal Free Energies=         -423.051702

                     E (Thermal)             CV                S
                      KCal/Mol        Cal/Mol-Kelvin    Cal/Mol-Kelvin
 Total                  104.755             34.632             90.217
 Electronic               0.000              0.000              0.000
 Translational            0.889              2.981             40.409
 Rotational               0.889              2.981             28.633
 Vibrational            102.978             28.671             21.175
 Vibration     1          0.606              1.943              3.299
 Vibration     2          0.624              1.883              2.472
 Vibration     3          0.643              1.822              2.024
 Vibration     4          0.650              1.802              1.915
 Vibration     5          0.663              1.760              1.720
 Vibration     6          0.682              1.704              1.512
 Vibration     7          0.699              1.654              1.360
 Vibration     8          0.710              1.622              1.276
 Vibration     9          0.759              1.489              0.995
 Vibration    10          0.817              1.342              0.770
 Vibration    11          0.847              1.269              0.680
 Vibration    12          0.910              1.130              0.535
 Vibration    13          0.973              1.004              0.427

 Normal termination of Gaussian 09 at Mon Jan 27 22:44:56 2020.
