 Gaussian 09, Revision D.01,
 Gaussian 09:  ES64L-G09RevD.01 24-Apr-2013

 -----------------------------
 # b3lyp 6-31G(2df,p) opt Freq
 -----------------------------

 -----
 titel
 -----
 Symbolic Z-matrix:
 Charge =  0 Multiplicity = 1

 SCF Done:  E(RB3LYP) =  -423.158481749     A.U. after   13 cycles
 Optimization completed.
    -- Stationary point found.
 Normal termination of Gaussian 09 at Mon Jan 27 18:21:13 2020.

 ----------------------------------------------------------------------
 #N Geom=AllCheck Guess=TCheck SCRF=Check GenChk RB3LYP/6-31G(2df,p) Fr
 eq
 ----------------------------------------------------------------------

 Structure from the checkpoint file:  "/scratch/puck/g09_ac298a95-38d2-4c1f-881f-f11d3acb2c34/Gau-62654.chk"
 -----
 titel
 -----
 Charge =  0 Multiplicity = 1

                         Standard orientation:
 ---------------------------------------------------------------------
 Center     Atomic      Atomic             Coordinates (Angstroms)
 Number     Number       Type             X           Y           Z
 ---------------------------------------------------------------------
      1          6           0       -2.742078   -0.263362   -0.101283
      2          6           0       -1.263526   -0.005948   -0.080448
      3          6           0       -0.552529    1.149566   -0.788762
      4          6           0        0.509863    1.186402    0.360225
      5          8           0        1.829462    0.810699   -0.014933
      6          6           0        1.999904   -0.586839   -0.054350
      7          8           0        0.886919   -1.255351   -0.604105
      8          6           0       -0.250220   -1.077985    0.209135
      9          6           0       -0.291815    0.115651    1.118218
     10          1           0       -3.306822    0.630462    0.187082
     11          1           0       -3.073172   -0.556017   -1.104871
     12          1           0       -3.019271   -1.068975    0.586704
     13          1           0       -0.160650    0.951514   -1.789362
     14          1           0       -1.157536    2.060328   -0.802609
     15          1           0        0.588202    2.155239    0.854483
     16          1           0        2.856261   -0.790279   -0.700829
     17          1           0        2.190004   -0.970861    0.961515
     18          1           0       -0.644847   -2.014131    0.597076
     19          1           0       -0.460816    0.055023    2.186704
 ---------------------------------------------------------------------

 SCF Done:  E(RB3LYP) =  -423.158481749     A.U. after    1 cycles

 The electronic state is 1-A.
 Alpha  occ. eigenvalues --  -19.14699 -19.13743 -10.26937 -10.23793 -10.23720
 Alpha  occ. eigenvalues --  -10.20220 -10.19220 -10.18389 -10.17960  -1.07370
 Alpha  occ. eigenvalues --   -1.00162  -0.89527  -0.73594  -0.71788  -0.68582
 Alpha  occ. eigenvalues --   -0.63857  -0.55371  -0.53044  -0.51996  -0.50185
 Alpha  occ. eigenvalues --   -0.48242  -0.44021  -0.43085  -0.42161  -0.41055
 Alpha  occ. eigenvalues --   -0.39450  -0.37870  -0.36549  -0.35166  -0.33234
 Alpha  occ. eigenvalues --   -0.28264  -0.27066  -0.25552  -0.24375
 Alpha virt. eigenvalues --    0.08922   0.09356   0.11290   0.12087   0.12634
 Alpha virt. eigenvalues --    0.13792   0.14293   0.16103   0.16874   0.17251
 Alpha virt. eigenvalues --    0.17380   0.17890   0.19285   0.20651   0.22214

 Mulliken charges:
               1
     1  C   -0.504829
     2  C    0.308419
     3  C   -0.301057
     4  C    0.118488
     5  O   -0.268145
     6  C    0.021623
     7  O   -0.252571
     8  C    0.055463
     9  C   -0.215274
    10  H    0.119295
    11  H    0.127232
    12  H    0.118608
    13  H    0.107858
    14  H    0.098269
    15  H    0.089115
    16  H    0.116954
    17  H    0.082869
    18  H    0.092018
    19  H    0.085665
 Sum of Mulliken charges =   0.00000

 Dipole moment (field-independent basis, Debye):
    X=             -1.4122    Y=             -0.0504    Z=              1.2329  Tot=              1.8753
 Quadrupole moment (field-independent basis, Debye-Ang):
   XX=            -52.5997   YY=            -53.2089   ZZ=            -52.8084
   XY=             -1.7711   XZ=              0.3327   YZ=             -1.2133

  Exact polarizability:  85.812  -1.894  70.984   0.930  -1.824  65.862
 Approx polarizability: 112.858  -1.610 106.419   1.347   0.341 103.300

                      1                      2                      3
                      A                      A                      A
 Frequencies --    185.6489               197.8737               225.4571
 Red. masses --      2.9867                 1.3539                 1.9305
 Frc consts  --      0.0606                 0.0312                 0.0578
 IR Inten    --      1.5938                 0.3393                 2.9610

                      4                      5                      6
                      A                      A                      A
 Frequencies --    259.7470               336.9946               401.3591
 Red. masses --      2.6064                 2.5625                 2.3752
 Frc consts  --      0.1036                 0.1715                 0.2254
 IR Inten    --      0.0889                 4.3961                 0.4290

                      7                      8                      9
                      A                      A                      A
 Frequencies --    470.0958               512.8336               571.2272
 Red. masses --      3.9745                 3.6845                 4.5070
 Frc consts  --      0.5175                 0.5709                 0.8665
 IR Inten    --      0.7744                 3.5472                 4.1919

                     10                     11                     12
                      A                      A                      A
 Frequencies --    611.3803               709.7107               781.2242
 Red. masses --      3.8758                 3.6179                 3.0026
 Frc consts  --      0.8536                 1.0737                 1.0797
 IR Inten    --      3.2514                 3.7150                 6.2260

                     13                     14                     15
                      A                      A                      A
 Frequencies --    824.4239               856.8905               899.7449
 Red. masses --      2.3527                 4.0159                 1.9259
 Frc consts  --      0.9421                 1.7373                 0.9186
 IR Inten    --      3.1865                10.0419                 9.6495

                     16                     17                     18
                      A                      A                      A
 Frequencies --    947.3579               960.5351               968.9418
 Red. masses --      1.8293                 1.7457                 2.7383
 Frc consts  --      0.9673                 0.9489                 1.5147
 IR Inten    --     12.2269                 6.5433                 1.7331

                     19                     20                     21
                      A                      A                      A
 Frequencies --    983.3678              1002.1747              1026.4398
 Red. masses --      2.6154                 2.0247                 1.8724
 Frc consts  --      1.4901                 1.1981                 1.1623
 IR Inten    --     22.9716                25.9602                38.6397

                     22                     23                     24
                      A                      A                      A
 Frequencies --   1060.4345              1096.0199              1096.9515
 Red. masses --      2.9199                 1.7667                 2.3016
 Frc consts  --      1.9346                 1.2504                 1.6318
 IR Inten    --     29.1115                12.9792                51.2789

                     25                     26                     27
                      A                      A                      A
 Frequencies --   1152.6652              1177.5896              1194.3529
 Red. masses --      1.6094                 2.3107                 2.6808
 Frc consts  --      1.2598                 1.8879                 2.2531
 IR Inten    --      5.4035                57.5879               131.2296

                     28                     29                     30
                      A                      A                      A
 Frequencies --   1223.9032              1239.3330              1249.8471
 Red. masses --      1.6017                 1.6071                 2.1217
 Frc consts  --      1.4136                 1.4544                 1.9528
 IR Inten    --      7.2582                 8.2152                20.4854

                     31                     32                     33
                      A                      A                      A
 Frequencies --   1296.4250              1309.2846              1323.6705
 Red. masses --      1.1157                 2.2919                 1.3993
 Frc consts  --      1.1049                 2.3148                 1.4445
 IR Inten    --      1.6704                 5.6842                 6.7826

                     34                     35                     36
                      A                      A                      A
 Frequencies --   1367.1679              1415.4702              1434.2331
 Red. masses --      1.2966                 1.2414                 1.6221
 Frc consts  --      1.4280                 1.4655                 1.9660
 IR Inten    --     16.4729                 2.5361                10.5849

                     37                     38                     39
                      A                      A                      A
 Frequencies --   1451.0631              1481.6881              1489.0177
 Red. masses --      1.4659                 1.1814                 1.0934
 Frc consts  --      1.8185                 1.5282                 1.4284
 IR Inten    --      9.6764                 2.3712                 7.9001

                     40                     41                     42
                      A                      A                      A
 Frequencies --   1498.9059              1523.0544              2962.0324
 Red. masses --      1.0883                 1.1161                 1.0698
 Frc consts  --      1.4406                 1.5254                 5.5300
 IR Inten    --      6.0591                 0.7228                91.9754

                     43                     44                     45
                      A                      A                      A
 Frequencies --   3022.2021              3057.4526              3082.3869
 Red. masses --      1.0356                 1.0579                 1.1006
 Frc consts  --      5.5728                 5.8265                 6.1613
 IR Inten    --     35.8045                31.6041                20.8605

                     46                     47                     48
                      A                      A                      A
 Frequencies --   3094.6330              3100.9598              3108.1910
 Red. masses --      1.1005                 1.0915                 1.0954
 Frc consts  --      6.2096                 6.1842                 6.2352
 IR Inten    --     19.4515                24.2184                44.6596

                     49                     50                     51
                      A                      A                      A
 Frequencies --   3116.8688              3135.9903              3179.5833
 Red. masses --      1.1051                 1.0886                 1.0938
 Frc consts  --      6.3253                 6.3076                 6.5154
 IR Inten    --     27.5069                22.0931                16.7903

 - Thermochemistry -
 -------------------
 Temperature   298.150 Kelvin.  Pressure   1.00000 Atm.
 Atom     1 has atomic number  6 and mass  12.00000

 Molecular mass:   126.06808 amu.
 Principal axes and moments of inertia in atomic units:
                           1         2         3
     Eigenvalues --   529.851011143.558871364.07093
           X            0.99994  -0.00856   0.00618
           Y            0.00884   0.99889  -0.04621
           Z           -0.00578   0.04627   0.99891
 This molecule is an asymmetric top.
 Rotational symmetry number  1.
 Warning -- assumption of classical behavior for rotation
           may cause significant error
 Rotational temperatures (Kelvin)      0.16347     0.07574     0.06350
 Rotational constants (GHZ):           3.40613     1.57818     1.32306
 Zero-point vibrational energy     422729.2 (Joules/Mol)
                                  101.03471 (Kcal/Mol)
 Warning -- explicit consideration of  10 degrees of freedom as
           vibrations may cause significant error
 Vibrational temperatures:    267.11   284.70   324.38   373.72   484.86
          (Kelvin)            577.47   676.36   737.85   821.87   879.64
                             1021.11  1124.01  1186.16  1232.87  1294.53
                             1363.04  1381.99  1394.09  1414.85  1441.90
                             1476.82  1525.73  1576.93  1578.27  1658.43
                             1694.29  1718.41  1760.92  1783.12  1798.25
                             1865.26  1883.77  1904.46  1967.05  2036.54
                             2063.54  2087.75  2131.82  2142.36  2156.59
                             2191.33  4261.70  4348.27  4398.99  4434.86
                             4452.48  4461.58  4471.99  4484.47  4511.98
                             4574.71

 Zero-point correction=                           0.161009 (Hartree/Particle)
 Thermal correction to Energy=                    0.168340
 Thermal correction to Enthalpy=                  0.169284
 Thermal correction to Gibbs Free Energy=         0.129680
 Sum of electronic and zero-point Energies=           -422.997473
 Sum of electronic and thermal Energies=              -422.990142
 Sum of electronic and thermal Enthalpies=            -422.989198
 Sum of electronic and thermal Free Energies=         -423.028801

                     E (Thermal)             CV                S
                      KCal/Mol        Cal/Mol-Kelvin    Cal/Mol-Kelvin
 Total                  105.635             29.708             83.353
 Electronic               0.000              0.000              0.000
 Translational            0.889              2.981             40.409
 Rotational               0.889              2.981             28.204
 Vibrational            103.857             23.746             14.740
 Vibration     1          0.632              1.859              2.271
 Vibration     2          0.637              1.843              2.153
 Vibration     3          0.650              1.802              1.915
 Vibration     4          0.668              1.746              1.663
 Vibration     5          0.718              1.602              1.226
 Vibration     6          0.767              1.467              0.958
 Vibration     7          0.827              1.316              0.737
 Vibration     8          0.868              1.222              0.627
 Vibration     9          0.927              1.093              0.502
 Vibration    10          0.971              1.008              0.430

 Normal termination of Gaussian 09 at Mon Jan 27 19:04:41 2020.
