 Gaussian 09, Revision D.01,
 Gaussian 09:  ES64L-G09RevD.01 24-Apr-2013

 -----------------------------
 # b3lyp 6-31G(2df,p) opt Freq
 -----------------------------

 -----
 titel
 -----
 Symbolic Z-matrix:
 Charge =  0 Multiplicity = 1

 SCF Done:  E(RB3LYP) =  -423.130903660     A.U. after   13 cycles
 Optimization completed.
    -- Stationary point found.
 Normal termination of Gaussian 09 at Tue Jan 28 13:46:21 2020.

 ----------------------------------------------------------------------
 #N Geom=AllCheck Guess=TCheck SCRF=Check GenChk RB3LYP/6-31G(2df,p) Fr
 eq
 ----------------------------------------------------------------------

 Structure from the checkpoint file:  "/scratch/puck/g09_18512374-c087-4a61-ac97-b98b93337951/Gau-32374.chk"
 -----
 titel
 -----
 Charge =  0 Multiplicity = 1

                         Standard orientation:
 ---------------------------------------------------------------------
 Center     Atomic      Atomic             Coordinates (Angstroms)
 Number     Number       Type             X           Y           Z
 ---------------------------------------------------------------------
      1          8           0       -3.202257    0.173979   -0.163015
      2          6           0       -2.165997   -0.672265    0.289790
      3          6           0       -0.854722   -0.318305   -0.393749
      4          8           0       -0.563451    1.087608   -0.155200
      5          6           0        0.630894    0.764796    0.588555
      6          6           0        1.877389    0.751491   -0.279314
      7          6           0        2.849866   -0.263012    0.256694
      8          6           0        1.681175   -0.748989   -0.552810
      9          6           0        0.432803   -0.770087    0.319741
     10          1           0       -2.858111    1.072098   -0.074924
     11          1           0       -2.036914   -0.604995    1.383282
     12          1           0       -2.454278   -1.702147    0.049355
     13          1           0       -0.916183   -0.528287   -1.468737
     14          1           0        0.655284    1.258936    1.563949
     15          1           0        2.168775    1.541141   -0.960647
     16          1           0        3.810105   -0.287610   -0.247906
     17          1           0        2.906252   -0.470763    1.323172
     18          1           0        1.808157   -1.291721   -1.482403
     19          1           0        0.334143   -1.541112    1.087127
 ---------------------------------------------------------------------

 SCF Done:  E(RB3LYP) =  -423.130903660     A.U. after    1 cycles

 The electronic state is 1-A.
 Alpha  occ. eigenvalues --  -19.13937 -19.12790 -10.24214 -10.23357 -10.22395
 Alpha  occ. eigenvalues --  -10.20162 -10.19994 -10.19731 -10.19605  -1.04883
 Alpha  occ. eigenvalues --   -1.00838  -0.89361  -0.75286  -0.71174  -0.65814
 Alpha  occ. eigenvalues --   -0.59910  -0.59221  -0.52153  -0.52075  -0.51012
 Alpha  occ. eigenvalues --   -0.49390  -0.46375  -0.45059  -0.41089  -0.40045
 Alpha  occ. eigenvalues --   -0.39314  -0.36303  -0.34910  -0.32995  -0.30753
 Alpha  occ. eigenvalues --   -0.29583  -0.27599  -0.26798  -0.24464
 Alpha virt. eigenvalues --    0.06754   0.09570   0.10826   0.11280   0.11391
 Alpha virt. eigenvalues --    0.12675   0.14053   0.14841   0.14962   0.16386
 Alpha virt. eigenvalues --    0.16529   0.17958   0.18577   0.20251   0.22590

 Mulliken charges:
               1
     1  O   -0.422371
     2  C   -0.070397
     3  C    0.107271
     4  O   -0.325520
     5  C    0.113788
     6  C   -0.064090
     7  C   -0.299095
     8  C   -0.056220
     9  C   -0.119035
    10  H    0.292780
    11  H    0.081508
    12  H    0.105866
    13  H    0.083320
    14  H    0.079936
    15  H    0.097570
    16  H    0.119102
    17  H    0.108697
    18  H    0.090859
    19  H    0.076034
 Sum of Mulliken charges =   0.00000

 Dipole moment (field-independent basis, Debye):
    X=              2.4965    Y=             -0.8000    Z=              0.5721  Tot=              2.6832
 Quadrupole moment (field-independent basis, Debye-Ang):
   XX=            -59.2076   YY=            -52.1285   ZZ=            -51.6462
   XY=              0.2826   XZ=             -2.0062   YZ=              0.8025

  Exact polarizability:  91.478   1.502  68.577   0.657   0.910  65.058
 Approx polarizability: 114.999   0.681 111.117   3.797   1.845  99.908

                      1                      2                      3
                      A                      A                      A
 Frequencies --     88.4197               133.6167               176.0689
 Red. masses --      5.0792                 3.4690                 2.7564
 Frc consts  --      0.0234                 0.0365                 0.0503
 IR Inten    --      2.2454                 2.3490                 0.3912

                      4                      5                      6
                      A                      A                      A
 Frequencies --    286.8444               326.2746               345.3129
 Red. masses --      2.9569                 3.3828                 3.6636
 Frc consts  --      0.1433                 0.2122                 0.2574
 IR Inten    --      0.9261                 4.7228                 1.4200

                      7                      8                      9
                      A                      A                      A
 Frequencies --    477.8405               496.6990               549.1579
 Red. masses --      1.1588                 3.4928                 3.0177
 Frc consts  --      0.1559                 0.5077                 0.5362
 IR Inten    --    113.7764                 2.6943                 8.8079

                     10                     11                     12
                      A                      A                      A
 Frequencies --    685.1053               769.5485               811.2487
 Red. masses --      2.9858                 1.7979                 1.8314
 Frc consts  --      0.8257                 0.6273                 0.7102
 IR Inten    --      2.6054                 8.7254                10.3292

                     13                     14                     15
                      A                      A                      A
 Frequencies --    837.1226               865.0914               916.6346
 Red. masses --      2.0230                 2.5304                 3.0406
 Frc consts  --      0.8353                 1.1157                 1.5052
 IR Inten    --      0.7882                18.8722                15.9033

                     16                     17                     18
                      A                      A                      A
 Frequencies --    938.4778               955.4164               971.0367
 Red. masses --      2.4008                 2.2260                 2.0071
 Frc consts  --      1.2458                 1.1972                 1.1151
 IR Inten    --      8.6859                32.9216                 3.7347

                     19                     20                     21
                      A                      A                      A
 Frequencies --   1009.5010              1031.2515              1047.1407
 Red. masses --      1.8129                 2.4588                 1.8743
 Frc consts  --      1.0885                 1.5407                 1.2109
 IR Inten    --     46.6498                82.4260                13.9157

                     22                     23                     24
                      A                      A                      A
 Frequencies --   1061.8863              1066.9852              1069.9619
 Red. masses --      1.4141                 1.9282                 1.9590
 Frc consts  --      0.9395                 1.2933                 1.3213
 IR Inten    --      0.7015                17.4070                 3.1310

                     25                     26                     27
                      A                      A                      A
 Frequencies --   1091.7031              1096.0043              1115.6872
 Red. masses --      1.5790                 2.5855                 2.3423
 Frc consts  --      1.1088                 1.8299                 1.7178
 IR Inten    --     19.4930                43.7044                 1.3043

                     28                     29                     30
                      A                      A                      A
 Frequencies --   1173.4700              1203.5692              1211.4273
 Red. masses --      1.9574                 2.0811                 1.3360
 Frc consts  --      1.5881                 1.7762                 1.1552
 IR Inten    --      8.1757                 1.2217                 5.3106

                     31                     32                     33
                      A                      A                      A
 Frequencies --   1218.9903              1233.6389              1282.9269
 Red. masses --      1.3896                 1.3840                 1.4566
 Frc consts  --      1.2166                 1.2409                 1.4125
 IR Inten    --      9.2568                 1.4940                 2.9809

                     34                     35                     36
                      A                      A                      A
 Frequencies --   1299.6398              1340.3620              1343.7399
 Red. masses --      1.3884                 1.8145                 1.8148
 Frc consts  --      1.3817                 1.9207                 1.9307
 IR Inten    --      4.8698                23.1831                 0.4691

                     37                     38                     39
                      A                      A                      A
 Frequencies --   1357.6058              1398.0033              1436.3675
 Red. masses --      1.6218                 1.2704                 1.3469
 Frc consts  --      1.7611                 1.4628                 1.6372
 IR Inten    --      4.7921                22.1603                67.9082

                     40                     41                     42
                      A                      A                      A
 Frequencies --   1490.6685              1499.3035              2962.4621
 Red. masses --      1.2080                 1.0952                 1.0699
 Frc consts  --      1.5816                 1.4506                 5.5320
 IR Inten    --      2.4811                 0.5483                44.2612

                     43                     44                     45
                      A                      A                      A
 Frequencies --   3032.7512              3065.8813              3066.0837
 Red. masses --      1.0843                 1.0891                 1.0906
 Frc consts  --      5.8761                 6.0316                 6.0405
 IR Inten    --     37.7114                 2.7892                88.7373

                     46                     47                     48
                      A                      A                      A
 Frequencies --   3083.2944              3107.7457              3176.2696
 Red. masses --      1.0896                 1.0583                 1.0910
 Frc consts  --      6.1028                 6.0223                 6.4850
 IR Inten    --     41.4592                22.3716                17.0221

                     49                     50                     51
                      A                      A                      A
 Frequencies --   3192.4801              3205.1406              3775.7366
 Red. masses --      1.0995                 1.1066                 1.0652
 Frc consts  --      6.6027                 6.6978                 8.9475
 IR Inten    --      4.4328                16.6087                25.9893

 - Thermochemistry -
 -------------------
 Temperature   298.150 Kelvin.  Pressure   1.00000 Atm.
 Atom     1 has atomic number  8 and mass  15.99491

 Molecular mass:   126.06808 amu.
 Principal axes and moments of inertia in atomic units:
                           1         2         3
     Eigenvalues --   338.315641760.579121904.80110
           X            0.99998   0.00400  -0.00412
           Y           -0.00401   0.99999  -0.00197
           Z            0.00411   0.00198   0.99999
 This molecule is an asymmetric top.
 Rotational symmetry number  1.
 Rotational temperatures (Kelvin)      0.25601     0.04920     0.04547
 Rotational constants (GHZ):           5.33449     1.02508     0.94747
 Zero-point vibrational energy     420951.5 (Joules/Mol)
                                  100.60982 (Kcal/Mol)
 Warning -- explicit consideration of   9 degrees of freedom as
           vibrations may cause significant error
 Vibrational temperatures:    127.22   192.24   253.32   412.70   469.44
          (Kelvin)            496.83   687.51   714.64   790.11   985.71
                             1107.21  1167.20  1204.43  1244.67  1318.83
                             1350.26  1374.63  1397.10  1452.45  1483.74
                             1506.60  1527.82  1535.15  1539.43  1570.72
                             1576.90  1605.22  1688.36  1731.67  1742.97
                             1753.85  1774.93  1845.84  1869.89  1928.48
                             1933.34  1953.29  2011.41  2066.61  2144.74
                             2157.16  4262.32  4363.45  4411.11  4411.41
                             4436.17  4471.35  4569.94  4593.26  4611.48
                             5432.44

 Zero-point correction=                           0.160332 (Hartree/Particle)
 Thermal correction to Energy=                    0.168051
 Thermal correction to Enthalpy=                  0.168996
 Thermal correction to Gibbs Free Energy=         0.127959
 Sum of electronic and zero-point Energies=           -422.970572
 Sum of electronic and thermal Energies=              -422.962852
 Sum of electronic and thermal Enthalpies=            -422.961908
 Sum of electronic and thermal Free Energies=         -423.002944

                     E (Thermal)             CV                S
                      KCal/Mol        Cal/Mol-Kelvin    Cal/Mol-Kelvin
 Total                  105.454             30.259             86.368
 Electronic               0.000              0.000              0.000
 Translational            0.889              2.981             40.409
 Rotational               0.889              2.981             28.519
 Vibrational            103.676             24.298             17.440
 Vibration     1          0.601              1.957              3.695
 Vibration     2          0.613              1.920              2.893
 Vibration     3          0.628              1.872              2.370
 Vibration     4          0.684              1.698              1.493
 Vibration     5          0.710              1.623              1.278
 Vibration     6          0.724              1.585              1.187
 Vibration     7          0.834              1.299              0.716
 Vibration     8          0.852              1.257              0.666
 Vibration     9          0.904              1.142              0.546

 Optimization completed.
    -- Stationary point found.
 Normal termination of Gaussian 09 at Tue Jan 28 14:27:33 2020.
