 Gaussian 09, Revision D.01,
 Gaussian 09:  ES64L-G09RevD.01 24-Apr-2013

 -----------------------------
 # b3lyp 6-31G(2df,p) opt Freq
 -----------------------------

 -----
 titel
 -----
 Symbolic Z-matrix:
 Charge =  0 Multiplicity = 1

 SCF Done:  E(RB3LYP) =  -423.212138763     A.U. after   14 cycles
 Optimization completed.
    -- Stationary point found.
 Normal termination of Gaussian 09 at Mon Jan 27 22:03:29 2020.

 ----------------------------------------------------------------------
 #N Geom=AllCheck Guess=TCheck SCRF=Check GenChk RB3LYP/6-31G(2df,p) Fr
 eq
 ----------------------------------------------------------------------

 Structure from the checkpoint file:  "/scratch/puck/g09_165a1c66-d9d7-4a2a-b78e-b60978c6722e/Gau-53246.chk"
 -----
 titel
 -----
 Charge =  0 Multiplicity = 1

                         Standard orientation:
 ---------------------------------------------------------------------
 Center     Atomic      Atomic             Coordinates (Angstroms)
 Number     Number       Type             X           Y           Z
 ---------------------------------------------------------------------
      1          6           0       -0.080558    2.446021    0.097373
      2          6           0        0.250952    0.981281    0.004317
      3          6           0       -0.620576   -0.048451   -0.028726
      4          6           0       -0.131748   -1.479911   -0.073112
      5          6           0        1.330206   -1.563236    0.346653
      6          8           0        2.104654   -0.605693   -0.362050
      7          6           0        1.739251    0.710870   -0.038357
      8          6           0       -2.082408    0.130234   -0.027446
      9          8           0       -2.866601   -0.795865   -0.038224
     10          1           0        0.506200    2.911585    0.899077
     11          1           0        0.201789    2.959960   -0.830151
     12          1           0       -1.131360    2.653521    0.292602
     13          1           0       -0.762142   -2.095995    0.576204
     14          1           0       -0.256240   -1.882893   -1.085888
     15          1           0        1.426438   -1.398925    1.432898
     16          1           0        1.762192   -2.539518    0.112883
     17          1           0        2.168272    1.012470    0.937833
     18          1           0        2.205498    1.357919   -0.792435
     19          1           0       -2.455771    1.173493   -0.025046
 ---------------------------------------------------------------------

 SCF Done:  E(RB3LYP) =  -423.212138763     A.U. after    1 cycles

 The electronic state is 1-A.
 Alpha  occ. eigenvalues --  -19.14633 -19.12921 -10.26164 -10.24346 -10.23158
 Alpha  occ. eigenvalues --  -10.22028 -10.20231 -10.19742 -10.18571  -1.04413
 Alpha  occ. eigenvalues --   -1.03440  -0.83502  -0.78305  -0.71567  -0.68555
 Alpha  occ. eigenvalues --   -0.62856  -0.59514  -0.51764  -0.50767  -0.49026
 Alpha  occ. eigenvalues --   -0.46727  -0.45344  -0.43018  -0.42035  -0.41406
 Alpha  occ. eigenvalues --   -0.40891  -0.39507  -0.39174  -0.36923  -0.35397
 Alpha  occ. eigenvalues --   -0.31395  -0.26375  -0.25714  -0.24555
 Alpha virt. eigenvalues --   -0.05350   0.06067   0.08208   0.09135   0.11661
 Alpha virt. eigenvalues --    0.13218   0.14460   0.15100   0.15762   0.16253
 Alpha virt. eigenvalues --    0.17189   0.18293   0.20108   0.20933   0.22365

 Mulliken charges:
               1
     1  C   -0.489868
     2  C    0.185419
     3  C    0.105614
     4  C   -0.290086
     5  C   -0.102685
     6  O   -0.242751
     7  C   -0.137799
     8  C    0.082155
     9  O   -0.274549
    10  H    0.136785
    11  H    0.141469
    12  H    0.141506
    13  H    0.126106
    14  H    0.123830
    15  H    0.089541
    16  H    0.112774
    17  H    0.102313
    18  H    0.123460
    19  H    0.066765
 Sum of Mulliken charges =   0.00000

 Dipole moment (field-independent basis, Debye):
    X=              1.8472    Y=              2.3294    Z=              0.7164  Tot=              3.0581
 Quadrupole moment (field-independent basis, Debye-Ang):
   XX=            -64.9433   YY=            -48.4496   ZZ=            -52.7842
   XY=             -2.8880   XZ=              1.3298   YZ=             -0.8322

  Exact polarizability:  94.472  11.200  95.563   1.427   0.225  54.892
 Approx polarizability: 146.021  34.696 142.241   0.425   1.572  87.152

                      1                      2                      3
                      A                      A                      A
 Frequencies --     96.0860               120.4716               143.8426
 Red. masses --      2.5808                 1.3677                 1.9634
 Frc consts  --      0.0140                 0.0117                 0.0239
 IR Inten    --      3.7893                 1.5083                 0.4569

                      4                      5                      6
                      A                      A                      A
 Frequencies --    170.3069               234.1857               314.0013
 Red. masses --      2.2888                 5.7429                 2.0885
 Frc consts  --      0.0391                 0.1856                 0.1213
 IR Inten    --      1.7770                 7.6104                 9.0606

                      7                      8                      9
                      A                      A                      A
 Frequencies --    328.6861               352.1424               433.3628
 Red. masses --      3.2470                 2.1407                 4.1782
 Frc consts  --      0.2067                 0.1564                 0.4623
 IR Inten    --      1.4371                 2.9105                 4.7078

                     10                     11                     12
                      A                      A                      A
 Frequencies --    466.6784               522.7472               600.9427
 Red. masses --      2.9215                 3.2093                 5.6366
 Frc consts  --      0.3749                 0.5167                 1.1993
 IR Inten    --      2.4139                 0.7197                 7.6892

                     13                     14                     15
                      A                      A                      A
 Frequencies --    643.7369               754.7462               853.1191
 Red. masses --      2.5629                 4.0583                 2.1127
 Frc consts  --      0.6257                 1.3621                 0.9060
 IR Inten    --      2.1637                11.0870                 1.5397

                     16                     17                     18
                      A                      A                      A
 Frequencies --    917.9857               944.2538               949.4118
 Red. masses --      2.1663                 1.5436                 1.8732
 Frc consts  --      1.0756                 0.8109                 0.9948
 IR Inten    --      3.7708                 2.3599                 7.9382

                     19                     20                     21
                      A                      A                      A
 Frequencies --   1024.0372              1024.5090              1075.2001
 Red. masses --      1.8026                 2.1804                 1.7095
 Frc consts  --      1.1137                 1.3484                 1.1644
 IR Inten    --      1.6720                27.2173                 2.4722

                     22                     23                     24
                      A                      A                      A
 Frequencies --   1083.0529              1130.1081              1148.5352
 Red. masses --      2.4338                 2.4838                 4.2474
 Frc consts  --      1.6820                 1.8690                 3.3011
 IR Inten    --      4.8560                 2.8073                57.2419

                     25                     26                     27
                      A                      A                      A
 Frequencies --   1167.6794              1220.9048              1249.2211
 Red. masses --      4.6741                 1.3387                 1.2976
 Frc consts  --      3.7549                 1.1757                 1.1931
 IR Inten    --     47.1210                 9.5881                21.6297

                     28                     29                     30
                      A                      A                      A
 Frequencies --   1286.7093              1319.8170              1369.8241
 Red. masses --      1.7454                 1.2608                 1.5169
 Frc consts  --      1.7026                 1.2939                 1.6770
 IR Inten    --     44.1053                 8.1221                 1.4285

                     31                     32                     33
                      A                      A                      A
 Frequencies --   1390.5799              1406.7701              1417.5948
 Red. masses --      1.5247                 1.3158                 1.3770
 Frc consts  --      1.7371                 1.5342                 1.6303
 IR Inten    --     11.7483                 8.8498                 5.7734

                     34                     35                     36
                      A                      A                      A
 Frequencies --   1442.6133              1468.9556              1473.9012
 Red. masses --      1.2178                 1.0944                 1.0964
 Frc consts  --      1.4932                 1.3914                 1.4033
 IR Inten    --      2.1462                 1.1346                 2.1645

                     37                     38                     39
                      A                      A                      A
 Frequencies --   1479.9934              1491.0622              1503.0273
 Red. masses --      1.0520                 1.0840                 1.0996
 Frc consts  --      1.3576                 1.4200                 1.4635
 IR Inten    --      9.9274                10.4709                 1.9510

                     40                     41                     42
                      A                      A                      A
 Frequencies --   1698.7676              1770.9437              2912.7423
 Red. masses --      6.6369                10.4862                 1.0724
 Frc consts  --     11.2846                19.3767                 5.3605
 IR Inten    --     58.3226               233.1280                49.6765

                     43                     44                     45
                      A                      A                      A
 Frequencies --   2926.6177              2969.8166              3026.0282
 Red. masses --      1.0820                 1.0713                 1.0439
 Frc consts  --      5.4601                 5.5670                 5.6320
 IR Inten    --     99.8714                56.7336                17.5729

                     46                     47                     48
                      A                      A                      A
 Frequencies --   3035.5000              3042.0208              3069.7795
 Red. masses --      1.0656                 1.0843                 1.0980
 Frc consts  --      5.7850                 5.9120                 6.0962
 IR Inten    --     14.9897                30.3027                13.7670

                     49                     50                     51
                      A                      A                      A
 Frequencies --   3083.4344              3096.3304              3155.6386
 Red. masses --      1.0945                 1.0936                 1.0943
 Frc consts  --      6.1312                 6.1775                 6.4203
 IR Inten    --     12.5170                35.6607                13.1882

 - Thermochemistry -
 -------------------
 Temperature   298.150 Kelvin.  Pressure   1.00000 Atm.
 Atom     1 has atomic number  6 and mass  12.00000

 Molecular mass:   126.06808 amu.
 Principal axes and moments of inertia in atomic units:
                           1         2         3
     Eigenvalues --   773.994611253.779261953.06953
           X            0.99975  -0.02128   0.00732
           Y            0.02130   0.99977  -0.00326
           Z           -0.00725   0.00342   0.99997
 This molecule is an asymmetric top.
 Rotational symmetry number  1.
 Warning -- assumption of classical behavior for rotation
           may cause significant error
 Rotational temperatures (Kelvin)      0.11190     0.06908     0.04435
 Rotational constants (GHZ):           2.33172     1.43944     0.92405
 Zero-point vibrational energy     417547.1 (Joules/Mol)
                                   99.79615 (Kcal/Mol)
 Warning -- explicit consideration of  12 degrees of freedom as
           vibrations may cause significant error
 Vibrational temperatures:    138.25   173.33   206.96   245.03   336.94
          (Kelvin)            451.78   472.91   506.65   623.51   671.45
                              752.12   864.62   926.19  1085.91  1227.45
                             1320.78  1358.57  1365.99  1473.36  1474.04
                             1546.97  1558.27  1625.97  1652.48  1680.03
                             1756.61  1797.35  1851.29  1898.92  1970.87
                             2000.73  2024.03  2039.60  2075.60  2113.50
                             2120.61  2129.38  2145.30  2162.52  2444.14
                             2547.99  4190.78  4210.74  4272.90  4353.77
                             4367.40  4376.78  4416.72  4436.37  4454.92
                             4540.25

 Zero-point correction=                           0.159035 (Hartree/Particle)
 Thermal correction to Energy=                    0.167857
 Thermal correction to Enthalpy=                  0.168801
 Thermal correction to Gibbs Free Energy=         0.125371
 Sum of electronic and zero-point Energies=           -423.053103
 Sum of electronic and thermal Energies=              -423.044282
 Sum of electronic and thermal Enthalpies=            -423.043338
 Sum of electronic and thermal Free Energies=         -423.086768

                     E (Thermal)             CV                S
                      KCal/Mol        Cal/Mol-Kelvin    Cal/Mol-Kelvin
 Total                  105.332             32.467             91.406
 Electronic               0.000              0.000              0.000
 Translational            0.889              2.981             40.409
 Rotational               0.889              2.981             29.029
 Vibrational            103.554             26.506             21.969
 Vibration     1          0.603              1.952              3.532
 Vibration     2          0.609              1.932              3.093
 Vibration     3          0.616              1.909              2.752
 Vibration     4          0.625              1.879              2.432
 Vibration     5          0.654              1.789              1.847
 Vibration     6          0.702              1.647              1.341
 Vibration     7          0.712              1.618              1.267
 Vibration     8          0.729              1.571              1.157
 Vibration     9          0.794              1.398              0.848
 Vibration    10          0.824              1.324              0.747
 Vibration    11          0.878              1.200              0.604
 Vibration    12          0.959              1.030              0.448

 Normal termination of Gaussian 09 at Mon Jan 27 22:50:00 2020.
