 Gaussian 09, Revision D.01,
 Gaussian 09:  ES64L-G09RevD.01 24-Apr-2013

 -----------------------------
 # b3lyp 6-31G(2df,p) opt Freq
 -----------------------------

 -----
 titel
 -----
 Symbolic Z-matrix:
 Charge =  0 Multiplicity = 1

 SCF Done:  E(RB3LYP) =  -423.214994204     A.U. after   14 cycles
 Optimization completed.
    -- Stationary point found.
 Normal termination of Gaussian 09 at Tue Jan 28 08:13:11 2020.

 ----------------------------------------------------------------------
 #N Geom=AllCheck Guess=TCheck SCRF=Check GenChk RB3LYP/6-31G(2df,p) Fr
 eq
 ----------------------------------------------------------------------

 Structure from the checkpoint file:  "/scratch/puck/g09_2cc931f2-7bb9-4731-aedb-0bdeb7ce2234/Gau-92075.chk"
 -----
 titel
 -----
 Charge =  0 Multiplicity = 1

                         Standard orientation:
 ---------------------------------------------------------------------
 Center     Atomic      Atomic             Coordinates (Angstroms)
 Number     Number       Type             X           Y           Z
 ---------------------------------------------------------------------
      1          6           0       -3.121904   -0.585629    0.734184
      2          6           0       -2.312114   -0.378211   -0.560055
      3          6           0       -1.051226    0.426820   -0.287772
      4          8           0       -0.999157    1.620789   -0.485393
      5          6           0        0.155407   -0.336597    0.231358
      6          6           0        1.211613   -0.688755   -0.885825
      7          6           0        2.286243   -0.114554    0.055581
      8          8           0        3.476698   -0.212754    0.094396
      9          6           0        1.232343    0.501767    0.978204
     10          1           0       -4.026467   -1.164296    0.528934
     11          1           0       -2.544965   -1.126384    1.491285
     12          1           0       -3.421241    0.376361    1.159741
     13          1           0       -2.043671   -1.352032   -0.986667
     14          1           0       -2.910254    0.170804   -1.291756
     15          1           0       -0.146324   -1.234122    0.775143
     16          1           0        1.324298   -1.734473   -1.179576
     17          1           0        1.093384   -0.071193   -1.782478
     18          1           0        1.362518    0.354215    2.052249
     19          1           0        1.090219    1.567795    0.767057
 ---------------------------------------------------------------------

 SCF Done:  E(RB3LYP) =  -423.214994204     A.U. after    1 cycles

 The electronic state is 1-A.
 Alpha  occ. eigenvalues --  -19.13993 -19.13777 -10.27555 -10.27542 -10.21280
 Alpha  occ. eigenvalues --  -10.20654 -10.20137 -10.19759 -10.19590  -1.04998
 Alpha  occ. eigenvalues --   -1.04755  -0.85770  -0.79171  -0.69178  -0.68698
 Alpha  occ. eigenvalues --   -0.63835  -0.53821  -0.53138  -0.50447  -0.47798
 Alpha  occ. eigenvalues --   -0.45393  -0.45056  -0.44347  -0.41772  -0.41169
 Alpha  occ. eigenvalues --   -0.40613  -0.39051  -0.37378  -0.36649  -0.35444
 Alpha  occ. eigenvalues --   -0.34490  -0.33707  -0.25376  -0.24672
 Alpha virt. eigenvalues --   -0.02573  -0.02043   0.06988   0.10743   0.11317
 Alpha virt. eigenvalues --    0.12188   0.13117   0.14728   0.15048   0.16134
 Alpha virt. eigenvalues --    0.16849   0.17167   0.18218   0.20793   0.21401

 Mulliken charges:
               1
     1  C   -0.384901
     2  C   -0.274534
     3  C    0.379865
     4  O   -0.315444
     5  C   -0.102218
     6  C   -0.351309
     7  C    0.401294
     8  O   -0.285308
     9  C   -0.351991
    10  H    0.129076
    11  H    0.124764
    12  H    0.139996
    13  H    0.109853
    14  H    0.125063
    15  H    0.088135
    16  H    0.133480
    17  H    0.146306
    18  H    0.128664
    19  H    0.159210
 Sum of Mulliken charges =   0.00000

 Dipole moment (field-independent basis, Debye):
    X=             -3.0313    Y=             -2.2902    Z=              0.3561  Tot=              3.8159
 Quadrupole moment (field-independent basis, Debye-Ang):
   XX=            -63.9049   YY=            -55.6526   ZZ=            -50.9120
   XY=              3.6928   XZ=             -0.8879   YZ=              1.4783

  Exact polarizability:  96.547   0.481  69.123   0.801   2.309  67.184
 Approx polarizability: 127.106  -2.382 113.816   1.784   0.657  99.157

                      1                      2                      3
                      A                      A                      A
 Frequencies --     29.9359                52.4906                72.7462
 Red. masses --      3.4589                 3.2449                 3.6019
 Frc consts  --      0.0018                 0.0053                 0.0112
 IR Inten    --      0.2374                 0.6934                 4.7220

                      4                      5                      6
                      A                      A                      A
 Frequencies --    175.2546               195.0857               236.3695
 Red. masses --      3.1511                 1.7474                 1.6619
 Frc consts  --      0.0570                 0.0392                 0.0547
 IR Inten    --      4.3005                 1.5220                 1.7773

                      7                      8                      9
                      A                      A                      A
 Frequencies --    266.7160               368.6171               425.1552
 Red. masses --      4.1300                 2.7385                 1.9105
 Frc consts  --      0.1731                 0.2192                 0.2035
 IR Inten    --      8.7468                 1.6957                 1.5425

                     10                     11                     12
                      A                      A                      A
 Frequencies --    477.1390               569.3483               633.4984
 Red. masses --      3.6123                 3.3613                 2.6659
 Frc consts  --      0.4845                 0.6420                 0.6304
 IR Inten    --      2.5830                 7.4432                11.8105

                     13                     14                     15
                      A                      A                      A
 Frequencies --    676.6978               726.4221               741.4078
 Red. masses --      1.5924                 2.9591                 3.1091
 Frc consts  --      0.4296                 0.9200                 1.0069
 IR Inten    --      2.1144                 0.3842                 0.3014

                     16                     17                     18
                      A                      A                      A
 Frequencies --    811.7564               871.3506               915.7521
 Red. masses --      1.2842                 3.4042                 2.4006
 Frc consts  --      0.4986                 1.5228                 1.1861
 IR Inten    --      1.3038                16.9137                 3.3459

                     19                     20                     21
                      A                      A                      A
 Frequencies --    939.5991               988.1604              1005.0002
 Red. masses --      2.3978                 1.6730                 1.9746
 Frc consts  --      1.2472                 0.9625                 1.1750
 IR Inten    --      9.1835                 7.0761                 8.0165

                     22                     23                     24
                      A                      A                      A
 Frequencies --   1026.0447              1073.1450              1079.4214
 Red. masses --      1.8587                 2.8873                 2.3225
 Frc consts  --      1.1529                 1.9591                 1.5944
 IR Inten    --     25.3038                22.2477                15.6912

                     25                     26                     27
                      A                      A                      A
 Frequencies --   1106.1933              1176.6004              1194.8704
 Red. masses --      2.5676                 1.5489                 1.5831
 Frc consts  --      1.8512                 1.2634                 1.3317
 IR Inten    --     32.5641                 1.5244                58.0992

                     28                     29                     30
                      A                      A                      A
 Frequencies --   1204.3403              1233.2880              1242.7177
 Red. masses --      1.4476                 1.5541                 1.3203
 Frc consts  --      1.2371                 1.3927                 1.2014
 IR Inten    --     24.3753                 5.6461                 3.3944

                     31                     32                     33
                      A                      A                      A
 Frequencies --   1278.7409              1324.8546              1369.2993
 Red. masses --      1.1934                 1.4257                 1.8016
 Frc consts  --      1.1498                 1.4744                 1.9902
 IR Inten    --     13.0986                 1.4015                28.3557

                     34                     35                     36
                      A                      A                      A
 Frequencies --   1409.8750              1424.9487              1442.6331
 Red. masses --      1.2132                 1.0894                 1.1154
 Frc consts  --      1.4209                 1.3033                 1.3677
 IR Inten    --      1.8378                16.5768                 7.1630

                     37                     38                     39
                      A                      A                      A
 Frequencies --   1477.2278              1499.6602              1506.2318
 Red. masses --      1.0797                 1.0407                 1.0682
 Frc consts  --      1.3882                 1.3790                 1.4279
 IR Inten    --      2.7770                 6.2253                 7.0185

                     40                     41                     42
                      A                      A                      A
 Frequencies --   1800.2227              1899.3834              3038.2475
 Red. masses --     10.8445                12.4992                 1.0611
 Frc consts  --     20.7067                26.5680                 5.7710
 IR Inten    --    119.2315               329.1563                 9.2659

                     43                     44                     45
                      A                      A                      A
 Frequencies --   3042.3842              3053.5996              3059.1170
 Red. masses --      1.0359                 1.0585                 1.0607
 Frc consts  --      5.6493                 5.8152                 5.8483
 IR Inten    --     22.4088                 8.5957                 9.7293

                     46                     47                     48
                      A                      A                      A
 Frequencies --   3087.2193              3098.3231              3117.2426
 Red. masses --      1.0863                 1.0996                 1.1010
 Frc consts  --      6.1001                 6.2192                 6.3034
 IR Inten    --     14.8784                 0.5118                31.0815

                     49                     50                     51
                      A                      A                      A
 Frequencies --   3123.3383              3124.7965              3126.2176
 Red. masses --      1.1037                 1.1035                 1.1044
 Frc consts  --      6.3435                 6.3483                 6.3591
 IR Inten    --     18.8723                 8.8018                11.9473

 - Thermochemistry -
 -------------------
 Temperature   298.150 Kelvin.  Pressure   1.00000 Atm.
 Atom     1 has atomic number  6 and mass  12.00000

 Molecular mass:   126.06808 amu.
 Principal axes and moments of inertia in atomic units:
                           1         2         3
     Eigenvalues --   449.162432172.526142243.21775
           X            0.99980   0.01909  -0.00629
           Y           -0.01824   0.99325   0.11455
           Z            0.00844  -0.11441   0.99340
 This molecule is an asymmetric top.
 Rotational symmetry number  1.
 Warning -- assumption of classical behavior for rotation
           may cause significant error
 Rotational temperatures (Kelvin)      0.19283     0.03987     0.03861
 Rotational constants (GHZ):           4.01801     0.83071     0.80453
 Zero-point vibrational energy     411627.2 (Joules/Mol)
                                   98.38125 (Kcal/Mol)
 Warning -- explicit consideration of  11 degrees of freedom as
           vibrations may cause significant error
 Vibrational temperatures:     43.07    75.52   104.67   252.15   280.68
          (Kelvin)            340.08   383.74   530.36   611.70   686.50
                              819.16   911.46   973.62  1045.16  1066.72
                             1167.94  1253.68  1317.56  1351.87  1421.74
                             1445.97  1476.25  1544.01  1553.04  1591.56
                             1692.86  1719.15  1732.77  1774.42  1787.99
                             1839.82  1906.17  1970.11  2028.49  2050.18
                             2075.62  2125.40  2157.67  2167.13  2590.12
                             2732.79  4371.36  4377.31  4393.44  4401.38
                             4441.81  4457.79  4485.01  4493.78  4495.88
                             4497.92

 Zero-point correction=                           0.156781 (Hartree/Particle)
 Thermal correction to Energy=                    0.166326
 Thermal correction to Enthalpy=                  0.167270
 Thermal correction to Gibbs Free Energy=         0.120655
 Sum of electronic and zero-point Energies=           -423.058214
 Sum of electronic and thermal Energies=              -423.048668
 Sum of electronic and thermal Enthalpies=            -423.047724
 Sum of electronic and thermal Free Energies=         -423.094339

                     E (Thermal)             CV                S
                      KCal/Mol        Cal/Mol-Kelvin    Cal/Mol-Kelvin
 Total                  104.371             33.904             98.110
 Electronic               0.000              0.000              0.000
 Translational            0.889              2.981             40.409
 Rotational               0.889              2.981             29.172
 Vibrational            102.594             27.942             28.529
 Vibration     1          0.594              1.984              5.834
 Vibration     2          0.596              1.977              4.721
 Vibration     3          0.599              1.967              4.078
 Vibration     4          0.627              1.873              2.378
 Vibration     5          0.636              1.847              2.179
 Vibration     6          0.655              1.785              1.830
 Vibration     7          0.672              1.734              1.617
 Vibration     8          0.741              1.537              1.086
 Vibration     9          0.787              1.416              0.875
 Vibration    10          0.834              1.301              0.718
 Vibration    11          0.925              1.098              0.505

 Optimization completed.
    -- Stationary point found.
 Normal termination of Gaussian 09 at Tue Jan 28 08:52:15 2020.
