 Gaussian 09, Revision D.01,
 Gaussian 09:  ES64L-G09RevD.01 24-Apr-2013

 -----------------------------
 # b3lyp 6-31G(2df,p) opt Freq
 -----------------------------

 -----
 titel
 -----
 Symbolic Z-matrix:
 Charge =  0 Multiplicity = 1

 SCF Done:  E(RB3LYP) =  -423.163087060     A.U. after   14 cycles
 Optimization completed.
    -- Stationary point found.
 Normal termination of Gaussian 09 at Tue Jan 28 08:18:00 2020.

 ----------------------------------------------------------------------
 #N Geom=AllCheck Guess=TCheck SCRF=Check GenChk RB3LYP/6-31G(2df,p) Fr
 eq
 ----------------------------------------------------------------------

 Structure from the checkpoint file:  "/scratch/puck/g09_014659f3-51b8-40bb-b431-c55d0aa5bac3/Gau-14783.chk"
 -----
 titel
 -----
 Charge =  0 Multiplicity = 1

                         Standard orientation:
 ---------------------------------------------------------------------
 Center     Atomic      Atomic             Coordinates (Angstroms)
 Number     Number       Type             X           Y           Z
 ---------------------------------------------------------------------
      1          6           0       -3.884401    0.321450   -0.434169
      2          6           0       -2.759487   -0.607611    0.027032
      3          6           0       -1.366066    0.007289   -0.152097
      4          8           0       -1.229768    1.238423    0.539303
      5          6           0       -0.257839   -0.991467    0.257648
      6          6           0        1.089836   -0.483016    0.062281
      7          6           0        2.213050   -0.071696   -0.105758
      8          6           0        3.532694    0.459260   -0.322079
      9          8           0        4.556956   -0.068559    0.048260
     10          1           0       -3.828698    1.281455    0.085221
     11          1           0       -3.812286    0.521440   -1.508660
     12          1           0       -4.865686   -0.121222   -0.240990
     13          1           0       -2.894704   -0.863796    1.088645
     14          1           0       -2.802929   -1.556371   -0.522405
     15          1           0       -1.218464    0.268287   -1.206855
     16          1           0       -1.379577    1.073526    1.477592
     17          1           0       -0.392849   -1.267311    1.313764
     18          1           0       -0.375895   -1.922682   -0.311931
     19          1           0        3.546860    1.422516   -0.872043
 ---------------------------------------------------------------------

 SCF Done:  E(RB3LYP) =  -423.163087060     A.U. after    1 cycles

 The electronic state is 1-A.
 Alpha  occ. eigenvalues --  -19.14925 -19.13851 -10.28427 -10.25091 -10.22485
 Alpha  occ. eigenvalues --  -10.20955 -10.19698 -10.18841 -10.18230  -1.04415
 Alpha  occ. eigenvalues --   -1.03320  -0.81880  -0.78254  -0.74295  -0.67198
 Alpha  occ. eigenvalues --   -0.63795  -0.61074  -0.51756  -0.49857  -0.49454
 Alpha  occ. eigenvalues --   -0.46857  -0.45842  -0.44388  -0.44016  -0.40383
 Alpha  occ. eigenvalues --   -0.39488  -0.38231  -0.37154  -0.35185  -0.33240
 Alpha  occ. eigenvalues --   -0.29297  -0.28133  -0.27142  -0.26164
 Alpha virt. eigenvalues --   -0.05642   0.02786   0.06613   0.09092   0.10795
 Alpha virt. eigenvalues --    0.11088   0.12123   0.13917   0.14997   0.15487
 Alpha virt. eigenvalues --    0.16413   0.17520   0.18970   0.20369   0.22717

 Mulliken charges:
               1
     1  C   -0.387131
     2  C   -0.188547
     3  C    0.145621
     4  O   -0.418966
     5  C   -0.400129
     6  C    0.092830
     7  C    0.058583
     8  C    0.016969
     9  O   -0.231956
    10  H    0.130632
    11  H    0.119461
    12  H    0.114649
    13  H    0.089046
    14  H    0.101003
    15  H    0.102301
    16  H    0.280356
    17  H    0.132279
    18  H    0.144269
    19  H    0.098729
 Sum of Mulliken charges =   0.00000

 Dipole moment (field-independent basis, Debye):
    X=             -4.3729    Y=             -0.7616    Z=              0.2226  Tot=              4.4443
 Quadrupole moment (field-independent basis, Debye-Ang):
   XX=            -69.1604   YY=            -53.9259   ZZ=            -49.1965
   XY=              5.7258   XZ=             -3.8905   YZ=              0.3737

  Exact polarizability: 126.317   8.660  66.906  -2.197  -3.394  60.827
 Approx polarizability: 174.387  16.337 100.987  -4.068  -5.327  93.537

                      1                      2                      3
                      A                      A                      A
 Frequencies --     18.8200                52.5654                62.1409
 Red. masses --      4.2276                 3.5686                 4.7101
 Frc consts  --      0.0009                 0.0058                 0.0107
 IR Inten    --      9.3038                 1.9507                 2.2906

                      4                      5                      6
                      A                      A                      A
 Frequencies --    113.7862               163.5411               185.6196
 Red. masses --      2.0573                 5.7416                 2.8211
 Frc consts  --      0.0157                 0.0905                 0.0573
 IR Inten    --      0.1742                 3.5322                 5.3491

                      7                      8                      9
                      A                      A                      A
 Frequencies --    217.8834               238.4005               297.2398
 Red. masses --      1.5201                 2.1836                 1.0583
 Frc consts  --      0.0425                 0.0731                 0.0551
 IR Inten    --      0.1938                 1.0691               115.7531

                     10                     11                     12
                      A                      A                      A
 Frequencies --    326.2704               394.6694               407.7842
 Red. masses --      3.8406                 4.6842                 4.3270
 Frc consts  --      0.2409                 0.4299                 0.4239
 IR Inten    --      9.4112                13.7161                 1.6143

                     13                     14                     15
                      A                      A                      A
 Frequencies --    458.1569               553.7913               607.1000
 Red. masses --      2.0687                 3.3017                 6.6745
 Frc consts  --      0.2558                 0.5966                 1.4494
 IR Inten    --      3.9225                11.2903                 5.8561

                     16                     17                     18
                      A                      A                      A
 Frequencies --    780.7910               833.1293               849.4988
 Red. masses --      1.2913                 4.6990                 2.6854
 Frc consts  --      0.4638                 1.9217                 1.1418
 IR Inten    --      0.8202                58.9365                 6.9267

                     19                     20                     21
                      A                      A                      A
 Frequencies --    906.4885               992.2070              1008.5674
 Red. masses --      1.6049                 2.1276                 2.4205
 Frc consts  --      0.7770                 1.2341                 1.4506
 IR Inten    --     12.2113                34.7278                19.5058

                     22                     23                     24
                      A                      A                      A
 Frequencies --   1022.9711              1072.5717              1104.4120
 Red. masses --      1.7705                 2.1870                 1.6554
 Frc consts  --      1.0916                 1.4824                 1.1896
 IR Inten    --      0.7602                35.8590                22.8097

                     25                     26                     27
                      A                      A                      A
 Frequencies --   1140.5345              1161.2178              1192.8160
 Red. masses --      2.8305                 3.6236                 1.1433
 Frc consts  --      2.1694                 2.8789                 0.9584
 IR Inten    --     38.5394                48.5504                11.7539

                     28                     29                     30
                      A                      A                      A
 Frequencies --   1264.3007              1286.3978              1349.4557
 Red. masses --      1.3146                 1.2787                 1.4128
 Frc consts  --      1.2381                 1.2467                 1.5158
 IR Inten    --      5.0114                12.3784                 7.6901

                     31                     32                     33
                      A                      A                      A
 Frequencies --   1360.9769              1385.0885              1408.0657
 Red. masses --      1.3521                 1.5452                 1.2200
 Frc consts  --      1.4755                 1.7466                 1.4252
 IR Inten    --      4.4881                 1.4876                 9.6647

                     34                     35                     36
                      A                      A                      A
 Frequencies --   1421.5243              1424.6636              1450.3711
 Red. masses --      1.2055                 1.2002                 1.0954
 Frc consts  --      1.4353                 1.4353                 1.3576
 IR Inten    --     10.1566                32.4102                 2.2672

                     37                     38                     39
                      A                      A                      A
 Frequencies --   1482.4472              1495.5892              1508.8291
 Red. masses --      1.0789                 1.0401                 1.0613
 Frc consts  --      1.3970                 1.3708                 1.4235
 IR Inten    --      2.6518                 5.1697                 4.5367

                     40                     41                     42
                      A                      A                      A
 Frequencies --   1766.3172              2332.4390              2916.3197
 Red. masses --     10.5432                11.9390                 1.0815
 Frc consts  --     19.3803                38.2683                 5.4192
 IR Inten    --    271.7291               177.2290                90.9727

                     43                     44                     45
                      A                      A                      A
 Frequencies --   2998.8488              3006.4322              3040.3172
 Red. masses --      1.0656                 1.0637                 1.0485
 Frc consts  --      5.6462                 5.6646                 5.7104
 IR Inten    --     15.5656                16.2433                16.3056

                     46                     47                     48
                      A                      A                      A
 Frequencies --   3042.5026              3045.5702              3062.1546
 Red. masses --      1.0774                 1.0900                 1.0938
 Frc consts  --      5.8764                 5.9567                 6.0431
 IR Inten    --     21.2670                 3.3581                40.5545

                     49                     50                     51
                      A                      A                      A
 Frequencies --   3106.8859              3125.5382              3789.9685
 Red. masses --      1.1008                 1.1014                 1.0658
 Frc consts  --      6.2606                 6.3392                 9.0200
 IR Inten    --     33.5584                21.4680                14.4175

 - Thermochemistry -
 -------------------
 Temperature   298.150 Kelvin.  Pressure   1.00000 Atm.
 Atom     1 has atomic number  6 and mass  12.00000

 Molecular mass:   126.06808 amu.
 Principal axes and moments of inertia in atomic units:
                           1         2         3
     Eigenvalues --   288.318013491.662703640.85360
           X            0.99998   0.00576   0.00077
           Y           -0.00572   0.99906  -0.04288
           Z           -0.00101   0.04287   0.99908
 This molecule is an asymmetric top.
 Rotational symmetry number  1.
 Rotational temperatures (Kelvin)      0.30041     0.02481     0.02379
 Rotational constants (GHZ):           6.25955     0.51687     0.49569
 Zero-point vibrational energy     408129.8 (Joules/Mol)
                                   97.54537 (Kcal/Mol)
 Warning -- explicit consideration of  15 degrees of freedom as
           vibrations may cause significant error
 Vibrational temperatures:     27.08    75.63    89.41   163.71   235.30
          (Kelvin)            267.06   313.49   343.00   427.66   469.43
                              567.84   586.71   659.18   796.78   873.48
                             1123.38  1198.69  1222.24  1304.23  1427.56
                             1451.10  1471.83  1543.19  1589.00  1640.97
                             1670.73  1716.19  1819.04  1850.84  1941.56
                             1958.14  1992.83  2025.89  2045.25  2049.77
                             2086.76  2132.91  2151.82  2170.87  2541.33
                             3355.86  4195.93  4314.67  4325.58  4374.33
                             4377.48  4381.89  4405.75  4470.11  4496.95
                             5452.91

 Zero-point correction=                           0.155448 (Hartree/Particle)
 Thermal correction to Energy=                    0.166383
 Thermal correction to Enthalpy=                  0.167327
 Thermal correction to Gibbs Free Energy=         0.117158
 Sum of electronic and zero-point Energies=           -423.007639
 Sum of electronic and thermal Energies=              -422.996705
 Sum of electronic and thermal Enthalpies=            -422.995760
 Sum of electronic and thermal Free Energies=         -423.045929

                     E (Thermal)             CV                S
                      KCal/Mol        Cal/Mol-Kelvin    Cal/Mol-Kelvin
 Total                  104.407             36.953            105.589
 Electronic               0.000              0.000              0.000
 Translational            0.889              2.981             40.409
 Rotational               0.889              2.981             29.684
 Vibrational            102.629             30.991             35.496
 Vibration     1          0.593              1.986              6.755
 Vibration     2          0.596              1.977              4.718
 Vibration     3          0.597              1.972              4.388
 Vibration     4          0.607              1.938              3.203
 Vibration     5          0.623              1.887              2.508
 Vibration     6          0.632              1.860              2.271
 Vibration     7          0.646              1.814              1.977
 Vibration     8          0.656              1.782              1.815
 Vibration     9          0.691              1.679              1.432
 Vibration    10          0.710              1.623              1.278
 Vibration    11          0.762              1.482              0.982
 Vibration    12          0.772              1.453              0.934
 Vibration    13          0.816              1.343              0.771
 Vibration    14          0.909              1.131              0.536
 Vibration    15          0.966              1.017              0.438

 Optimization completed.
    -- Stationary point found.
 Normal termination of Gaussian 09 at Tue Jan 28 08:52:47 2020.
