 Gaussian 09, Revision D.01,
 Gaussian 09:  ES64L-G09RevD.01 24-Apr-2013

 -----------------------------
 # b3lyp 6-31G(2df,p) opt Freq
 -----------------------------

 -----
 titel
 -----
 Symbolic Z-matrix:
 Charge =  0 Multiplicity = 1

 SCF Done:  E(RB3LYP) =  -423.125664791     A.U. after   13 cycles
 Optimization completed.
    -- Stationary point found.
 Normal termination of Gaussian 09 at Tue Jan 28 09:45:01 2020.

 ----------------------------------------------------------------------
 #N Geom=AllCheck Guess=TCheck SCRF=Check GenChk RB3LYP/6-31G(2df,p) Fr
 eq
 ----------------------------------------------------------------------

 Structure from the checkpoint file:  "/scratch/puck/g09_9bd7903e-2905-4478-8eb2-6858df793ca8/Gau-132375.chk"
 -----
 titel
 -----
 Charge =  0 Multiplicity = 1

                         Standard orientation:
 ---------------------------------------------------------------------
 Center     Atomic      Atomic             Coordinates (Angstroms)
 Number     Number       Type             X           Y           Z
 ---------------------------------------------------------------------
      1          8           0        2.441673   -0.743702    0.255721
      2          6           0        1.711496    0.042421   -0.681784
      3          6           0        0.391227    0.484525   -0.128835
      4          6           0        0.254422    1.614422    0.866277
      5          6           0       -0.533474    1.688114   -0.406221
      6          6           0       -1.784713    0.801254   -0.277461
      7          6           0       -0.836074   -0.390830   -0.041773
      8          6           0       -0.999259   -1.776812   -0.476403
      9          8           0       -1.001953   -1.428147    0.919962
     10          1           0        1.806634   -1.277657    0.745156
     11          1           0        2.338804    0.908767   -0.920463
     12          1           0        1.557899   -0.516755   -1.619161
     13          1           0       -0.252744    1.459161    1.815276
     14          1           0        1.125740    2.258999    0.926019
     15          1           0       -0.396417    2.473523   -1.138158
     16          1           0       -2.458661    1.051472    0.547235
     17          1           0       -2.363918    0.701977   -1.198592
     18          1           0       -1.957546   -2.105891   -0.876930
     19          1           0       -0.139309   -2.357373   -0.808642
 ---------------------------------------------------------------------

 SCF Done:  E(RB3LYP) =  -423.125664791     A.U. after    1 cycles

 The electronic state is 1-A.
 Alpha  occ. eigenvalues --  -19.15438 -19.12985 -10.24781 -10.23745 -10.23052
 Alpha  occ. eigenvalues --  -10.20611 -10.20160 -10.19513 -10.19370  -1.07318
 Alpha  occ. eigenvalues --   -1.01094  -0.90412  -0.73505  -0.70565  -0.66312
 Alpha  occ. eigenvalues --   -0.62960  -0.58890  -0.53445  -0.52170  -0.50109
 Alpha  occ. eigenvalues --   -0.47104  -0.45561  -0.44192  -0.42974  -0.42122
 Alpha  occ. eigenvalues --   -0.39148  -0.36996  -0.35010  -0.33373  -0.32844
 Alpha  occ. eigenvalues --   -0.28658  -0.27090  -0.26583  -0.26197
 Alpha virt. eigenvalues --    0.06381   0.07785   0.10458   0.11190   0.11832
 Alpha virt. eigenvalues --    0.12528   0.13087   0.13711   0.14776   0.15471
 Alpha virt. eigenvalues --    0.16961   0.17916   0.19848   0.20438   0.21696

 Mulliken charges:
               1
     1  O   -0.426129
     2  C   -0.171155
     3  C    0.256239
     4  C   -0.320558
     5  C   -0.124517
     6  C   -0.338666
     7  C    0.399946
     8  C   -0.277830
     9  O   -0.281614
    10  H    0.292524
    11  H    0.104534
    12  H    0.084291
    13  H    0.119419
    14  H    0.120398
    15  H    0.097994
    16  H    0.114455
    17  H    0.112868
    18  H    0.118826
    19  H    0.118974
 Sum of Mulliken charges =   0.00000

 Dipole moment (field-independent basis, Debye):
    X=             -1.4351    Y=              0.9571    Z=             -1.7573  Tot=              2.4625
 Quadrupole moment (field-independent basis, Debye-Ang):
   XX=            -58.3257   YY=            -50.9948   ZZ=            -53.0816
   XY=              1.4457   XZ=              1.2382   YZ=              1.9073

  Exact polarizability:  78.118   0.987  82.057   1.601   3.340  65.418
 Approx polarizability: 107.187  -0.362 116.863   2.591   0.915 105.140

                      1                      2                      3
                      A                      A                      A
 Frequencies --     51.0882               108.2247               163.2633
 Red. masses --      5.0798                 3.6346                 3.4654
 Frc consts  --      0.0078                 0.0251                 0.0544
 IR Inten    --      6.7418                 1.1558                 1.5190

                      4                      5                      6
                      A                      A                      A
 Frequencies --    239.9976               275.6171               314.4017
 Red. masses --      1.8827                 1.2968                 2.6571
 Frc consts  --      0.0639                 0.0580                 0.1547
 IR Inten    --      8.2824                58.8942                14.7885

                      7                      8                      9
                      A                      A                      A
 Frequencies --    371.3441               387.2514               453.5423
 Red. masses --      3.0570                 2.5678                 2.1759
 Frc consts  --      0.2484                 0.2269                 0.2637
 IR Inten    --      2.8604                 0.7377                 2.8147

                     10                     11                     12
                      A                      A                      A
 Frequencies --    492.2657               568.6526               714.9348
 Red. masses --      3.3070                 4.5874                 3.1420
 Frc consts  --      0.4722                 0.8740                 0.9462
 IR Inten    --      4.4075                 9.4573                 3.1230

                     13                     14                     15
                      A                      A                      A
 Frequencies --    791.9833               836.0833               845.8586
 Red. masses --      2.6774                 3.0719                 2.2368
 Frc consts  --      0.9895                 1.2652                 0.9429
 IR Inten    --      4.8829                42.6515                 3.0223

                     16                     17                     18
                      A                      A                      A
 Frequencies --    888.3537               910.2910               931.1022
 Red. masses --      1.6632                 2.0654                 2.7722
 Frc consts  --      0.7733                 1.0083                 1.4160
 IR Inten    --      3.1487                 0.9377                17.5498

                     19                     20                     21
                      A                      A                      A
 Frequencies --    960.4320               982.5684              1018.2683
 Red. masses --      1.7915                 1.4779                 1.6874
 Frc consts  --      0.9736                 0.8407                 1.0308
 IR Inten    --     14.7797                 2.5772                13.0289

                     22                     23                     24
                      A                      A                      A
 Frequencies --   1038.5830              1051.8814              1088.4522
 Red. masses --      1.6881                 3.1193                 1.4544
 Frc consts  --      1.0728                 2.0335                 1.0152
 IR Inten    --      2.4507                97.2742                 0.8567

                     25                     26                     27
                      A                      A                      A
 Frequencies --   1097.5317              1122.8746              1134.8215
 Red. masses --      2.4818                 1.2695                 1.9345
 Frc consts  --      1.7614                 0.9431                 1.4678
 IR Inten    --     11.4269                 3.3347                 3.1809

                     28                     29                     30
                      A                      A                      A
 Frequencies --   1157.2817              1173.5682              1209.0695
 Red. masses --      1.3422                 1.4001                 1.4227
 Frc consts  --      1.0592                 1.1361                 1.2254
 IR Inten    --      1.1890                 9.8719                 2.6792

                     31                     32                     33
                      A                      A                      A
 Frequencies --   1246.0680              1260.5015              1304.6840
 Red. masses --      1.5757                 1.7773                 2.3432
 Frc consts  --      1.4415                 1.6638                 2.3501
 IR Inten    --      8.1649                 2.0147                 8.8570

                     34                     35                     36
                      A                      A                      A
 Frequencies --   1351.9549              1380.5250              1436.2011
 Red. masses --      1.2102                 2.3016                 2.1427
 Frc consts  --      1.3032                 2.5845                 2.6040
 IR Inten    --      6.6277                 4.4913                38.3755

                     37                     38                     39
                      A                      A                      A
 Frequencies --   1440.7656              1479.5980              1501.0640
 Red. masses --      1.4918                 1.1487                 1.2617
 Frc consts  --      1.8245                 1.4816                 1.6750
 IR Inten    --     64.3028                 2.4559                 2.5298

                     40                     41                     42
                      A                      A                      A
 Frequencies --   1514.5905              1538.1147              2969.3291
 Red. masses --      1.1019                 1.6010                 1.0709
 Frc consts  --      1.4893                 2.2316                 5.5629
 IR Inten    --      1.0697                11.8436                62.9847

                     43                     44                     45
                      A                      A                      A
 Frequencies --   3055.7832              3056.5867              3078.5988
 Red. masses --      1.0610                 1.0889                 1.0508
 Frc consts  --      5.8375                 5.9941                 5.8675
 IR Inten    --     39.9003                23.2462                24.9687

                     46                     47                     48
                      A                      A                      A
 Frequencies --   3110.5953              3113.7515              3163.1745
 Red. masses --      1.1066                 1.0564                 1.1192
 Frc consts  --      6.3088                 6.0344                 6.5976
 IR Inten    --     12.4343                17.5121                20.8915

                     49                     50                     51
                      A                      A                      A
 Frequencies --   3195.5682              3205.4734              3810.0711
 Red. masses --      1.0998                 1.1079                 1.0668
 Frc consts  --      6.6172                 6.7069                 9.1242
 IR Inten    --      6.2082                13.0285                22.6793

 - Thermochemistry -
 -------------------
 Temperature   298.150 Kelvin.  Pressure   1.00000 Atm.
 Atom     1 has atomic number  8 and mass  15.99491

 Molecular mass:   126.06808 amu.
 Principal axes and moments of inertia in atomic units:
                           1         2         3
     Eigenvalues --   831.059381025.235431516.68731
           X            0.99996   0.00661   0.00542
           Y           -0.00677   0.99947   0.03176
           Z           -0.00520  -0.03180   0.99948
 This molecule is an asymmetric top.
 Rotational symmetry number  1.
 Warning -- assumption of classical behavior for rotation
           may cause significant error
 Rotational temperatures (Kelvin)      0.10422     0.08448     0.05711
 Rotational constants (GHZ):           2.17162     1.76032     1.18992
 Zero-point vibrational energy     416256.1 (Joules/Mol)
                                   99.48760 (Kcal/Mol)
 Warning -- explicit consideration of  11 degrees of freedom as
           vibrations may cause significant error
 Vibrational temperatures:     73.50   155.71   234.90   345.30   396.55
          (Kelvin)            452.35   534.28   557.17   652.55   708.26
                              818.16  1028.63  1139.49  1202.94  1217.00
                             1278.14  1309.70  1339.65  1381.85  1413.70
                             1465.06  1494.29  1513.42  1566.04  1579.10
                             1615.56  1632.75  1665.07  1688.50  1739.58
                             1792.81  1813.58  1877.15  1945.16  1986.27
                             2066.37  2072.94  2128.81  2159.69  2179.16
                             2213.00  4272.20  4396.59  4397.74  4429.41
                             4475.45  4479.99  4551.10  4597.70  4611.96
                             5481.84

 Zero-point correction=                           0.158544 (Hartree/Particle)
 Thermal correction to Energy=                    0.167127
 Thermal correction to Enthalpy=                  0.168071
 Thermal correction to Gibbs Free Energy=         0.124977
 Sum of electronic and zero-point Energies=           -422.967121
 Sum of electronic and thermal Energies=              -422.958538
 Sum of electronic and thermal Enthalpies=            -422.957594
 Sum of electronic and thermal Free Energies=         -423.000688

                     E (Thermal)             CV                S
                      KCal/Mol        Cal/Mol-Kelvin    Cal/Mol-Kelvin
 Total                  104.873             32.543             90.699
 Electronic               0.000              0.000              0.000
 Translational            0.889              2.981             40.409
 Rotational               0.889              2.981             28.648
 Vibrational            103.096             26.582             21.642
 Vibration     1          0.595              1.977              4.775
 Vibration     2          0.606              1.943              3.301
 Vibration     3          0.623              1.888              2.512
 Vibration     4          0.657              1.779              1.803
 Vibration     5          0.677              1.718              1.561
 Vibration     6          0.702              1.646              1.339
 Vibration     7          0.743              1.531              1.074
 Vibration     8          0.756              1.497              1.011
 Vibration     9          0.812              1.353              0.785
 Vibration    10          0.848              1.267              0.678
 Vibration    11          0.925              1.099              0.507

 Optimization completed.
    -- Stationary point found.
 Normal termination of Gaussian 09 at Tue Jan 28 10:30:05 2020.
