 Gaussian 09, Revision D.01,
 Gaussian 09:  ES64L-G09RevD.01 24-Apr-2013

 -----------------------------
 # b3lyp 6-31G(2df,p) opt Freq
 -----------------------------

 -----
 titel
 -----
 Symbolic Z-matrix:
 Charge =  0 Multiplicity = 1

 SCF Done:  E(RB3LYP) =  -423.149140669     A.U. after   13 cycles
 Optimization completed.
    -- Stationary point found.
 Normal termination of Gaussian 09 at Tue Jan 28 09:18:56 2020.

 ----------------------------------------------------------------------
 #N Geom=AllCheck Guess=TCheck SCRF=Check GenChk RB3LYP/6-31G(2df,p) Fr
 eq
 ----------------------------------------------------------------------

 Structure from the checkpoint file:  "/scratch/puck/g09_abe40378-18b5-40cc-887d-bd3748fa256a/Gau-28611.chk"
 -----
 titel
 -----
 Charge =  0 Multiplicity = 1

                         Standard orientation:
 ---------------------------------------------------------------------
 Center     Atomic      Atomic             Coordinates (Angstroms)
 Number     Number       Type             X           Y           Z
 ---------------------------------------------------------------------
      1          8           0        2.598547    0.602944   -0.273178
      2          6           0        1.916816   -0.620920   -0.020090
      3          6           0        0.433583   -0.442498    0.047141
      4          6           0       -0.714049   -1.306104    0.598780
      5          6           0       -1.524800   -1.096796   -0.680812
      6          6           0       -0.529302    0.041262   -1.079932
      7          6           0       -1.025808    1.381288   -0.544880
      8          8           0       -1.191676    1.159502    0.865820
      9          6           0       -0.384695    0.050133    1.194641
     10          1           0        2.359646    1.214740    0.431449
     11          1           0        2.192888   -1.280483   -0.850784
     12          1           0        2.274358   -1.101601    0.905262
     13          1           0       -0.653820   -2.216028    1.186570
     14          1           0       -1.448947   -1.955437   -1.351924
     15          1           0       -2.577353   -0.814872   -0.569564
     16          1           0       -0.163840    0.059500   -2.105835
     17          1           0       -0.289598    2.180567   -0.721972
     18          1           0       -1.992755    1.688630   -0.956057
     19          1           0        0.013986    0.087220    2.202631
 ---------------------------------------------------------------------

 SCF Done:  E(RB3LYP) =  -423.149140669     A.U. after    1 cycles

 The electronic state is 1-A.
 Alpha  occ. eigenvalues --  -19.13828 -19.13607 -10.23479 -10.23297 -10.22615
 Alpha  occ. eigenvalues --  -10.19538 -10.19455 -10.19430 -10.18791  -1.04185
 Alpha  occ. eigenvalues --   -1.01596  -0.88693  -0.76024  -0.71354  -0.66801
 Alpha  occ. eigenvalues --   -0.62182  -0.57210  -0.53465  -0.52502  -0.48628
 Alpha  occ. eigenvalues --   -0.46920  -0.45356  -0.44466  -0.42334  -0.40991
 Alpha  occ. eigenvalues --   -0.39249  -0.36037  -0.33597  -0.33143  -0.32971
 Alpha  occ. eigenvalues --   -0.31021  -0.28195  -0.25443  -0.22885
 Alpha virt. eigenvalues --    0.06837   0.09708   0.10612   0.11476   0.12273
 Alpha virt. eigenvalues --    0.13384   0.14169   0.14920   0.15729   0.16325
 Alpha virt. eigenvalues --    0.17216   0.18664   0.19060   0.20235   0.22114

 Mulliken charges:
               1
     1  O   -0.412354
     2  C   -0.209929
     3  C    0.291551
     4  C   -0.169558
     5  C   -0.232770
     6  C   -0.117541
     7  C   -0.083951
     8  O   -0.272542
     9  C    0.054600
    10  H    0.283865
    11  H    0.111270
    12  H    0.088120
    13  H    0.084081
    14  H    0.103919
    15  H    0.100350
    16  H    0.081455
    17  H    0.093734
    18  H    0.107262
    19  H    0.098440
 Sum of Mulliken charges =   0.00000

 Dipole moment (field-independent basis, Debye):
    X=             -0.1256    Y=             -0.9835    Z=              0.0183  Tot=              0.9917
 Quadrupole moment (field-independent basis, Debye-Ang):
   XX=            -59.0013   YY=            -51.7455   ZZ=            -51.3514
   XY=              0.4359   XZ=              5.5930   YZ=             -0.7552

  Exact polarizability:  76.873   0.841  75.360   2.536  -2.226  69.900
 Approx polarizability: 107.434   1.878 111.327  -1.517  -1.600 107.693

                      1                      2                      3
                      A                      A                      A
 Frequencies --     90.0745               117.0483               237.5795
 Red. masses --      3.4351                 4.4634                 2.8811
 Frc consts  --      0.0164                 0.0360                 0.0958
 IR Inten    --      3.8389                 0.7618                 5.4208

                      4                      5                      6
                      A                      A                      A
 Frequencies --    255.7954               339.0481               376.0054
 Red. masses --      1.8667                 1.3714                 1.9767
 Frc consts  --      0.0720                 0.0929                 0.1647
 IR Inten    --     19.4240                65.9686                 0.9030

                      7                      8                      9
                      A                      A                      A
 Frequencies --    401.6962               498.8908               606.7435
 Red. masses --      2.9734                 3.0326                 3.8243
 Frc consts  --      0.2827                 0.4447                 0.8295
 IR Inten    --     47.4456                 1.9092                 5.6349

                     10                     11                     12
                      A                      A                      A
 Frequencies --    648.5273               754.7526               786.0978
 Red. masses --      3.9636                 4.1933                 3.8395
 Frc consts  --      0.9822                 1.4074                 1.3979
 IR Inten    --      2.0217                 3.5002                14.0871

                     13                     14                     15
                      A                      A                      A
 Frequencies --    833.1058               880.5923               881.4753
 Red. masses --      2.3163                 2.4688                 1.9022
 Frc consts  --      0.9472                 1.1279                 0.8708
 IR Inten    --     12.3603                 2.1917                 5.4556

                     16                     17                     18
                      A                      A                      A
 Frequencies --    921.6410               942.8146               971.9676
 Red. masses --      2.9732                 1.6195                 2.2175
 Frc consts  --      1.4880                 0.8482                 1.2343
 IR Inten    --     32.7865                 6.0357                 5.5305

                     19                     20                     21
                      A                      A                      A
 Frequencies --    999.6448              1014.5780              1037.1264
 Red. masses --      1.5648                 1.9033                 1.9700
 Frc consts  --      0.9213                 1.1543                 1.2484
 IR Inten    --     18.8974                 2.8382                23.3615

                     22                     23                     24
                      A                      A                      A
 Frequencies --   1044.2075              1052.9839              1084.1816
 Red. masses --      3.5705                 1.6642                 3.6631
 Frc consts  --      2.2938                 1.0872                 2.5369
 IR Inten    --     30.0347                 6.4176                78.2039

                     25                     26                     27
                      A                      A                      A
 Frequencies --   1101.3983              1143.2245              1160.7004
 Red. masses --      2.1488                 1.3752                 1.5798
 Frc consts  --      1.5358                 1.0590                 1.2540
 IR Inten    --      5.0516                 5.7764                29.1542

                     28                     29                     30
                      A                      A                      A
 Frequencies --   1168.9785              1232.5045              1240.7604
 Red. masses --      1.5609                 1.2717                 1.7244
 Frc consts  --      1.2567                 1.1382                 1.5641
 IR Inten    --      9.7222                 3.7604                11.0146

                     31                     32                     33
                      A                      A                      A
 Frequencies --   1252.6422              1287.6646              1296.2817
 Red. masses --      1.5543                 1.3843                 1.9601
 Frc consts  --      1.4370                 1.3523                 1.9406
 IR Inten    --      7.7635                 3.2000                 4.9328

                     34                     35                     36
                      A                      A                      A
 Frequencies --   1317.6586              1363.3475              1379.0704
 Red. masses --      1.6269                 1.3237                 1.3449
 Frc consts  --      1.6643                 1.4496                 1.5070
 IR Inten    --      0.4864                 1.5954                 0.3411

                     37                     38                     39
                      A                      A                      A
 Frequencies --   1420.0417              1453.1467              1492.8720
 Red. masses --      1.2326                 2.8709                 1.2023
 Frc consts  --      1.4644                 3.5718                 1.5787
 IR Inten    --     60.9460                15.3077                 2.3189

                     40                     41                     42
                      A                      A                      A
 Frequencies --   1502.3425              1509.9614              2970.7231
 Red. masses --      1.0840                 1.1070                 1.0705
 Frc consts  --      1.4415                 1.4870                 5.5664
 IR Inten    --      0.6032                 1.0109                59.0559

                     43                     44                     45
                      A                      A                      A
 Frequencies --   2985.5433              3042.9800              3058.2620
 Red. masses --      1.0681                 1.0604                 1.0914
 Frc consts  --      5.6091                 5.7850                 6.0142
 IR Inten    --     73.5667                48.0196                31.4135

                     46                     47                     48
                      A                      A                      A
 Frequencies --   3075.3954              3103.8667              3127.2989
 Red. masses --      1.0957                 1.1046                 1.0896
 Frc consts  --      6.1060                 6.2698                 6.2785
 IR Inten    --     37.3354                19.1046                25.5484

                     49                     50                     51
                      A                      A                      A
 Frequencies --   3164.0253              3179.6268              3807.4147
 Red. masses --      1.0906                 1.0928                 1.0660
 Frc consts  --      6.4329                 6.5091                 9.1048
 IR Inten    --     14.6636                22.4613                13.4150

 - Thermochemistry -
 -------------------
 Temperature   298.150 Kelvin.  Pressure   1.00000 Atm.
 Atom     1 has atomic number  8 and mass  15.99491

 Molecular mass:   126.06808 amu.
 Principal axes and moments of inertia in atomic units:
                           1         2         3
     Eigenvalues --   668.799521184.347881327.76426
           X            0.99942   0.00171   0.03412
           Y           -0.00003   0.99878  -0.04931
           Z           -0.03417   0.04928   0.99820
 This molecule is an asymmetric top.
 Rotational symmetry number  1.
 Warning -- assumption of classical behavior for rotation
           may cause significant error
 Rotational temperatures (Kelvin)      0.12951     0.07313     0.06523
 Rotational constants (GHZ):           2.69848     1.52383     1.35923
 Zero-point vibrational energy     422367.4 (Joules/Mol)
                                  100.94822 (Kcal/Mol)
 Warning -- explicit consideration of   9 degrees of freedom as
           vibrations may cause significant error
 Vibrational temperatures:    129.60   168.41   341.82   368.03   487.81
          (Kelvin)            540.99   577.95   717.79   872.97   933.08
                             1085.92  1131.02  1198.65  1266.97  1268.24
                             1326.03  1356.50  1398.44  1438.26  1459.75
                             1492.19  1502.38  1515.01  1559.89  1584.66
                             1644.84  1669.99  1681.90  1773.30  1785.18
                             1802.27  1852.66  1865.06  1895.81  1961.55
                             1984.17  2043.12  2090.75  2147.91  2161.53
                             2172.49  4274.20  4295.53  4378.16  4400.15
                             4424.80  4465.77  4499.48  4552.32  4574.77
                             5478.01

 Zero-point correction=                           0.160871 (Hartree/Particle)
 Thermal correction to Energy=                    0.168567
 Thermal correction to Enthalpy=                  0.169511
 Thermal correction to Gibbs Free Energy=         0.128575
 Sum of electronic and zero-point Energies=           -422.988269
 Sum of electronic and thermal Energies=              -422.980574
 Sum of electronic and thermal Enthalpies=            -422.979630
 Sum of electronic and thermal Free Energies=         -423.020566

                     E (Thermal)             CV                S
                      KCal/Mol        Cal/Mol-Kelvin    Cal/Mol-Kelvin
 Total                  105.777             30.185             86.156
 Electronic               0.000              0.000              0.000
 Translational            0.889              2.981             40.409
 Rotational               0.889              2.981             28.444
 Vibrational            104.000             24.224             17.304
 Vibration     1          0.602              1.956              3.658
 Vibration     2          0.608              1.935              3.149
 Vibration     3          0.656              1.783              1.821
 Vibration     4          0.666              1.753              1.690
 Vibration     5          0.719              1.597              1.217
 Vibration     6          0.747              1.521              1.055
 Vibration     7          0.767              1.466              0.956
 Vibration     8          0.854              1.252              0.661
 Vibration     9          0.965              1.018              0.438

 Optimization completed.
    -- Stationary point found.
 Normal termination of Gaussian 09 at Tue Jan 28 10:08:03 2020.
