 Gaussian 09, Revision D.01,
 Gaussian 09:  ES64L-G09RevD.01 24-Apr-2013

 -----------------------------
 # b3lyp 6-31G(2df,p) opt Freq
 -----------------------------

 -----
 titel
 -----
 Symbolic Z-matrix:
 Charge =  0 Multiplicity = 1

 SCF Done:  E(RB3LYP) =  -423.151249720     A.U. after   14 cycles
 Optimization completed.
    -- Stationary point found.
 Normal termination of Gaussian 09 at Mon Jan 27 23:03:51 2020.

 ----------------------------------------------------------------------
 #N Geom=AllCheck Guess=TCheck SCRF=Check GenChk RB3LYP/6-31G(2df,p) Fr
 eq
 ----------------------------------------------------------------------

 Structure from the checkpoint file:  "/scratch/puck/g09_f7e8313c-585c-46de-b6fa-de86a5fadc42/Gau-29547.chk"
 -----
 titel
 -----
 Charge =  0 Multiplicity = 1

                         Standard orientation:
 ---------------------------------------------------------------------
 Center     Atomic      Atomic             Coordinates (Angstroms)
 Number     Number       Type             X           Y           Z
 ---------------------------------------------------------------------
      1          6           0        2.750705   -0.762272   -0.145110
      2          6           0        1.490477    0.052719    0.064062
      3          8           0        1.565440    1.260594    0.204876
      4          6           0        0.208589   -0.752756    0.092750
      5          6           0       -1.057305   -0.399471    0.958674
      6          6           0       -1.816503   -1.416010    0.055974
      7          6           0       -0.980190   -0.550270   -0.928716
      8          6           0       -1.497514    0.680709   -0.092567
      9          8           0       -0.969154    1.949459   -0.165022
     10          1           0        3.616198   -0.103458   -0.216822
     11          1           0        2.885876   -1.461586    0.688343
     12          1           0        2.663143   -1.370127   -1.052870
     13          1           0        0.490183   -1.807649    0.175498
     14          1           0       -1.084074   -0.332774    2.047350
     15          1           0       -1.521166   -2.462262    0.150672
     16          1           0       -2.901701   -1.306594    0.002996
     17          1           0       -0.911772   -0.657447   -2.012341
     18          1           0       -2.584200    0.795168   -0.153694
     19          1           0       -0.012334    1.910412    0.021633
 ---------------------------------------------------------------------

 SCF Done:  E(RB3LYP) =  -423.151249720     A.U. after    1 cycles

 The electronic state is 1-A.
 Alpha  occ. eigenvalues --  -19.15014 -19.11048 -10.28748 -10.23380 -10.21063
 Alpha  occ. eigenvalues --  -10.20954 -10.20891 -10.19972 -10.19802  -1.06043
 Alpha  occ. eigenvalues --   -1.00543  -0.90880  -0.76965  -0.69404  -0.65044
 Alpha  occ. eigenvalues --   -0.63491  -0.58895  -0.52784  -0.50626  -0.50227
 Alpha  occ. eigenvalues --   -0.46914  -0.45461  -0.43136  -0.41858  -0.38790
 Alpha  occ. eigenvalues --   -0.38109  -0.37932  -0.37631  -0.34730  -0.33237
 Alpha  occ. eigenvalues --   -0.31811  -0.30267  -0.25735  -0.24114
 Alpha virt. eigenvalues --   -0.03807   0.08698   0.11019   0.11689   0.13480
 Alpha virt. eigenvalues --    0.13534   0.14004   0.14209   0.14869   0.16312
 Alpha virt. eigenvalues --    0.16684   0.18663   0.19751   0.20989   0.22138

 Mulliken charges:
               1
     1  C   -0.476066
     2  C    0.362732
     3  O   -0.329304
     4  C   -0.083857
     5  C   -0.124863
     6  C   -0.226461
     7  C   -0.118791
     8  C    0.198371
     9  O   -0.455157
    10  H    0.145331
    11  H    0.148820
    12  H    0.146731
    13  H    0.069430
    14  H    0.080015
    15  H    0.097789
    16  H    0.101311
    17  H    0.079218
    18  H    0.078974
    19  H    0.305778
 Sum of Mulliken charges =   0.00000

 Dipole moment (field-independent basis, Debye):
    X=              1.0223    Y=             -3.8648    Z=              0.0150  Tot=              3.9978
 Quadrupole moment (field-independent basis, Debye-Ang):
   XX=            -50.4088   YY=            -59.0484   ZZ=            -52.1940
   XY=             -0.7163   XZ=             -0.7366   YZ=              0.2981

  Exact polarizability:  90.812   0.310  78.151  -0.194   0.756  62.359
 Approx polarizability: 118.584   2.207 125.550   0.991   2.286  99.097

                      1                      2                      3
                      A                      A                      A
 Frequencies --     21.9494               154.8211               176.1899
 Red. masses --      4.5402                 1.5005                 1.7215
 Frc consts  --      0.0013                 0.0212                 0.0315
 IR Inten    --      0.5303                 0.2574                 0.2551

                      4                      5                      6
                      A                      A                      A
 Frequencies --    247.9945               293.4611               357.5614
 Red. masses --      4.0357                 6.4367                 3.9028
 Frc consts  --      0.1462                 0.3266                 0.2940
 IR Inten    --      5.0728                 1.1052                 2.7522

                      7                      8                      9
                      A                      A                      A
 Frequencies --    373.9445               490.6597               581.1276
 Red. masses --      3.6755                 2.8520                 2.3958
 Frc consts  --      0.3028                 0.4045                 0.4767
 IR Inten    --      1.4588                 1.6977                 1.4522

                     10                     11                     12
                      A                      A                      A
 Frequencies --    591.0394               641.0977               703.7925
 Red. masses --      4.1066                 3.9277                 1.1024
 Frc consts  --      0.8452                 0.9511                 0.3217
 IR Inten    --      8.5334                11.1664                68.6388

                     13                     14                     15
                      A                      A                      A
 Frequencies --    726.2608               803.6143               840.2618
 Red. masses --      3.3850                 3.0970                 2.2369
 Frc consts  --      1.0520                 1.1784                 0.9305
 IR Inten    --      2.1647                 6.0734                 0.7157

                     16                     17                     18
                      A                      A                      A
 Frequencies --    884.7286               890.4785               896.8527
 Red. masses --      2.1945                 2.1123                 3.6601
 Frc consts  --      1.0121                 0.9868                 1.7345
 IR Inten    --      2.5239                 2.8409                10.5634

                     19                     20                     21
                      A                      A                      A
 Frequencies --    964.9235              1001.2171              1016.2094
 Red. masses --      3.1075                 1.9415                 1.1119
 Frc consts  --      1.7047                 1.1467                 0.6765
 IR Inten    --      6.4810                18.6701                 0.9610

                     22                     23                     24
                      A                      A                      A
 Frequencies --   1031.8766              1054.5302              1081.2506
 Red. masses --      1.5130                 1.6959                 1.4136
 Frc consts  --      0.9491                 1.1111                 0.9737
 IR Inten    --      0.9888                10.2557                 2.5116

                     25                     26                     27
                      A                      A                      A
 Frequencies --   1096.1373              1111.5900              1164.3865
 Red. masses --      1.4929                 3.1775                 1.3100
 Frc consts  --      1.0568                 2.3133                 1.0464
 IR Inten    --      0.9021                 1.6071                 2.8714

                     28                     29                     30
                      A                      A                      A
 Frequencies --   1189.5365              1204.7424              1214.1363
 Red. masses --      2.4441                 2.1598                 1.4286
 Frc consts  --      2.0376                 1.8470                 1.2408
 IR Inten    --     30.5397                84.7218                 0.6214

                     31                     32                     33
                      A                      A                      A
 Frequencies --   1226.9667              1235.0848              1288.7368
 Red. masses --      1.9476                 1.5805                 2.5772
 Frc consts  --      1.7275                 1.4205                 2.5219
 IR Inten    --     34.2161                15.5996               136.6492

                     34                     35                     36
                      A                      A                      A
 Frequencies --   1379.7896              1387.6997              1440.6003
 Red. masses --      1.2546                 1.2429                 1.2827
 Frc consts  --      1.4073                 1.4102                 1.5684
 IR Inten    --     16.4112                41.2746                27.8421

                     37                     38                     39
                      A                      A                      A
 Frequencies --   1463.2778              1473.6668              1507.9486
 Red. masses --      1.0683                 1.0531                 1.1291
 Frc consts  --      1.3478                 1.3475                 1.5127
 IR Inten    --      4.8312                 8.1810                39.0760

                     40                     41                     42
                      A                      A                      A
 Frequencies --   1540.6282              1778.9741              3034.2359
 Red. masses --      1.1460                 9.0015                 1.0404
 Frc consts  --      1.6027                16.7843                 5.6433
 IR Inten    --     39.9925               133.8377                 0.6187

                     43                     44                     45
                      A                      A                      A
 Frequencies --   3047.1332              3060.2400              3069.4282
 Red. masses --      1.0797                 1.0804                 1.0588
 Frc consts  --      5.9068                 5.9613                 5.8775
 IR Inten    --     42.6162                28.7544                58.4616

                     46                     47                     48
                      A                      A                      A
 Frequencies --   3094.4521              3101.7380              3108.2277
 Red. masses --      1.0977                 1.0895                 1.0937
 Frc consts  --      6.1929                 6.1759                 6.2255
 IR Inten    --      3.9788                91.3997                10.4818

                     49                     50                     51
                      A                      A                      A
 Frequencies --   3135.2739              3157.2350              3542.2805
 Red. masses --      1.1113                 1.1020                 1.0667
 Frc consts  --      6.4361                 6.4722                 7.8861
 IR Inten    --     34.0231                 9.5021               406.8600

 - Thermochemistry -
 -------------------
 Temperature   298.150 Kelvin.  Pressure   1.00000 Atm.
 Atom     1 has atomic number  6 and mass  12.00000

 Molecular mass:   126.06808 amu.
 Principal axes and moments of inertia in atomic units:
                           1         2         3
     Eigenvalues --   670.867741233.019061667.87771
           X            0.99983  -0.01725  -0.00622
           Y            0.01727   0.99985   0.00296
           Z            0.00616  -0.00306   0.99998
 This molecule is an asymmetric top.
 Rotational symmetry number  1.
 Warning -- assumption of classical behavior for rotation
           may cause significant error
 Rotational temperatures (Kelvin)      0.12911     0.07025     0.05193
 Rotational constants (GHZ):           2.69016     1.46368     1.08206
 Zero-point vibrational energy     417975.2 (Joules/Mol)
                                   99.89846 (Kcal/Mol)
 Warning -- explicit consideration of  10 degrees of freedom as
           vibrations may cause significant error
 Vibrational temperatures:     31.58   222.75   253.50   356.81   422.22
          (Kelvin)            514.45   538.02   705.95   836.11   850.37
                              922.40  1012.60  1044.93  1156.22  1208.95
                             1272.93  1281.20  1290.37  1388.31  1440.53
                             1462.10  1484.64  1517.23  1555.68  1577.10
                             1599.33  1675.29  1711.48  1733.35  1746.87
                             1765.33  1777.01  1854.20  1985.21  1996.59
                             2072.70  2105.33  2120.28  2169.60  2216.62
                             2559.54  4365.58  4384.14  4403.00  4416.22
                             4452.22  4462.70  4472.04  4510.95  4542.55
                             5096.55

 Zero-point correction=                           0.159198 (Hartree/Particle)
 Thermal correction to Energy=                    0.167404
 Thermal correction to Enthalpy=                  0.168348
 Thermal correction to Gibbs Free Energy=         0.125411
 Sum of electronic and zero-point Energies=           -422.992051
 Sum of electronic and thermal Energies=              -422.983846
 Sum of electronic and thermal Enthalpies=            -422.982901
 Sum of electronic and thermal Free Energies=         -423.025839

                     E (Thermal)             CV                S
                      KCal/Mol        Cal/Mol-Kelvin    Cal/Mol-Kelvin
 Total                  105.048             31.646             90.369
 Electronic               0.000              0.000              0.000
 Translational            0.889              2.981             40.409
 Rotational               0.889              2.981             28.713
 Vibrational            103.270             25.684             21.247
 Vibration     1          0.593              1.985              6.450
 Vibration     2          0.620              1.897              2.612
 Vibration     3          0.628              1.872              2.368
 Vibration     4          0.662              1.766              1.745
 Vibration     5          0.688              1.686              1.454
 Vibration     6          0.733              1.560              1.133
 Vibration     7          0.745              1.526              1.064
 Vibration     8          0.846              1.271              0.682
 Vibration     9          0.938              1.072              0.483
 Vibration    10          0.948              1.051              0.465

 Optimization completed.
    -- Stationary point found.
 Normal termination of Gaussian 09 at Mon Jan 27 23:48:43 2020.
