 Gaussian 09, Revision D.01,
 Gaussian 09:  ES64L-G09RevD.01 24-Apr-2013

 -----------------------------
 # b3lyp 6-31G(2df,p) opt Freq
 -----------------------------

 -----
 titel
 -----
 Symbolic Z-matrix:
 Charge =  0 Multiplicity = 1

 SCF Done:  E(RB3LYP) =  -423.230313956     A.U. after   15 cycles
 Optimization completed.
    -- Stationary point found.
 Normal termination of Gaussian 09 at Mon Jan 27 22:04:02 2020.

 ----------------------------------------------------------------------
 #N Geom=AllCheck Guess=TCheck SCRF=Check GenChk RB3LYP/6-31G(2df,p) Fr
 eq
 ----------------------------------------------------------------------

 Structure from the checkpoint file:  "/scratch/puck/g09_23db25d3-7792-4de2-a91c-386f4e82f2f1/Gau-72681.chk"
 -----
 titel
 -----
 Charge =  0 Multiplicity = 1

                         Standard orientation:
 ---------------------------------------------------------------------
 Center     Atomic      Atomic             Coordinates (Angstroms)
 Number     Number       Type             X           Y           Z
 ---------------------------------------------------------------------
      1          6           0        2.004353    1.353799    0.513266
      2          6           0        0.919078    0.593117   -0.244516
      3          6           0       -0.541110    0.812737    0.205088
      4          8           0       -1.297721    1.707664   -0.599994
      5          6           0       -1.176024   -0.565368    0.133751
      6          6           0       -2.650681   -0.720766    0.286440
      7          6           0       -0.252367   -1.521973   -0.045990
      8          6           0        1.095418   -0.936352   -0.176606
      9          8           0        2.154813   -1.520467   -0.218405
     10          1           0        1.935511    2.433673    0.345296
     11          1           0        1.933663    1.173512    1.591488
     12          1           0        2.990396    1.014682    0.185763
     13          1           0        0.955784    0.855255   -1.310462
     14          1           0       -0.562080    1.150226    1.256269
     15          1           0       -0.960131    2.597107   -0.457033
     16          1           0       -2.982840   -0.325326    1.254632
     17          1           0       -3.167464   -0.132763   -0.479131
     18          1           0       -2.961272   -1.764994    0.210160
     19          1           0       -0.430303   -2.590107   -0.078393
 ---------------------------------------------------------------------

 SCF Done:  E(RB3LYP) =  -423.230313956     A.U. after    1 cycles

 The electronic state is 1-A.
 Alpha  occ. eigenvalues --  -19.14951 -19.11687 -10.25633 -10.24671 -10.21655
 Alpha  occ. eigenvalues --  -10.19349 -10.19084 -10.18700 -10.18081  -1.03262
 Alpha  occ. eigenvalues --   -1.02581  -0.85264  -0.77502  -0.72323  -0.68111
 Alpha  occ. eigenvalues --   -0.63040  -0.55026  -0.53288  -0.52873  -0.47183
 Alpha  occ. eigenvalues --   -0.45165  -0.43062  -0.42697  -0.41764  -0.39781
 Alpha  occ. eigenvalues --   -0.39133  -0.38564  -0.38467  -0.36542  -0.34194
 Alpha  occ. eigenvalues --   -0.32766  -0.28846  -0.26586  -0.23280
 Alpha virt. eigenvalues --   -0.04184   0.05274   0.07040   0.10799   0.11484
 Alpha virt. eigenvalues --    0.13189   0.13717   0.14843   0.16278   0.16893
 Alpha virt. eigenvalues --    0.17554   0.17960   0.21251   0.21518   0.23810

 Mulliken charges:
               1
     1  C   -0.410800
     2  C   -0.130299
     3  C    0.009292
     4  O   -0.434660
     5  C    0.328037
     6  C   -0.489273
     7  C   -0.302173
     8  C    0.387241
     9  O   -0.344979
    10  H    0.103372
    11  H    0.119047
    12  H    0.144582
    13  H    0.113267
    14  H    0.081436
    15  H    0.289796
    16  H    0.135403
    17  H    0.159296
    18  H    0.129796
    19  H    0.111620
 Sum of Mulliken charges =   0.00000

 Dipole moment (field-independent basis, Debye):
    X=             -2.4387    Y=              2.2098    Z=              0.9744  Tot=              3.4322
 Quadrupole moment (field-independent basis, Debye-Ang):
   XX=            -58.8354   YY=            -50.0908   ZZ=            -53.2445
   XY=              7.1890   XZ=             -1.1763   YZ=              0.3120

  Exact polarizability:  99.124  -3.491  84.046  -2.919   1.749  55.630
 Approx polarizability: 148.591 -22.696 125.022  -6.094   3.460  88.187

                      1                      2                      3
                      A                      A                      A
 Frequencies --     60.1022               139.0790               174.8612
 Red. masses --      4.0113                 1.6868                 1.6339
 Frc consts  --      0.0085                 0.0192                 0.0294
 IR Inten    --      1.5461                 0.1027                 1.0186

                      4                      5                      6
                      A                      A                      A
 Frequencies --    203.7724               234.2352               251.2057
 Red. masses --      1.0868                 2.5428                 2.1547
 Frc consts  --      0.0266                 0.0822                 0.0801
 IR Inten    --      0.4918                 2.0956                30.5385

                      7                      8                      9
                      A                      A                      A
 Frequencies --    259.2193               275.1331               331.8977
 Red. masses --      1.4740                 2.4132                 5.2390
 Frc consts  --      0.0584                 0.1076                 0.3400
 IR Inten    --     41.8717                27.1053                13.0509

                     10                     11                     12
                      A                      A                      A
 Frequencies --    420.1932               519.3133               550.5910
 Red. masses --      3.2541                 4.4471                 3.8971
 Frc consts  --      0.3385                 0.7066                 0.6961
 IR Inten    --      3.0366                 2.5697                 0.3612

                     13                     14                     15
                      A                      A                      A
 Frequencies --    578.6841               629.4818               708.8010
 Red. masses --      4.3474                 4.6437                 3.0013
 Frc consts  --      0.8578                 1.0841                 0.8884
 IR Inten    --      0.9461                 8.5754                 0.8000

                     16                     17                     18
                      A                      A                      A
 Frequencies --    797.1723               849.9463               903.4707
 Red. masses --      2.5752                 2.3550                 2.0651
 Frc consts  --      0.9642                 1.0024                 0.9932
 IR Inten    --      5.7973                 3.0940                 0.5647

                     19                     20                     21
                      A                      A                      A
 Frequencies --    912.2097              1007.0490              1049.5544
 Red. masses --      1.4109                 1.4702                 1.7195
 Frc consts  --      0.6917                 0.8785                 1.1160
 IR Inten    --     18.5547                22.7898                 2.5746

                     22                     23                     24
                      A                      A                      A
 Frequencies --   1050.2652              1087.3449              1109.7078
 Red. masses --      1.5846                 4.7415                 2.6766
 Frc consts  --      1.0299                 3.3030                 1.9420
 IR Inten    --     12.7511                66.0171                18.5837

                     25                     26                     27
                      A                      A                      A
 Frequencies --   1136.0186              1166.0996              1185.1627
 Red. masses --      1.8437                 3.0542                 1.7500
 Frc consts  --      1.4018                 2.4469                 1.4483
 IR Inten    --      1.0909                36.8712                39.6938

                     28                     29                     30
                      A                      A                      A
 Frequencies --   1221.3356              1251.6772              1287.5047
 Red. masses --      1.1110                 1.7319                 1.3695
 Frc consts  --      0.9764                 1.5987                 1.3376
 IR Inten    --     48.7181                23.8963                25.3887

                     31                     32                     33
                      A                      A                      A
 Frequencies --   1329.9429              1357.4964              1405.7962
 Red. masses --      2.0579                 1.7097                 1.2341
 Frc consts  --      2.1446                 1.8563                 1.4369
 IR Inten    --     16.4821                10.0866                 6.5436

                     34                     35                     36
                      A                      A                      A
 Frequencies --   1406.8217              1420.2931              1472.5380
 Red. masses --      1.3262                 1.5419                 1.0459
 Frc consts  --      1.5464                 1.8326                 1.3362
 IR Inten    --      5.3239                 5.0683                 8.2242

                     37                     38                     39
                      A                      A                      A
 Frequencies --   1479.6922              1493.6451              1500.0653
 Red. masses --      1.0749                 1.0476                 1.0480
 Frc consts  --      1.3866                 1.3771                 1.3895
 IR Inten    --     16.3707                 7.3412                 6.7595

                     40                     41                     42
                      A                      A                      A
 Frequencies --   1684.6982              1809.6064              2945.7510
 Red. masses --      7.2680                12.3114                 1.0812
 Frc consts  --     12.1537                23.7533                 5.5279
 IR Inten    --     55.8952               271.2001                36.2801

                     43                     44                     45
                      A                      A                      A
 Frequencies --   3027.3995              3030.2846              3033.6783
 Red. masses --      1.0811                 1.0403                 1.0369
 Frc consts  --      5.8378                 5.6284                 5.6226
 IR Inten    --      4.3468                14.0863                30.1658

                     46                     47                     48
                      A                      A                      A
 Frequencies --   3088.0257              3097.1907              3122.5215
 Red. masses --      1.0931                 1.1018                 1.0997
 Frc consts  --      6.1416                 6.2271                 6.3173
 IR Inten    --      7.2714                27.1244                 9.6554

                     49                     50                     51
                      A                      A                      A
 Frequencies --   3130.1326              3211.0479              3826.8339
 Red. masses --      1.1021                 1.0957                 1.0664
 Frc consts  --      6.3621                 6.6564                 9.2014
 IR Inten    --     13.5166                 5.7164                24.2733

 - Thermochemistry -
 -------------------
 Temperature   298.150 Kelvin.  Pressure   1.00000 Atm.
 Atom     1 has atomic number  6 and mass  12.00000

 Molecular mass:   126.06808 amu.
 Principal axes and moments of inertia in atomic units:
                           1         2         3
     Eigenvalues --   757.548721243.235061854.03246
           X            0.99369   0.11220   0.00015
           Y           -0.11219   0.99364   0.00923
           Z            0.00089  -0.00919   0.99996
 This molecule is an asymmetric top.
 Rotational symmetry number  1.
 Warning -- assumption of classical behavior for rotation
           may cause significant error
 Rotational temperatures (Kelvin)      0.11433     0.06967     0.04672
 Rotational constants (GHZ):           2.38234     1.45165     0.97341
 Zero-point vibrational energy     414054.8 (Joules/Mol)
                                   98.96146 (Kcal/Mol)
 Warning -- explicit consideration of  13 degrees of freedom as
           vibrations may cause significant error
 Vibrational temperatures:     86.47   200.10   251.59   293.18   337.01
          (Kelvin)            361.43   372.96   395.85   477.53   604.56
                              747.18   792.18   832.60   905.68  1019.81
                             1146.95  1222.88  1299.89  1312.46  1448.92
                             1510.07  1511.10  1564.44  1596.62  1634.48
                             1677.76  1705.18  1757.23  1800.88  1852.43
                             1913.49  1953.13  2022.62  2024.10  2043.48
                             2118.65  2128.94  2149.02  2158.26  2423.90
                             2603.62  4238.27  4355.75  4359.90  4364.78
                             4442.97  4456.16  4492.61  4503.56  4619.98
                             5505.95

 Zero-point correction=                           0.157705 (Hartree/Particle)
 Thermal correction to Energy=                    0.167147
 Thermal correction to Enthalpy=                  0.168091
 Thermal correction to Gibbs Free Energy=         0.123519
 Sum of electronic and zero-point Energies=           -423.072609
 Sum of electronic and thermal Energies=              -423.063167
 Sum of electronic and thermal Enthalpies=            -423.062223
 Sum of electronic and thermal Free Energies=         -423.106795

                     E (Thermal)             CV                S
                      KCal/Mol        Cal/Mol-Kelvin    Cal/Mol-Kelvin
 Total                  104.886             34.760             93.810
 Electronic               0.000              0.000              0.000
 Translational            0.889              2.981             40.409
 Rotational               0.889              2.981             28.947
 Vibrational            103.109             28.798             24.454
 Vibration     1          0.597              1.973              4.454
 Vibration     2          0.615              1.914              2.817
 Vibration     3          0.627              1.873              2.383
 Vibration     4          0.639              1.835              2.099
 Vibration     5          0.654              1.788              1.846
 Vibration     6          0.663              1.761              1.722
 Vibration     7          0.668              1.747              1.667
 Vibration     8          0.677              1.719              1.564
 Vibration     9          0.714              1.612              1.251
 Vibration    10          0.783              1.426              0.891
 Vibration    11          0.874              1.207              0.612
 Vibration    12          0.906              1.138              0.543
 Vibration    13          0.935              1.077              0.488

 Optimization completed.
    -- Stationary point found.
 Normal termination of Gaussian 09 at Mon Jan 27 22:46:35 2020.
