 Gaussian 09, Revision D.01,
 Gaussian 09:  ES64L-G09RevD.01 24-Apr-2013

 -----------------------------
 # b3lyp 6-31G(2df,p) opt Freq
 -----------------------------

 -----
 titel
 -----
 Symbolic Z-matrix:
 Charge =  0 Multiplicity = 1

 SCF Done:  E(RB3LYP) =  -423.157450150     A.U. after   14 cycles
 Optimization completed.
    -- Stationary point found.
 Normal termination of Gaussian 09 at Tue Jan 28 02:54:58 2020.

 ----------------------------------------------------------------------
 #N Geom=AllCheck Guess=TCheck SCRF=Check GenChk RB3LYP/6-31G(2df,p) Fr
 eq
 ----------------------------------------------------------------------

 Structure from the checkpoint file:  "/scratch/puck/g09_6e49e752-cca8-4a3b-a996-2cf731fef339/Gau-11339.chk"
 -----
 titel
 -----
 Charge =  0 Multiplicity = 1

                         Standard orientation:
 ---------------------------------------------------------------------
 Center     Atomic      Atomic             Coordinates (Angstroms)
 Number     Number       Type             X           Y           Z
 ---------------------------------------------------------------------
      1          6           0        2.533794   -0.655204   -0.599135
      2          6           0        1.021773   -0.626660   -0.508629
      3          8           0        0.561789   -1.358748    0.674026
      4          6           0        0.069267   -0.149267    1.242840
      5          6           0       -1.071830    0.415832    0.419012
      6          6           0       -2.019698   -0.442573   -0.329081
      7          8           0       -3.155552   -0.114615   -0.584292
      8          6           0        0.402976    0.672048    0.035963
      9          6           0        0.932373    2.063761   -0.151208
     10          1           0        2.881408   -0.074839   -1.460567
     11          1           0        2.990413   -0.248423    0.307810
     12          1           0        2.874175   -1.687318   -0.722281
     13          1           0        0.575213   -1.034921   -1.422743
     14          1           0        0.177328    0.000473    2.311443
     15          1           0       -1.537335    1.303296    0.839688
     16          1           0       -1.628810   -1.434728   -0.631282
     17          1           0        0.698092    2.446218   -1.151067
     18          1           0        0.488669    2.750945    0.575304
     19          1           0        2.019022    2.098572   -0.022752
 ---------------------------------------------------------------------

 SCF Done:  E(RB3LYP) =  -423.157450150     A.U. after    1 cycles

 The electronic state is 1-A.
 Alpha  occ. eigenvalues --  -19.15171 -19.12717 -10.26266 -10.25560 -10.25231
 Alpha  occ. eigenvalues --  -10.22247 -10.20431 -10.19856 -10.19038  -1.06657
 Alpha  occ. eigenvalues --   -1.03339  -0.85604  -0.77496  -0.72839  -0.66347
 Alpha  occ. eigenvalues --   -0.65088  -0.56905  -0.54157  -0.51006  -0.49201
 Alpha  occ. eigenvalues --   -0.48132  -0.43178  -0.42722  -0.41975  -0.41507
 Alpha  occ. eigenvalues --   -0.40191  -0.39134  -0.39008  -0.38692  -0.33872
 Alpha  occ. eigenvalues --   -0.32382  -0.29103  -0.26017  -0.23148
 Alpha virt. eigenvalues --   -0.01984   0.07014   0.08238   0.10375   0.11339
 Alpha virt. eigenvalues --    0.12577   0.13117   0.14140   0.14927   0.15580
 Alpha virt. eigenvalues --    0.17286   0.17855   0.18811   0.19298   0.20917

 Mulliken charges:
               1
     1  C   -0.403977
     2  C    0.076154
     3  O   -0.300422
     4  C    0.032381
     5  C   -0.188792
     6  C    0.146671
     7  O   -0.276468
     8  C    0.234853
     9  C   -0.499719
    10  H    0.121729
    11  H    0.126480
    12  H    0.134260
    13  H    0.088110
    14  H    0.115239
    15  H    0.107727
    16  H    0.092439
    17  H    0.133347
    18  H    0.130723
    19  H    0.129265
 Sum of Mulliken charges =   0.00000

 Dipole moment (field-independent basis, Debye):
    X=              3.5426    Y=              1.4712    Z=              0.2805  Tot=              3.8462
 Quadrupole moment (field-independent basis, Debye-Ang):
   XX=            -63.8942   YY=            -53.4380   ZZ=            -50.8439
   XY=              0.8052   XZ=             -4.0457   YZ=              2.5416

  Exact polarizability:  93.180  -1.056  72.546  -0.257   2.522  66.522
 Approx polarizability: 131.712  -4.146 106.059   3.567  -0.087 104.391

                      1                      2                      3
                      A                      A                      A
 Frequencies --     88.1671               134.6791               179.6067
 Red. masses --      4.7798                 3.9356                 2.4805
 Frc consts  --      0.0219                 0.0421                 0.0471
 IR Inten    --      4.6723                 1.6358                 4.6325

                      4                      5                      6
                      A                      A                      A
 Frequencies --    190.7365               230.7762               234.9252
 Red. masses --      1.1344                 2.0357                 1.8178
 Frc consts  --      0.0243                 0.0639                 0.0591
 IR Inten    --      0.5805                 0.0221                 1.7653

                      7                      8                      9
                      A                      A                      A
 Frequencies --    259.4294               352.1379               376.6252
 Red. masses --      1.4433                 2.6315                 2.9713
 Frc consts  --      0.0572                 0.1923                 0.2483
 IR Inten    --      0.6416                 0.6349                 1.2230

                     10                     11                     12
                      A                      A                      A
 Frequencies --    444.0807               512.3745               569.3147
 Red. masses --      4.4269                 3.7234                 4.3741
 Frc consts  --      0.5144                 0.5759                 0.8353
 IR Inten    --     20.4836                 1.5241                 0.8401

                     13                     14                     15
                      A                      A                      A
 Frequencies --    638.0261               770.3926               823.4439
 Red. masses --      3.4912                 2.6035                 2.8423
 Frc consts  --      0.8373                 0.9104                 1.1355
 IR Inten    --      3.0816                 1.4566                14.9587

                     16                     17                     18
                      A                      A                      A
 Frequencies --    872.0333               878.5848               924.8229
 Red. masses --      2.8074                 2.8987                 1.8266
 Frc consts  --      1.2578                 1.3183                 0.9205
 IR Inten    --      2.3156                21.8328                23.5431

                     19                     20                     21
                      A                      A                      A
 Frequencies --    997.9904              1010.0703              1035.6717
 Red. masses --      1.5932                 1.5717                 2.3191
 Frc consts  --      0.9349                 0.9448                 1.4656
 IR Inten    --      9.4487                47.0503                72.6819

                     22                     23                     24
                      A                      A                      A
 Frequencies --   1045.0860              1065.6164              1086.5702
 Red. masses --      1.4047                 2.1898                 1.9479
 Frc consts  --      0.9039                 1.4651                 1.3550
 IR Inten    --      2.5186                12.2169                13.0893

                     25                     26                     27
                      A                      A                      A
 Frequencies --   1113.2636              1134.0114              1148.0268
 Red. masses --      1.7425                 2.8376                 2.5296
 Frc consts  --      1.2724                 2.1500                 1.9643
 IR Inten    --      9.2646                42.7116                36.1204

                     28                     29                     30
                      A                      A                      A
 Frequencies --   1226.9309              1249.6266              1280.5966
 Red. masses --      1.3897                 1.7458                 2.1841
 Frc consts  --      1.2326                 1.6062                 2.1103
 IR Inten    --      1.4728                 9.7919                13.9956

                     31                     32                     33
                      A                      A                      A
 Frequencies --   1318.2957              1378.8218              1405.6149
 Red. masses --      1.5296                 1.3606                 1.3304
 Frc consts  --      1.5662                 1.5240                 1.5487
 IR Inten    --      9.7000                 4.0733                13.4967

                     34                     35                     36
                      A                      A                      A
 Frequencies --   1413.8648              1424.3054              1463.4390
 Red. masses --      1.3521                 1.4386                 2.0271
 Frc consts  --      1.5925                 1.7195                 2.5578
 IR Inten    --      7.6270                 0.9068                 7.1610

                     37                     38                     39
                      A                      A                      A
 Frequencies --   1484.3036              1486.1859              1492.6849
 Red. masses --      1.1253                 1.0607                 1.0523
 Frc consts  --      1.4607                 1.3803                 1.3814
 IR Inten    --      9.8730                 1.3599                 5.9532

                     40                     41                     42
                      A                      A                      A
 Frequencies --   1499.6272              1803.4218              2931.0902
 Red. masses --      1.0566                 9.5394                 1.0827
 Frc consts  --      1.4000                18.2795                 5.4804
 IR Inten    --      2.8172               246.1799                56.3298

                     43                     44                     45
                      A                      A                      A
 Frequencies --   3031.8855              3036.7430              3039.3856
 Red. masses --      1.0368                 1.0632                 1.0552
 Frc consts  --      5.6155                 5.7767                 5.7434
 IR Inten    --     23.2116                24.0156                23.6932

                     46                     47                     48
                      A                      A                      A
 Frequencies --   3094.1417              3107.8535              3111.1788
 Red. masses --      1.1003                 1.1006                 1.1006
 Frc consts  --      6.2063                 6.2635                 6.2764
 IR Inten    --     14.4526                16.4302                17.8096

                     49                     50                     51
                      A                      A                      A
 Frequencies --   3121.4888              3157.6772              3176.9537
 Red. masses --      1.1025                 1.0867                 1.0940
 Frc consts  --      6.3292                 6.3843                 6.5056
 IR Inten    --     19.4686                 3.0418                18.2661

 - Thermochemistry -
 -------------------
 Temperature   298.150 Kelvin.  Pressure   1.00000 Atm.
 Atom     1 has atomic number  6 and mass  12.00000

 Molecular mass:   126.06808 amu.
 Principal axes and moments of inertia in atomic units:
                           1         2         3
     Eigenvalues --   649.125601498.092151754.14491
           X            0.99975   0.00766  -0.02122
           Y           -0.00666   0.99889   0.04657
           Z            0.02156  -0.04642   0.99869
 This molecule is an asymmetric top.
 Rotational symmetry number  1.
 Warning -- assumption of classical behavior for rotation
           may cause significant error
 Rotational temperatures (Kelvin)      0.13343     0.05782     0.04938
 Rotational constants (GHZ):           2.78027     1.20469     1.02884
 Zero-point vibrational energy     411829.9 (Joules/Mol)
                                   98.42971 (Kcal/Mol)
 Warning -- explicit consideration of  12 degrees of freedom as
           vibrations may cause significant error
 Vibrational temperatures:    126.85   193.77   258.41   274.43   332.04
          (Kelvin)            338.00   373.26   506.65   541.88   638.93
                              737.19   819.12   917.98  1108.42  1184.75
                             1254.66  1264.09  1330.61  1435.88  1453.26
                             1490.10  1503.64  1533.18  1563.33  1601.74
                             1631.59  1651.75  1765.28  1797.93  1842.49
                             1896.73  1983.81  2022.36  2034.23  2049.26
                             2105.56  2135.58  2138.29  2147.64  2157.63
                             2594.72  4217.18  4362.20  4369.19  4372.99
                             4451.77  4471.50  4476.29  4491.12  4543.19
                             4570.92

 Zero-point correction=                           0.156858 (Hartree/Particle)
 Thermal correction to Energy=                    0.165967
 Thermal correction to Enthalpy=                  0.166912
 Thermal correction to Gibbs Free Energy=         0.123127
 Sum of electronic and zero-point Energies=           -423.000592
 Sum of electronic and thermal Energies=              -422.991483
 Sum of electronic and thermal Enthalpies=            -422.990539
 Sum of electronic and thermal Free Energies=         -423.034323

                     E (Thermal)             CV                S
                      KCal/Mol        Cal/Mol-Kelvin    Cal/Mol-Kelvin
 Total                  104.146             33.751             92.153
 Electronic               0.000              0.000              0.000
 Translational            0.889              2.981             40.409
 Rotational               0.889              2.981             28.924
 Vibrational            102.369             27.789             22.820
 Vibration     1          0.601              1.957              3.700
 Vibration     2          0.613              1.919              2.878
 Vibration     3          0.629              1.867              2.333
 Vibration     4          0.634              1.853              2.221
 Vibration     5          0.652              1.794              1.873
 Vibration     6          0.655              1.787              1.841
 Vibration     7          0.668              1.747              1.666
 Vibration     8          0.729              1.571              1.157
 Vibration     9          0.747              1.520              1.053
 Vibration    10          0.804              1.374              0.814
 Vibration    11          0.867              1.223              0.628
 Vibration    12          0.925              1.098              0.506

 Optimization completed.
    -- Stationary point found.
 Normal termination of Gaussian 09 at Tue Jan 28 03:42:34 2020.
