 Gaussian 09, Revision D.01,
 Gaussian 09:  ES64L-G09RevD.01 24-Apr-2013

 -----------------------------
 # b3lyp 6-31G(2df,p) opt Freq
 -----------------------------

 -----
 titel
 -----
 Symbolic Z-matrix:
 Charge =  0 Multiplicity = 1

 SCF Done:  E(RB3LYP) =  -423.177421893     A.U. after   13 cycles
 Optimization completed.
    -- Stationary point found.
 Normal termination of Gaussian 09 at Mon Jan 27 11:15:55 2020.

 ----------------------------------------------------------------------
 #N Geom=AllCheck Guess=TCheck SCRF=Check GenChk RB3LYP/6-31G(2df,p) Fr
 eq
 ----------------------------------------------------------------------

 Structure from the checkpoint file:  "/scratch/puck/g09_796ba686-c1b2-493e-996c-d837eb6a910c/Gau-149622.chk"
 -----
 titel
 -----
 Charge =  0 Multiplicity = 1

                         Standard orientation:
 ---------------------------------------------------------------------
 Center     Atomic      Atomic             Coordinates (Angstroms)
 Number     Number       Type             X           Y           Z
 ---------------------------------------------------------------------
      1          6           0        2.418112    0.191610    0.489108
      2          6           0        1.639832   -0.376851   -0.669706
      3          8           0        0.633035   -1.319963   -0.411977
      4          6           0       -0.289018   -0.769531    0.537233
      5          6           0       -1.746554   -0.983965    0.078413
      6          8           0       -2.334078    0.306466   -0.050899
      7          6           0       -1.291839    1.218412   -0.354419
      8          6           0       -0.099888    0.772556    0.512684
      9          6           0        1.262278    0.969344   -0.119748
     10          1           0        2.294741   -0.251349    1.471941
     11          1           0        3.419297    0.555168    0.283696
     12          1           0        2.108171   -0.533977   -1.633970
     13          1           0       -0.095889   -1.206965    1.522291
     14          1           0       -1.730023   -1.518040   -0.882375
     15          1           0       -2.350839   -1.551311    0.791544
     16          1           0       -1.021569    1.173110   -1.422845
     17          1           0       -1.652576    2.225386   -0.129662
     18          1           0       -0.184981    1.196739    1.517035
     19          1           0        1.464475    1.889771   -0.656036
 ---------------------------------------------------------------------

 SCF Done:  E(RB3LYP) =  -423.177421893     A.U. after    1 cycles

 The electronic state is 1-A.
 Alpha  occ. eigenvalues --  -19.14341 -19.13609 -10.23627 -10.23436 -10.22608
 Alpha  occ. eigenvalues --  -10.22312 -10.19517 -10.19477 -10.18739  -1.04991
 Alpha  occ. eigenvalues --   -1.02866  -0.85187  -0.77636  -0.73430  -0.62872
 Alpha  occ. eigenvalues --   -0.61164  -0.58422  -0.56440  -0.51697  -0.50897
 Alpha  occ. eigenvalues --   -0.46769  -0.45151  -0.44905  -0.42671  -0.40096
 Alpha  occ. eigenvalues --   -0.38787  -0.38167  -0.34978  -0.33179  -0.32710
 Alpha  occ. eigenvalues --   -0.32164  -0.28134  -0.25247  -0.23317
 Alpha virt. eigenvalues --    0.08269   0.09122   0.10005   0.11414   0.12669
 Alpha virt. eigenvalues --    0.14396   0.15055   0.15834   0.16125   0.16563
 Alpha virt. eigenvalues --    0.18307   0.18568   0.19708   0.21527   0.22236

 Mulliken charges:
               1
     1  C   -0.339631
     2  C    0.122302
     3  O   -0.274235
     4  C    0.070390
     5  C   -0.096911
     6  O   -0.249823
     7  C   -0.098105
     8  C   -0.048584
     9  C   -0.091505
    10  H    0.117557
    11  H    0.114612
    12  H    0.102443
    13  H    0.082744
    14  H    0.106470
    15  H    0.106303
    16  H    0.091280
    17  H    0.109252
    18  H    0.083151
    19  H    0.092291
 Sum of Mulliken charges =   0.00000

 Dipole moment (field-independent basis, Debye):
    X=              1.4066    Y=              0.9937    Z=              0.4378  Tot=              1.7770
 Quadrupole moment (field-independent basis, Debye-Ang):
   XX=            -56.2698   YY=            -53.1882   ZZ=            -51.2175
   XY=              2.8128   XZ=             -1.3596   YZ=             -1.8975

  Exact polarizability:  83.457   2.614  71.117  -1.004  -1.697  65.472
 Approx polarizability: 109.566   1.555 107.319  -2.239   0.048 101.352

                      1                      2                      3
                      A                      A                      A
 Frequencies --     77.1459               165.6077               247.4499
 Red. masses --      2.9714                 3.8570                 2.1828
 Frc consts  --      0.0104                 0.0623                 0.0787
 IR Inten    --      3.1269                 1.4931                 5.3341

                      4                      5                      6
                      A                      A                      A
 Frequencies --    322.2423               399.8282               440.9098
 Red. masses --      2.9126                 3.3366                 3.1282
 Frc consts  --      0.1782                 0.3143                 0.3583
 IR Inten    --      1.1082                 1.0128                 2.4582

                      7                      8                      9
                      A                      A                      A
 Frequencies --    592.2362               652.4956               701.0324
 Red. masses --      3.2127                 4.0750                 2.9577
 Frc consts  --      0.6639                 1.0222                 0.8564
 IR Inten    --      1.5558                 7.1816                 0.2956

                     10                     11                     12
                      A                      A                      A
 Frequencies --    731.6100               800.2997               806.3030
 Red. masses --      2.9682                 1.6158                 2.7800
 Frc consts  --      0.9360                 0.6097                 1.0649
 IR Inten    --      1.1680                18.5116                20.1334

                     13                     14                     15
                      A                      A                      A
 Frequencies --    837.0631               910.9073               926.3716
 Red. masses --      2.9335                 2.2471                 2.0689
 Frc consts  --      1.2110                 1.0986                 1.0461
 IR Inten    --      7.5855                 2.8189                11.3315

                     16                     17                     18
                      A                      A                      A
 Frequencies --    953.7555               981.6046               997.3995
 Red. masses --      4.3553                 2.2447                 2.0326
 Frc consts  --      2.3342                 1.2743                 1.1913
 IR Inten    --     35.7463                10.3970                21.3947

                     19                     20                     21
                      A                      A                      A
 Frequencies --   1012.8430              1042.5641              1050.5973
 Red. masses --      1.5841                 1.8540                 1.9568
 Frc consts  --      0.9575                 1.1873                 1.2725
 IR Inten    --      4.1656                 1.2646                12.7441

                     22                     23                     24
                      A                      A                      A
 Frequencies --   1075.7989              1087.5597              1107.7379
 Red. masses --      1.9695                 2.0357                 1.6745
 Frc consts  --      1.3430                 1.4187                 1.2106
 IR Inten    --      4.3415                19.5834                13.8871

                     25                     26                     27
                      A                      A                      A
 Frequencies --   1126.5912              1133.4172              1162.0216
 Red. masses --      2.6378                 2.5335                 2.8309
 Frc consts  --      1.9725                 1.9176                 2.2522
 IR Inten    --     43.9908                16.8829                72.2129

                     28                     29                     30
                      A                      A                      A
 Frequencies --   1198.6099              1228.7652              1255.0391
 Red. masses --      1.6501                 1.1617                 1.5833
 Frc consts  --      1.3968                 1.0334                 1.4694
 IR Inten    --      8.0905                17.8713                 6.3137

                     31                     32                     33
                      A                      A                      A
 Frequencies --   1276.4939              1287.6217              1310.9288
 Red. masses --      1.3181                 1.2750                 1.4007
 Frc consts  --      1.2654                 1.2455                 1.4183
 IR Inten    --      2.8499                 1.3889                 1.8626

                     34                     35                     36
                      A                      A                      A
 Frequencies --   1333.0611              1346.0165              1384.0953
 Red. masses --      1.3773                 1.2512                 1.7555
 Frc consts  --      1.4421                 1.3356                 1.9815
 IR Inten    --      3.3900                 4.2006                10.9580

                     37                     38                     39
                      A                      A                      A
 Frequencies --   1393.1167              1401.4101              1479.4342
 Red. masses --      1.5050                 1.3800                 1.2755
 Frc consts  --      1.7210                 1.5968                 1.6448
 IR Inten    --      5.5678                 3.8802                 9.4276

                     40                     41                     42
                      A                      A                      A
 Frequencies --   1503.7243              1518.6752              2965.6028
 Red. masses --      1.0809                 1.0975                 1.0707
 Frc consts  --      1.4400                 1.4914                 5.5481
 IR Inten    --      0.3659                 2.9571                52.7704

                     43                     44                     45
                      A                      A                      A
 Frequencies --   3007.7186              3040.0629              3068.2101
 Red. masses --      1.0663                 1.0863                 1.0853
 Frc consts  --      5.6836                 5.9151                 6.0197
 IR Inten    --     43.1478                18.5786                21.8857

                     46                     47                     48
                      A                      A                      A
 Frequencies --   3090.2065              3096.3608              3130.3600
 Red. masses --      1.0972                 1.0946                 1.0541
 Frc consts  --      6.1731                 6.1834                 6.0859
 IR Inten    --     43.5189                42.3605                11.5461

                     49                     50                     51
                      A                      A                      A
 Frequencies --   3168.7686              3186.5046              3218.0557
 Red. masses --      1.0899                 1.0944                 1.1156
 Frc consts  --      6.4476                 6.5474                 6.8068
 IR Inten    --     10.3705                14.9240                12.3865

 - Thermochemistry -
 -------------------
 Temperature   298.150 Kelvin.  Pressure   1.00000 Atm.
 Atom     1 has atomic number  6 and mass  12.00000

 Molecular mass:   126.06808 amu.
 Principal axes and moments of inertia in atomic units:
                           1         2         3
     Eigenvalues --   491.233771220.889111477.79879
           X            0.99978   0.02092   0.00259
           Y           -0.02083   0.99923  -0.03336
           Z           -0.00328   0.03330   0.99944
 This molecule is an asymmetric top.
 Rotational symmetry number  1.
 Warning -- assumption of classical behavior for rotation
           may cause significant error
 Rotational temperatures (Kelvin)      0.17632     0.07094     0.05861
 Rotational constants (GHZ):           3.67389     1.47822     1.22124
 Zero-point vibrational energy     426063.4 (Joules/Mol)
                                  101.83159 (Kcal/Mol)
 Warning -- explicit consideration of   7 degrees of freedom as
           vibrations may cause significant error
 Vibrational temperatures:    111.00   238.27   356.02   463.63   575.26
          (Kelvin)            634.37   852.09   938.79  1008.63  1052.62
                             1151.45  1160.09  1204.35  1310.59  1332.84
                             1372.24  1412.31  1435.03  1457.25  1500.02
                             1511.57  1547.83  1564.75  1593.79  1620.91
                             1630.73  1671.89  1724.53  1767.92  1805.72
                             1836.59  1852.60  1886.13  1917.98  1936.62
                             1991.40  2004.38  2016.31  2128.57  2163.52
                             2185.03  4266.84  4327.43  4373.97  4414.46
                             4446.11  4454.97  4503.88  4559.15  4584.66
                             4630.06

 Zero-point correction=                           0.162279 (Hartree/Particle)
 Thermal correction to Energy=                    0.169302
 Thermal correction to Enthalpy=                  0.170246
 Thermal correction to Gibbs Free Energy=         0.130593
 Sum of electronic and zero-point Energies=           -423.015143
 Sum of electronic and thermal Energies=              -423.008120
 Sum of electronic and thermal Enthalpies=            -423.007176
 Sum of electronic and thermal Free Energies=         -423.046829

                     E (Thermal)             CV                S
                      KCal/Mol        Cal/Mol-Kelvin    Cal/Mol-Kelvin
 Total                  106.239             28.130             83.457
 Electronic               0.000              0.000              0.000
 Translational            0.889              2.981             40.409
 Rotational               0.889              2.981             28.274
 Vibrational            104.461             22.169             14.774
 Vibration     1          0.599              1.964              3.962
 Vibration     2          0.624              1.885              2.485
 Vibration     3          0.661              1.767              1.749
 Vibration     4          0.707              1.631              1.299
 Vibration     5          0.766              1.470              0.963
 Vibration     6          0.801              1.381              0.824
 Vibration     7          0.950              1.048              0.463

 Optimization completed.
    -- Stationary point found.
 Normal termination of Gaussian 09 at Mon Jan 27 12:07:03 2020.
