 Gaussian 09, Revision D.01,
 Gaussian 09:  ES64L-G09RevD.01 24-Apr-2013

 -----------------------------
 # b3lyp 6-31G(2df,p) opt Freq
 -----------------------------

 -----
 titel
 -----
 Symbolic Z-matrix:
 Charge =  0 Multiplicity = 1

 SCF Done:  E(RB3LYP) =  -423.242648419     A.U. after   14 cycles
 Optimization completed.
    -- Stationary point found.
 Normal termination of Gaussian 09 at Tue Jan 28 00:47:08 2020.

 ----------------------------------------------------------------------
 #N Geom=AllCheck Guess=TCheck SCRF=Check GenChk RB3LYP/6-31G(2df,p) Fr
 eq
 ----------------------------------------------------------------------

 Structure from the checkpoint file:  "/scratch/puck/g09_339cae70-092e-4d07-8f96-ca03357d84b5/Gau-38348.chk"
 -----
 titel
 -----
 Charge =  0 Multiplicity = 1

                         Standard orientation:
 ---------------------------------------------------------------------
 Center     Atomic      Atomic             Coordinates (Angstroms)
 Number     Number       Type             X           Y           Z
 ---------------------------------------------------------------------
      1          6           0        1.376714    1.994489    0.075488
      2          6           0        0.589996    0.747110   -0.295909
      3          8           0       -0.780157    1.032023    0.066063
      4          6           0       -1.717321    0.052593   -0.030339
      5          8           0       -2.886330    0.337721    0.015651
      6          6           0       -1.216161   -1.337167   -0.111531
      7          6           0        0.063868   -1.627857    0.124194
      8          6           0        1.088440   -0.548539    0.360679
      9          6           0        2.472121   -0.967413   -0.159605
     10          1           0        1.385497    2.136129    1.160572
     11          1           0        2.408194    1.927476   -0.279235
     12          1           0        0.912393    2.872548   -0.379688
     13          1           0        0.617878    0.603974   -1.386673
     14          1           0       -1.975377   -2.092087   -0.276894
     15          1           0        0.399513   -2.662158    0.157370
     16          1           0        1.164734   -0.378834    1.446292
     17          1           0        2.773207   -1.921731    0.283254
     18          1           0        2.462014   -1.093031   -1.247853
     19          1           0        3.237906   -0.229531    0.091285
 ---------------------------------------------------------------------

 SCF Done:  E(RB3LYP) =  -423.242648419     A.U. after    1 cycles

 The electronic state is 1-A.
 Alpha  occ. eigenvalues --  -19.17024 -19.11276 -10.29845 -10.25414 -10.21513
 Alpha  occ. eigenvalues --  -10.21373 -10.19953 -10.19721 -10.18771  -1.08751
 Alpha  occ. eigenvalues --   -1.00784  -0.84046  -0.79064  -0.74003  -0.66930
 Alpha  occ. eigenvalues --   -0.62897  -0.61427  -0.54876  -0.50420  -0.49168
 Alpha  occ. eigenvalues --   -0.45302  -0.44810  -0.43063  -0.42249  -0.41222
 Alpha  occ. eigenvalues --   -0.39793  -0.39205  -0.38477  -0.36674  -0.36130
 Alpha  occ. eigenvalues --   -0.32371  -0.28658  -0.27827  -0.25991
 Alpha virt. eigenvalues --   -0.04423   0.07091   0.08759   0.10478   0.11121
 Alpha virt. eigenvalues --    0.11470   0.12917   0.14581   0.15671   0.16195
 Alpha virt. eigenvalues --    0.16960   0.19386   0.20063   0.20451   0.22369

 Mulliken charges:
               1
     1  C   -0.406686
     2  C    0.132004
     3  O   -0.256863
     4  C    0.411957
     5  O   -0.339780
     6  C   -0.217257
     7  C   -0.048795
     8  C   -0.056648
     9  C   -0.410151
    10  H    0.128486
    11  H    0.122406
    12  H    0.138207
    13  H    0.088144
    14  H    0.122198
    15  H    0.109557
    16  H    0.104165
    17  H    0.124159
    18  H    0.127077
    19  H    0.127820
 Sum of Mulliken charges =   0.00000

 Dipole moment (field-independent basis, Debye):
    X=              4.5938    Y=             -1.7991    Z=             -0.2492  Tot=              4.9398
 Quadrupole moment (field-independent basis, Debye-Ang):
   XX=            -62.3362   YY=            -50.7370   ZZ=            -52.5085
   XY=              3.7631   XZ=              0.7983   YZ=             -0.5569

  Exact polarizability: 101.568  -1.768  79.189   2.306  -0.018  55.034
 Approx polarizability: 155.611 -11.013 109.527   5.665  -0.217  87.734

                      1                      2                      3
                      A                      A                      A
 Frequencies --     78.7838               134.2986               203.2515
 Red. masses --      3.5289                 4.1963                 1.3088
 Frc consts  --      0.0129                 0.0446                 0.0319
 IR Inten    --      2.2516                 0.1784                 0.7929

                      4                      5                      6
                      A                      A                      A
 Frequencies --    215.2474               256.2271               296.1606
 Red. masses --      1.1646                 2.5162                 1.9378
 Frc consts  --      0.0318                 0.0973                 0.1001
 IR Inten    --      0.1496                 0.9098                 0.0665

                      7                      8                      9
                      A                      A                      A
 Frequencies --    321.7982               397.1740               436.0452
 Red. masses --      2.9489                 2.7613                 5.3599
 Frc consts  --      0.1799                 0.2566                 0.6004
 IR Inten    --      1.9952                 0.6847                 4.9301

                     10                     11                     12
                      A                      A                      A
 Frequencies --    474.2069               490.7428               594.5385
 Red. masses --      5.4552                 2.7730                 4.7871
 Frc consts  --      0.7228                 0.3935                 0.9970
 IR Inten    --      1.5329                 2.7787                 6.0668

                     13                     14                     15
                      A                      A                      A
 Frequencies --    691.2898               746.1182               805.8038
 Red. masses --      2.2259                 4.3883                 2.6634
 Frc consts  --      0.6267                 1.4393                 1.0189
 IR Inten    --      2.9167                 1.4272                 9.6662

                     16                     17                     18
                      A                      A                      A
 Frequencies --    848.1329               864.1489               921.8794
 Red. masses --      2.4354                 2.5157                 1.8576
 Frc consts  --      1.0322                 1.1068                 0.9301
 IR Inten    --     32.3923                 9.3240                 4.6556

                     19                     20                     21
                      A                      A                      A
 Frequencies --    972.3743               997.2671              1011.3481
 Red. masses --      1.3386                 2.1363                 1.2553
 Frc consts  --      0.7457                 1.2518                 0.7565
 IR Inten    --      3.0402                25.1578                 0.8264

                     22                     23                     24
                      A                      A                      A
 Frequencies --   1066.9126              1101.5785              1127.9047
 Red. masses --      3.3302                 1.8445                 2.1830
 Frc consts  --      2.2334                 1.3187                 1.6362
 IR Inten    --     29.3190                37.2562                64.9799

                     25                     26                     27
                      A                      A                      A
 Frequencies --   1138.3535              1149.6262              1207.8868
 Red. masses --      2.2843                 1.7929                 1.4859
 Frc consts  --      1.7440                 1.3961                 1.2773
 IR Inten    --     20.5168                 6.7273                 8.4696

                     28                     29                     30
                      A                      A                      A
 Frequencies --   1253.4868              1301.0240              1317.9597
 Red. masses --      2.1341                 1.5291                 1.4277
 Frc consts  --      1.9757                 1.5250                 1.4611
 IR Inten    --    113.9871                15.5857                25.9988

                     31                     32                     33
                      A                      A                      A
 Frequencies --   1374.6767              1391.8394              1398.8103
 Red. masses --      1.3412                 1.3847                 1.7419
 Frc consts  --      1.4933                 1.5805                 2.0082
 IR Inten    --      2.8208                 1.9475                35.4382

                     34                     35                     36
                      A                      A                      A
 Frequencies --   1411.5391              1417.9258              1486.6636
 Red. masses --      1.3355                 1.2546                 1.0535
 Frc consts  --      1.5678                 1.4861                 1.3719
 IR Inten    --      6.7270                10.3441                 6.1509

                     37                     38                     39
                      A                      A                      A
 Frequencies --   1495.3053              1499.4659              1505.2179
 Red. masses --      1.0506                 1.0610                 1.0437
 Frc consts  --      1.3841                 1.4055                 1.3933
 IR Inten    --      4.1941                 5.8564                 3.1276

                     40                     41                     42
                      A                      A                      A
 Frequencies --   1693.6928              1825.4941              2981.1667
 Red. masses --      7.5865                12.0947                 1.0793
 Frc consts  --     12.8221                23.7468                 5.6514
 IR Inten    --      3.4154               379.5061                 0.7034

                     43                     44                     45
                      A                      A                      A
 Frequencies --   2998.5387              3038.5788              3049.8396
 Red. masses --      1.0848                 1.0364                 1.0358
 Frc consts  --      5.7468                 5.6381                 5.6767
 IR Inten    --     38.3328                21.6610                11.8076

                     46                     47                     48
                      A                      A                      A
 Frequencies --   3104.5814              3120.9362              3125.1056
 Red. masses --      1.1013                 1.1011                 1.1008
 Frc consts  --      6.2540                 6.3190                 6.3344
 IR Inten    --     20.9909                21.4497                19.5216

                     49                     50                     51
                      A                      A                      A
 Frequencies --   3133.8077              3151.8877              3211.9595
 Red. masses --      1.1013                 1.0887                 1.0952
 Frc consts  --      6.3723                 6.3722                 6.6569
 IR Inten    --     15.5411                13.0551                 4.3545

 - Thermochemistry -
 -------------------
 Temperature   298.150 Kelvin.  Pressure   1.00000 Atm.
 Atom     1 has atomic number  6 and mass  12.00000

 Molecular mass:   126.06808 amu.
 Principal axes and moments of inertia in atomic units:
                           1         2         3
     Eigenvalues --   663.525131282.164911868.62175
           X            0.99969   0.02500   0.00000
           Y           -0.02500   0.99968   0.00258
           Z            0.00006  -0.00258   1.00000
 This molecule is an asymmetric top.
 Rotational symmetry number  1.
 Warning -- assumption of classical behavior for rotation
           may cause significant error
 Rotational temperatures (Kelvin)      0.13054     0.06755     0.04635
 Rotational constants (GHZ):           2.71993     1.40757     0.96581
 Zero-point vibrational energy     417727.6 (Joules/Mol)
                                   99.83929 (Kcal/Mol)
 Warning -- explicit consideration of  12 degrees of freedom as
           vibrations may cause significant error
 Vibrational temperatures:    113.35   193.23   292.43   309.69   368.65
          (Kelvin)            426.11   463.00   571.44   627.37   682.28
                              706.07   855.41   994.61  1073.50  1159.37
                             1220.27  1243.32  1326.38  1399.03  1434.84
                             1455.10  1535.05  1584.92  1622.80  1637.83
                             1654.05  1737.88  1803.49  1871.88  1896.25
                             1977.85  2002.54  2012.57  2030.89  2040.08
                             2138.97  2151.41  2157.39  2165.67  2436.84
                             2626.48  4289.23  4314.22  4371.83  4388.03
                             4466.79  4490.33  4496.32  4508.84  4534.86
                             4621.29

 Zero-point correction=                           0.159104 (Hartree/Particle)
 Thermal correction to Energy=                    0.167807
 Thermal correction to Enthalpy=                  0.168752
 Thermal correction to Gibbs Free Energy=         0.125817
 Sum of electronic and zero-point Energies=           -423.083544
 Sum of electronic and thermal Energies=              -423.074841
 Sum of electronic and thermal Enthalpies=            -423.073897
 Sum of electronic and thermal Free Energies=         -423.116832

                     E (Thermal)             CV                S
                      KCal/Mol        Cal/Mol-Kelvin    Cal/Mol-Kelvin
 Total                  105.301             32.922             90.364
 Electronic               0.000              0.000              0.000
 Translational            0.889              2.981             40.409
 Rotational               0.889              2.981             28.854
 Vibrational            103.523             26.961             21.102
 Vibration     1          0.600              1.963              3.921
 Vibration     2          0.613              1.919              2.884
 Vibration     3          0.639              1.835              2.103
 Vibration     4          0.645              1.818              1.999
 Vibration     5          0.666              1.752              1.687
 Vibration     6          0.690              1.681              1.439
 Vibration     7          0.707              1.632              1.301
 Vibration     8          0.764              1.476              0.973
 Vibration     9          0.796              1.392              0.839
 Vibration    10          0.831              1.307              0.726
 Vibration    11          0.847              1.271              0.682
 Vibration    12          0.952              1.043              0.459

 Optimization completed.
    -- Stationary point found.
 Normal termination of Gaussian 09 at Tue Jan 28 02:53:19 2020.
