 Gaussian 09, Revision D.01,
 Gaussian 09:  ES64L-G09RevD.01 24-Apr-2013

 -----------------------------
 # b3lyp 6-31G(2df,p) opt Freq
 -----------------------------

 -----
 titel
 -----
 Symbolic Z-matrix:
 Charge =  0 Multiplicity = 1

 SCF Done:  E(RB3LYP) =  -423.149705573     A.U. after   13 cycles
 Optimization completed.
    -- Stationary point found.
 Normal termination of Gaussian 09 at Mon Jan 27 22:01:24 2020.

 ----------------------------------------------------------------------
 #N Geom=AllCheck Guess=TCheck SCRF=Check GenChk RB3LYP/6-31G(2df,p) Fr
 eq
 ----------------------------------------------------------------------

 Structure from the checkpoint file:  "/scratch/puck/g09_bceaa4d4-fde0-4eeb-ba89-0179b6719ba5/Gau-26420.chk"
 -----
 titel
 -----
 Charge =  0 Multiplicity = 1

                         Standard orientation:
 ---------------------------------------------------------------------
 Center     Atomic      Atomic             Coordinates (Angstroms)
 Number     Number       Type             X           Y           Z
 ---------------------------------------------------------------------
      1          8           0       -2.384135    0.374416    0.172851
      2          6           0       -1.011420    0.144420   -0.008652
      3          6           0       -0.349338    1.472252   -0.329006
      4          8           0        1.054351    1.388945   -0.486224
      5          6           0        1.707393    0.639303    0.527862
      6          6           0        1.169155   -0.787060    0.575448
      7          6           0        0.861642   -1.384442   -0.842063
      8          6           0       -0.632992   -1.210167   -0.570378
      9          6           0       -0.340459   -0.833126    0.901875
     10          1           0       -2.792157   -0.430579    0.508703
     11          1           0       -0.741124    1.881840   -1.265258
     12          1           0       -0.613062    2.171402    0.482587
     13          1           0        2.768793    0.655624    0.260165
     14          1           0        1.593327    1.125422    1.511961
     15          1           0        1.791501   -1.423535    1.207481
     16          1           0        1.286393   -0.862265   -1.702199
     17          1           0        1.131027   -2.442752   -0.889495
     18          1           0       -1.419303   -1.847464   -0.962695
     19          1           0       -0.791004   -1.181658    1.825213
 ---------------------------------------------------------------------

 SCF Done:  E(RB3LYP) =  -423.149705573     A.U. after    1 cycles

 The electronic state is 1-A.
 Alpha  occ. eigenvalues --  -19.14618 -19.13660 -10.24021 -10.22422 -10.22248
 Alpha  occ. eigenvalues --  -10.19278 -10.19093 -10.18852 -10.18323  -1.03934
 Alpha  occ. eigenvalues --   -1.02535  -0.88582  -0.76319  -0.69038  -0.68458
 Alpha  occ. eigenvalues --   -0.62676  -0.55770  -0.53304  -0.52542  -0.48926
 Alpha  occ. eigenvalues --   -0.47177  -0.45826  -0.44351  -0.41830  -0.39664
 Alpha  occ. eigenvalues --   -0.38409  -0.36438  -0.36324  -0.33356  -0.32194
 Alpha  occ. eigenvalues --   -0.29868  -0.27544  -0.23816  -0.23525
 Alpha virt. eigenvalues --    0.06978   0.08642   0.09817   0.11968   0.13578
 Alpha virt. eigenvalues --    0.14433   0.15221   0.16071   0.16292   0.17044
 Alpha virt. eigenvalues --    0.18063   0.18333   0.19388   0.21204   0.22645

 Mulliken charges:
               1
     1  O   -0.484590
     2  C    0.420805
     3  C   -0.124937
     4  O   -0.247285
     5  C   -0.087523
     6  C   -0.050357
     7  C   -0.241524
     8  C   -0.139239
     9  C   -0.174688
    10  H    0.283400
    11  H    0.115415
    12  H    0.094808
    13  H    0.105978
    14  H    0.087578
    15  H    0.075043
    16  H    0.110646
    17  H    0.099235
    18  H    0.079198
    19  H    0.078039
 Sum of Mulliken charges =   0.00000

 Dipole moment (field-independent basis, Debye):
    X=             -0.0244    Y=             -2.0119    Z=              1.2484  Tot=              2.3678
 Quadrupole moment (field-independent basis, Debye-Ang):
   XX=            -52.0319   YY=            -53.5980   ZZ=            -52.6481
   XY=              1.8437   XZ=              0.3738   YZ=              0.1715

  Exact polarizability:  80.647  -1.938  74.402   1.207   1.550  67.579
 Approx polarizability: 112.902  -3.619 106.303   1.198   0.737 107.591

                      1                      2                      3
                      A                      A                      A
 Frequencies --    139.5383               195.5067               253.9775
 Red. masses --      1.1062                 2.1901                 4.0916
 Frc consts  --      0.0127                 0.0493                 0.1555
 IR Inten    --     90.1647                 0.3866                 2.3590

                      4                      5                      6
                      A                      A                      A
 Frequencies --    308.2809               338.2209               383.4581
 Red. masses --      2.8957                 3.4919                 2.2589
 Frc consts  --      0.1621                 0.2353                 0.1957
 IR Inten    --      2.0246                 5.7202                 3.4548

                      7                      8                      9
                      A                      A                      A
 Frequencies --    422.5833               472.2566               529.5662
 Red. masses --      2.7865                 5.2684                 3.3401
 Frc consts  --      0.2932                 0.6923                 0.5519
 IR Inten    --      0.8368                 0.2209                 0.8522

                     10                     11                     12
                      A                      A                      A
 Frequencies --    612.6169               711.7841               737.7473
 Red. masses --      3.9400                 3.9459                 3.1898
 Frc consts  --      0.8712                 1.1779                 1.0229
 IR Inten    --      1.9011                 4.6479                11.9899

                     13                     14                     15
                      A                      A                      A
 Frequencies --    812.9658               843.8017               891.4876
 Red. masses --      1.9911                 1.5902                 2.5123
 Frc consts  --      0.7753                 0.6671                 1.1764
 IR Inten    --      7.2029                11.6647                10.9318

                     16                     17                     18
                      A                      A                      A
 Frequencies --    911.6579               923.6968               974.9957
 Red. masses --      2.5245                 2.3656                 1.2776
 Frc consts  --      1.2362                 1.1892                 0.7156
 IR Inten    --     13.4789                13.4235                 1.8770

                     19                     20                     21
                      A                      A                      A
 Frequencies --    988.1852              1009.7067              1046.7793
 Red. masses --      2.4948                 2.1004                 1.9580
 Frc consts  --      1.4354                 1.2617                 1.2641
 IR Inten    --     10.2145                 1.7643                23.8053

                     22                     23                     24
                      A                      A                      A
 Frequencies --   1056.8456              1079.2334              1100.5949
 Red. masses --      1.8461                 2.0388                 2.0910
 Frc consts  --      1.2149                 1.3991                 1.4923
 IR Inten    --     20.0935                 4.1969                 2.0940

                     25                     26                     27
                      A                      A                      A
 Frequencies --   1126.7232              1140.2619              1169.6482
 Red. masses --      1.9944                 2.1455                 1.8876
 Frc consts  --      1.4917                 1.6436                 1.5215
 IR Inten    --     49.7946                80.9106                 5.3034

                     28                     29                     30
                      A                      A                      A
 Frequencies --   1192.9015              1228.4422              1248.1746
 Red. masses --      2.0435                 1.5541                 1.4638
 Frc consts  --      1.7133                 1.3818                 1.3436
 IR Inten    --     44.0483                 1.1353                 0.1509

                     31                     32                     33
                      A                      A                      A
 Frequencies --   1263.3473              1284.1722              1317.1058
 Red. masses --      1.3056                 1.5676                 1.4976
 Frc consts  --      1.2277                 1.5231                 1.5307
 IR Inten    --     18.5820                 5.1610                 7.5780

                     34                     35                     36
                      A                      A                      A
 Frequencies --   1322.2345              1335.0851              1394.8483
 Red. masses --      1.4200                 1.5077                 1.3959
 Frc consts  --      1.4627                 1.5834                 1.6001
 IR Inten    --      1.0893                 4.1158                 1.0939

                     37                     38                     39
                      A                      A                      A
 Frequencies --   1425.5005              1461.2398              1489.1577
 Red. masses --      1.5423                 2.7117                 1.1149
 Frc consts  --      1.8465                 3.4114                 1.4567
 IR Inten    --      9.2223                41.9530                 1.9909

                     40                     41                     42
                      A                      A                      A
 Frequencies --   1494.7266              1501.6790              2961.4437
 Red. masses --      1.1769                 1.0976                 1.0697
 Frc consts  --      1.5493                 1.4583                 5.5272
 IR Inten    --      8.3889                 1.2171                39.8023

                     43                     44                     45
                      A                      A                      A
 Frequencies --   2967.8478              3059.3789              3072.2188
 Red. masses --      1.0702                 1.0584                 1.0922
 Frc consts  --      5.5538                 5.8364                 6.0736
 IR Inten    --     93.5626                39.4994                21.2143

                     46                     47                     48
                      A                      A                      A
 Frequencies --   3077.7463              3089.1988              3114.4553
 Red. masses --      1.0920                 1.0877                 1.1072
 Frc consts  --      6.0942                 6.1158                 6.3276
 IR Inten    --     31.0276                41.9881                23.7084

                     49                     50                     51
                      A                      A                      A
 Frequencies --   3154.0459              3167.0799              3812.2685
 Red. masses --      1.0882                 1.0961                 1.0660
 Frc consts  --      6.3782                 6.4774                 9.1277
 IR Inten    --     21.3500                19.7621                16.7783

 - Thermochemistry -
 -------------------
 Temperature   298.150 Kelvin.  Pressure   1.00000 Atm.
 Atom     1 has atomic number  8 and mass  15.99491

 Molecular mass:   126.06808 amu.
 Principal axes and moments of inertia in atomic units:
                           1         2         3
     Eigenvalues --   690.68505 949.176041290.19704
           X            0.99991  -0.01155   0.00731
           Y            0.01140   0.99975   0.01908
           Z           -0.00753  -0.01899   0.99979
 This molecule is an asymmetric top.
 Rotational symmetry number  1.
 Warning -- assumption of classical behavior for rotation
           may cause significant error
 Rotational temperatures (Kelvin)      0.12540     0.09125     0.06713
 Rotational constants (GHZ):           2.61297     1.90138     1.39881
 Zero-point vibrational energy     422380.0 (Joules/Mol)
                                  100.95124 (Kcal/Mol)
 Warning -- explicit consideration of  10 degrees of freedom as
           vibrations may cause significant error
 Vibrational temperatures:    200.76   281.29   365.42   443.55   486.62
          (Kelvin)            551.71   608.00   679.47   761.93   881.42
                             1024.10  1061.45  1169.68  1214.04  1282.65
                             1311.67  1328.99  1402.80  1421.78  1452.74
                             1506.08  1520.56  1552.77  1583.51  1621.10
                             1640.58  1682.86  1716.32  1767.45  1795.84
                             1817.67  1847.64  1895.02  1902.40  1920.89
                             2006.87  2050.97  2102.40  2142.56  2150.58
                             2160.58  4260.85  4270.07  4401.76  4420.23
                             4428.18  4444.66  4481.00  4537.96  4556.72
                             5485.00

 Zero-point correction=                           0.160876 (Hartree/Particle)
 Thermal correction to Energy=                    0.168349
 Thermal correction to Enthalpy=                  0.169294
 Thermal correction to Gibbs Free Energy=         0.129398
 Sum of electronic and zero-point Energies=           -422.988830
 Sum of electronic and thermal Energies=              -422.981356
 Sum of electronic and thermal Enthalpies=            -422.980412
 Sum of electronic and thermal Free Energies=         -423.020307

                     E (Thermal)             CV                S
                      KCal/Mol        Cal/Mol-Kelvin    Cal/Mol-Kelvin
 Total                  105.641             30.347             83.967
 Electronic               0.000              0.000              0.000
 Translational            0.889              2.981             40.409
 Rotational               0.889              2.981             28.227
 Vibrational            103.863             24.385             15.331
 Vibration     1          0.615              1.914              2.810
 Vibration     2          0.636              1.846              2.175
 Vibration     3          0.665              1.756              1.703
 Vibration     4          0.698              1.658              1.372
 Vibration     5          0.719              1.599              1.221
 Vibration     6          0.753              1.505              1.025
 Vibration     7          0.785              1.421              0.883
 Vibration     8          0.829              1.312              0.731
 Vibration     9          0.885              1.185              0.588
 Vibration    10          0.972              1.005              0.428

 Optimization completed.
    -- Stationary point found.
 Normal termination of Gaussian 09 at Mon Jan 27 22:51:16 2020.
