 Gaussian 09, Revision D.01,
 Gaussian 09:  ES64L-G09RevD.01 24-Apr-2013

 -----------------------------
 # b3lyp 6-31G(2df,p) opt Freq
 -----------------------------

 -----
 titel
 -----
 Symbolic Z-matrix:
 Charge =  0 Multiplicity = 1

 SCF Done:  E(RB3LYP) =  -423.165491526     A.U. after   13 cycles
 Optimization completed.
    -- Stationary point found.
 Normal termination of Gaussian 09 at Mon Jan 27 22:04:26 2020.

 ----------------------------------------------------------------------
 #N Geom=AllCheck Guess=TCheck SCRF=Check GenChk RB3LYP/6-31G(2df,p) Fr
 eq
 ----------------------------------------------------------------------

 Structure from the checkpoint file:  "/scratch/puck/g09_e40840c0-078a-4672-af05-5a520b5b92ea/Gau-53136.chk"
 -----
 titel
 -----
 Charge =  0 Multiplicity = 1

                         Standard orientation:
 ---------------------------------------------------------------------
 Center     Atomic      Atomic             Coordinates (Angstroms)
 Number     Number       Type             X           Y           Z
 ---------------------------------------------------------------------
      1          8           0       -0.774882    1.814468   -0.671661
      2          6           0       -0.172478    0.722852   -0.037908
      3          6           0        1.197322    1.103593    0.521699
      4          6           0        2.002486   -0.206751    0.571261
      5          6           0        1.545347   -0.975753   -0.686580
      6          6           0        0.055425   -0.645833   -0.846326
      7          6           0       -0.883409   -1.310380    0.161700
      8          8           0       -2.133314   -0.601201    0.108043
      9          6           0       -1.077160   -0.067445    0.923882
     10          1           0       -1.663408    1.525979   -0.916507
     11          1           0        1.650874    1.808730   -0.183772
     12          1           0        1.127623    1.608727    1.490018
     13          1           0        3.081893   -0.034859    0.590257
     14          1           0        1.753680   -0.773114    1.475906
     15          1           0        2.086901   -0.605401   -1.564235
     16          1           0        1.741370   -2.051337   -0.621575
     17          1           0       -0.300921   -0.673520   -1.878331
     18          1           0       -0.916984   -2.340214    0.499470
     19          1           0       -1.300658    0.107174    1.971344
 ---------------------------------------------------------------------

 SCF Done:  E(RB3LYP) =  -423.165491526     A.U. after    1 cycles

 The electronic state is 1-A.
 Alpha  occ. eigenvalues --  -19.15724 -19.13494 -10.23893 -10.23836 -10.23337
 Alpha  occ. eigenvalues --  -10.18748 -10.18574 -10.18472 -10.18108  -1.08239
 Alpha  occ. eigenvalues --   -1.01848  -0.84256  -0.74263  -0.72014  -0.63906
 Alpha  occ. eigenvalues --   -0.62921  -0.58226  -0.54555  -0.51079  -0.49212
 Alpha  occ. eigenvalues --   -0.48521  -0.45194  -0.42485  -0.40655  -0.38871
 Alpha  occ. eigenvalues --   -0.37328  -0.36296  -0.34839  -0.34234  -0.33547
 Alpha  occ. eigenvalues --   -0.30891  -0.30159  -0.26906  -0.24458
 Alpha virt. eigenvalues --    0.07518   0.08301   0.10896   0.11103   0.11899
 Alpha virt. eigenvalues --    0.13476   0.14575   0.15546   0.15963   0.16961
 Alpha virt. eigenvalues --    0.17567   0.19120   0.19594   0.20105   0.21945

 Mulliken charges:
               1
     1  O   -0.496448
     2  C    0.428788
     3  C   -0.264318
     4  C   -0.217992
     5  C   -0.225998
     6  C   -0.125616
     7  C    0.040467
     8  O   -0.268716
     9  C   -0.058102
    10  H    0.286002
    11  H    0.114802
    12  H    0.099754
    13  H    0.101101
    14  H    0.102952
    15  H    0.107183
    16  H    0.096173
    17  H    0.076447
    18  H    0.103569
    19  H    0.099951
 Sum of Mulliken charges =   0.00000

 Dipole moment (field-independent basis, Debye):
    X=              1.3007    Y=             -1.2348    Z=              0.7015  Tot=              1.9258
 Quadrupole moment (field-independent basis, Debye-Ang):
   XX=            -54.9939   YY=            -54.8535   ZZ=            -50.9544
   XY=             -1.0975   XZ=             -0.0859   YZ=              0.7417

  Exact polarizability:  77.472  -0.131  74.113  -1.196   2.121  67.834
 Approx polarizability: 110.244  -0.475 111.737  -0.576   3.308 103.632

                      1                      2                      3
                      A                      A                      A
 Frequencies --    142.1069               195.2418               264.7012
 Red. masses --      2.9888                 2.5862                 3.3875
 Frc consts  --      0.0356                 0.0581                 0.1398
 IR Inten    --      2.5198                 0.5344                 4.2141

                      4                      5                      6
                      A                      A                      A
 Frequencies --    298.8029               363.1400               406.6868
 Red. masses --      2.5118                 3.1665                 2.6349
 Frc consts  --      0.1321                 0.2460                 0.2568
 IR Inten    --      1.3191                 4.0106                 2.9499

                      7                      8                      9
                      A                      A                      A
 Frequencies --    485.7207               515.2959               596.2153
 Red. masses --      1.5646                 2.3550                 2.8299
 Frc consts  --      0.2175                 0.3684                 0.5927
 IR Inten    --     40.3579                54.1173                 0.8581

                     10                     11                     12
                      A                      A                      A
 Frequencies --    610.5192               662.1880               807.2361
 Red. masses --      2.6415                 4.5662                 2.7008
 Frc consts  --      0.5801                 1.1797                 1.0369
 IR Inten    --      3.3148                 7.4676                 7.3263

                     13                     14                     15
                      A                      A                      A
 Frequencies --    832.9476               842.9392               859.9039
 Red. masses --      2.3824                 2.7371                 2.0646
 Frc consts  --      0.9739                 1.1458                 0.8995
 IR Inten    --      1.5539                 4.9583                19.6934

                     16                     17                     18
                      A                      A                      A
 Frequencies --    875.9448               893.5431               936.6663
 Red. masses --      2.9493                 2.3583                 1.9157
 Frc consts  --      1.3333                 1.1094                 0.9902
 IR Inten    --     18.1927                 0.8421                 5.5400

                     19                     20                     21
                      A                      A                      A
 Frequencies --    949.6943               984.2663               999.8760
 Red. masses --      1.6397                 2.0107                 2.1397
 Frc consts  --      0.8713                 1.1477                 1.2604
 IR Inten    --      4.9399                 6.1669                 7.5189

                     22                     23                     24
                      A                      A                      A
 Frequencies --   1057.0090              1060.6089              1083.4151
 Red. masses --      1.5557                 1.2515                 2.8674
 Frc consts  --      1.0241                 0.8294                 1.9830
 IR Inten    --      1.8646                 1.5973                 0.9843

                     25                     26                     27
                      A                      A                      A
 Frequencies --   1099.0441              1139.6387              1155.9641
 Red. masses --      2.1126                 2.1474                 1.3723
 Frc consts  --      1.5035                 1.6432                 1.0804
 IR Inten    --     60.5306                 3.9057                34.5906

                     28                     29                     30
                      A                      A                      A
 Frequencies --   1204.9101              1213.6103              1240.1412
 Red. masses --      1.5616                 1.3891                 1.5014
 Frc consts  --      1.3358                 1.2054                 1.3604
 IR Inten    --     44.7127                 8.9645                 9.1627

                     31                     32                     33
                      A                      A                      A
 Frequencies --   1263.9531              1274.8746              1306.3115
 Red. masses --      1.4768                 1.7124                 1.6809
 Frc consts  --      1.3901                 1.6398                 1.6900
 IR Inten    --      4.9677                 2.7248                 2.4574

                     34                     35                     36
                      A                      A                      A
 Frequencies --   1330.2210              1346.8898              1360.9883
 Red. masses --      1.4648                 1.4994                 1.6355
 Frc consts  --      1.5271                 1.6026                 1.7848
 IR Inten    --     17.7188                 8.9710                 9.5422

                     37                     38                     39
                      A                      A                      A
 Frequencies --   1375.6781              1408.9091              1483.1406
 Red. masses --      3.1633                 1.8170                 1.0952
 Frc consts  --      3.5271                 2.1250                 1.4194
 IR Inten    --     33.1571                47.0526                 1.7746

                     40                     41                     42
                      A                      A                      A
 Frequencies --   1490.2346              1506.2907              3037.9402
 Red. masses --      1.0805                 1.1060                 1.0600
 Frc consts  --      1.4139                 1.4785                 5.7639
 IR Inten    --      2.4751                 2.9434                33.9986

                     43                     44                     45
                      A                      A                      A
 Frequencies --   3041.7403              3045.5672              3076.6349
 Red. masses --      1.0685                 1.0601                 1.1002
 Frc consts  --      5.8244                 5.7935                 6.1360
 IR Inten    --     17.5096                20.0592                22.2866

                     46                     47                     48
                      A                      A                      A
 Frequencies --   3086.9795              3089.6761              3100.3851
 Red. masses --      1.0940                 1.0936                 1.1034
 Frc consts  --      6.1421                 6.1507                 6.2492
 IR Inten    --     45.6138                 4.1500                47.0744

                     49                     50                     51
                      A                      A                      A
 Frequencies --   3167.4902              3186.2435              3775.2195
 Red. masses --      1.0882                 1.0997                 1.0651
 Frc consts  --      6.4329                 6.5780                 8.9439
 IR Inten    --     17.5803                18.4301                25.8948

 - Thermochemistry -
 -------------------
 Temperature   298.150 Kelvin.  Pressure   1.00000 Atm.
 Atom     1 has atomic number  8 and mass  15.99491

 Molecular mass:   126.06808 amu.
 Principal axes and moments of inertia in atomic units:
                           1         2         3
     Eigenvalues --   685.556781017.269151305.74457
           X            0.99978  -0.02054   0.00290
           Y            0.02046   0.99949   0.02471
           Z           -0.00341  -0.02465   0.99969
 This molecule is an asymmetric top.
 Rotational symmetry number  1.
 Warning -- assumption of classical behavior for rotation
           may cause significant error
 Rotational temperatures (Kelvin)      0.12634     0.08514     0.06633
 Rotational constants (GHZ):           2.63252     1.77410     1.38215
 Zero-point vibrational energy     421883.1 (Joules/Mol)
                                  100.83248 (Kcal/Mol)
 Warning -- explicit consideration of  10 degrees of freedom as
           vibrations may cause significant error
 Vibrational temperatures:    204.46   280.91   380.85   429.91   522.48
          (Kelvin)            585.13   698.84   741.39   857.82   878.40
                              952.74  1161.43  1198.42  1212.80  1237.21
                             1260.29  1285.61  1347.65  1366.40  1416.14
                             1438.60  1520.80  1525.98  1558.79  1581.28
                             1639.68  1663.17  1733.59  1746.11  1784.28
                             1818.54  1834.26  1879.49  1913.89  1937.87
                             1958.16  1979.29  2027.10  2133.91  2144.11
                             2167.21  4370.91  4376.38  4381.89  4426.59
                             4441.47  4445.35  4460.76  4557.31  4584.29
                             5431.69

 Zero-point correction=                           0.160687 (Hartree/Particle)
 Thermal correction to Energy=                    0.168026
 Thermal correction to Enthalpy=                  0.168970
 Thermal correction to Gibbs Free Energy=         0.129300
 Sum of electronic and zero-point Energies=           -423.004805
 Sum of electronic and thermal Energies=              -422.997466
 Sum of electronic and thermal Enthalpies=            -422.996521
 Sum of electronic and thermal Free Energies=         -423.036192

                     E (Thermal)             CV                S
                      KCal/Mol        Cal/Mol-Kelvin    Cal/Mol-Kelvin
 Total                  105.438             30.240             83.493
 Electronic               0.000              0.000              0.000
 Translational            0.889              2.981             40.409
 Rotational               0.889              2.981             28.301
 Vibrational            103.660             24.278             14.784
 Vibration     1          0.616              1.911              2.775
 Vibration     2          0.636              1.847              2.177
 Vibration     3          0.671              1.738              1.631
 Vibration     4          0.692              1.676              1.424
 Vibration     5          0.737              1.548              1.109
 Vibration     6          0.771              1.456              0.938
 Vibration     7          0.842              1.282              0.695
 Vibration     8          0.870              1.216              0.621
 Vibration     9          0.954              1.040              0.456
 Vibration    10          0.970              1.010              0.432

 Normal termination of Gaussian 09 at Mon Jan 27 22:56:54 2020.
