 Gaussian 09, Revision D.01,
 Gaussian 09:  ES64L-G09RevD.01 24-Apr-2013

 -----------------------------
 # b3lyp 6-31G(2df,p) opt Freq
 -----------------------------

 -----
 titel
 -----
 Symbolic Z-matrix:
 Charge =  0 Multiplicity = 1

 SCF Done:  E(RB3LYP) =  -423.141985604     A.U. after   14 cycles
 Optimization completed.
    -- Stationary point found.
 Normal termination of Gaussian 09 at Tue Jan 28 11:46:39 2020.

 ----------------------------------------------------------------------
 #N Geom=AllCheck Guess=TCheck SCRF=Check GenChk RB3LYP/6-31G(2df,p) Fr
 eq
 ----------------------------------------------------------------------

 Structure from the checkpoint file:  "/scratch/puck/g09_24da65da-c2dd-48f2-a976-ad246b485cd8/Gau-89532.chk"
 -----
 titel
 -----
 Charge =  0 Multiplicity = 1

                         Standard orientation:
 ---------------------------------------------------------------------
 Center     Atomic      Atomic             Coordinates (Angstroms)
 Number     Number       Type             X           Y           Z
 ---------------------------------------------------------------------
      1          8           0       -2.809704   -0.463401   -0.347409
      2          6           0       -1.446335   -0.863735   -0.284026
      3          6           0       -0.749731    0.029107    0.739836
      4          6           0       -0.724813    1.531124    0.273065
      5          6           0        0.594800    1.643318   -0.489778
      6          6           0        1.403360    0.670446   -0.087938
      7          6           0        2.313189   -0.444831   -0.536221
      8          8           0        1.400406   -1.389448    0.109012
      9          6           0        0.756306   -0.288380    0.854153
     10          1           0       -3.239202   -0.978657   -1.035994
     11          1           0       -1.350290   -1.915178    0.022729
     12          1           0       -0.953729   -0.763502   -1.262046
     13          1           0       -1.271891   -0.082996    1.694837
     14          1           0       -1.587162    1.752537   -0.362593
     15          1           0       -0.782718    2.215943    1.128960
     16          1           0        0.753718    2.340528   -1.304066
     17          1           0        2.407879   -0.614633   -1.613834
     18          1           0        3.305506   -0.482710   -0.068004
     19          1           0        1.111614   -0.310830    1.892646
 ---------------------------------------------------------------------

 SCF Done:  E(RB3LYP) =  -423.141985604     A.U. after    1 cycles

 The electronic state is 1-A.
 Alpha  occ. eigenvalues --  -19.13710 -19.13223 -10.24009 -10.22599 -10.22167
 Alpha  occ. eigenvalues --  -10.18733 -10.18562 -10.18394 -10.18373  -1.03237
 Alpha  occ. eigenvalues --   -1.01229  -0.83517  -0.74772  -0.68939  -0.67811
 Alpha  occ. eigenvalues --   -0.63721  -0.55899  -0.52651  -0.51607  -0.48212
 Alpha  occ. eigenvalues --   -0.46804  -0.45047  -0.43700  -0.42626  -0.39720
 Alpha  occ. eigenvalues --   -0.37318  -0.35540  -0.33718  -0.33181  -0.32132
 Alpha  occ. eigenvalues --   -0.31002  -0.26515  -0.25549  -0.23531
 Alpha virt. eigenvalues --    0.00599   0.07497   0.08115   0.10796   0.11820
 Alpha virt. eigenvalues --    0.13131   0.15084   0.15944   0.16674   0.17231
 Alpha virt. eigenvalues --    0.17942   0.18572   0.19345   0.20730   0.21759

 Mulliken charges:
               1
     1  O   -0.425400
     2  C   -0.074291
     3  C   -0.049914
     4  C   -0.256195
     5  C   -0.205345
     6  C    0.198153
     7  C   -0.156103
     8  O   -0.309861
     9  C    0.087970
    10  H    0.286621
    11  H    0.099204
    12  H    0.091845
    13  H    0.076256
    14  H    0.124927
    15  H    0.105677
    16  H    0.098861
    17  H    0.119003
    18  H    0.108832
    19  H    0.079758
 Sum of Mulliken charges =   0.00000

 Dipole moment (field-independent basis, Debye):
    X=              0.2426    Y=              0.4630    Z=             -1.0406  Tot=              1.1645
 Quadrupole moment (field-independent basis, Debye-Ang):
   XX=            -52.0134   YY=            -54.7107   ZZ=            -49.3562
   XY=              3.8032   XZ=              2.0308   YZ=              1.0311

  Exact polarizability:  87.763  -7.924  75.480  -2.428  -2.663  67.462
 Approx polarizability: 120.746 -17.670 118.927  -1.052  -7.143 103.687

                      1                      2                      3
                      A                      A                      A
 Frequencies --     97.7066               134.7090               165.4417
 Red. masses --      3.8854                 2.7663                 4.1628
 Frc consts  --      0.0219                 0.0296                 0.0671
 IR Inten    --      0.1419                 5.6936                 3.7546

                      4                      5                      6
                      A                      A                      A
 Frequencies --    253.6483               268.7361               287.6070
 Red. masses --      1.3482                 1.8460                 2.7487
 Frc consts  --      0.0511                 0.0785                 0.1340
 IR Inten    --     58.5001                34.1977                14.7999

                      7                      8                      9
                      A                      A                      A
 Frequencies --    351.2789               413.4886               494.0539
 Red. masses --      2.8495                 2.6721                 3.9749
 Frc consts  --      0.2072                 0.2692                 0.5716
 IR Inten    --      0.0213                 3.5671                11.7573

                     10                     11                     12
                      A                      A                      A
 Frequencies --    660.5416               729.9661               753.2585
 Red. masses --      4.3378                 2.8091                 4.1494
 Frc consts  --      1.1151                 0.8819                 1.3871
 IR Inten    --      3.9340                 1.7059                 6.3556

                     13                     14                     15
                      A                      A                      A
 Frequencies --    812.1658               837.3060               880.8490
 Red. masses --      3.6077                 1.4257                 2.9636
 Frc consts  --      1.4021                 0.5889                 1.3548
 IR Inten    --     19.1418                21.7162                17.4474

                     16                     17                     18
                      A                      A                      A
 Frequencies --    901.7835               919.4476               942.5338
 Red. masses --      3.5878                 1.9861                 1.9402
 Frc consts  --      1.7190                 0.9893                 1.0155
 IR Inten    --     22.4756                36.3581                 2.5156

                     19                     20                     21
                      A                      A                      A
 Frequencies --    962.9064              1006.6463              1038.6751
 Red. masses --      3.9892                 1.9203                 1.8372
 Frc consts  --      2.1792                 1.1465                 1.1678
 IR Inten    --     32.1167                 4.6697                14.2110

                     22                     23                     24
                      A                      A                      A
 Frequencies --   1048.6623              1074.2194              1090.0680
 Red. masses --      2.2651                 4.0495                 2.2768
 Frc consts  --      1.4676                 2.7532                 1.5940
 IR Inten    --      9.9395                29.3151                48.6862

                     25                     26                     27
                      A                      A                      A
 Frequencies --   1122.7507              1140.2531              1184.3433
 Red. masses --      1.9034                 1.1592                 1.2479
 Frc consts  --      1.4137                 0.8880                 1.0313
 IR Inten    --      4.9459                 1.5075                 7.0990

                     28                     29                     30
                      A                      A                      A
 Frequencies --   1216.5902              1240.3134              1242.7004
 Red. masses --      1.3970                 1.2954                 1.4490
 Frc consts  --      1.2183                 1.1742                 1.3185
 IR Inten    --      1.0310                14.3159                 7.1498

                     31                     32                     33
                      A                      A                      A
 Frequencies --   1274.5070              1288.1615              1320.7572
 Red. masses --      1.3060                 1.3667                 1.5047
 Frc consts  --      1.2499                 1.3362                 1.5464
 IR Inten    --     17.3896                 1.0046                10.8338

                     34                     35                     36
                      A                      A                      A
 Frequencies --   1332.4799              1358.3016              1361.4613
 Red. masses --      1.3464                 1.5088                 1.4333
 Frc consts  --      1.4085                 1.6401                 1.5653
 IR Inten    --     23.7233                 0.1799                 2.4198

                     37                     38                     39
                      A                      A                      A
 Frequencies --   1455.2470              1492.3257              1509.7155
 Red. masses --      1.4603                 1.0883                 1.1050
 Frc consts  --      1.8221                 1.4280                 1.4838
 IR Inten    --      4.3562                 2.0138                 0.9247

                     40                     41                     42
                      A                      A                      A
 Frequencies --   1514.3259              1744.5430              2990.6133
 Red. masses --      1.0832                 8.5521                 1.0550
 Frc consts  --      1.4635                15.3351                 5.5594
 IR Inten    --      3.6179                 3.0924                42.4187

                     43                     44                     45
                      A                      A                      A
 Frequencies --   3009.6022              3016.4054              3021.3612
 Red. masses --      1.0721                 1.0724                 1.0934
 Frc consts  --      5.7215                 5.7487                 5.8808
 IR Inten    --     49.4086                85.6111                19.8754

                     46                     47                     48
                      A                      A                      A
 Frequencies --   3023.7120              3069.6971              3074.1640
 Red. masses --      1.0812                 1.0863                 1.1041
 Frc consts  --      5.8241                 6.0312                 6.1478
 IR Inten    --     42.3343                55.8819                29.3949

                     49                     50                     51
                      A                      A                      A
 Frequencies --   3088.7112              3200.6439              3834.0462
 Red. masses --      1.0932                 1.0951                 1.0664
 Frc consts  --      6.1445                 6.6097                 9.2363
 IR Inten    --     10.3911                11.6915                23.1727

 - Thermochemistry -
 -------------------
 Temperature   298.150 Kelvin.  Pressure   1.00000 Atm.
 Atom     1 has atomic number  8 and mass  15.99491

 Molecular mass:   126.06808 amu.
 Principal axes and moments of inertia in atomic units:
                           1         2         3
     Eigenvalues --   616.995871329.064361655.65717
           X            0.99999   0.00204  -0.00308
           Y           -0.00200   0.99994   0.01122
           Z            0.00310  -0.01122   0.99993
 This molecule is an asymmetric top.
 Rotational symmetry number  1.
 Warning -- assumption of classical behavior for rotation
           may cause significant error
 Rotational temperatures (Kelvin)      0.14038     0.06517     0.05231
 Rotational constants (GHZ):           2.92505     1.35790     1.09005
 Zero-point vibrational energy     420208.8 (Joules/Mol)
                                  100.43232 (Kcal/Mol)
 Warning -- explicit consideration of   9 degrees of freedom as
           vibrations may cause significant error
 Vibrational temperatures:    140.58   193.82   238.03   364.94   386.65
          (Kelvin)            413.80   505.41   594.92   710.83   950.37
                             1050.26  1083.77  1168.52  1204.70  1267.34
                             1297.46  1322.88  1356.09  1385.41  1448.34
                             1494.42  1508.79  1545.56  1568.36  1615.39
                             1640.57  1704.00  1750.40  1784.53  1787.97
                             1833.73  1853.37  1900.27  1917.14  1954.29
                             1958.84  2093.77  2147.12  2172.14  2178.77
                             2510.01  4302.82  4330.14  4339.93  4347.06
                             4350.44  4416.60  4423.03  4443.96  4605.01
                             5516.33

 Zero-point correction=                           0.160049 (Hartree/Particle)
 Thermal correction to Energy=                    0.168230
 Thermal correction to Enthalpy=                  0.169174
 Thermal correction to Gibbs Free Energy=         0.127237
 Sum of electronic and zero-point Energies=           -422.981937
 Sum of electronic and thermal Energies=              -422.973756
 Sum of electronic and thermal Enthalpies=            -422.972812
 Sum of electronic and thermal Free Energies=         -423.014748

                     E (Thermal)             CV                S
                      KCal/Mol        Cal/Mol-Kelvin    Cal/Mol-Kelvin
 Total                  105.566             31.243             88.262
 Electronic               0.000              0.000              0.000
 Translational            0.889              2.981             40.409
 Rotational               0.889              2.981             28.697
 Vibrational            103.788             25.281             19.156
 Vibration     1          0.603              1.951              3.500
 Vibration     2          0.613              1.919              2.878
 Vibration     3          0.624              1.885              2.487
 Vibration     4          0.665              1.757              1.705
 Vibration     5          0.673              1.731              1.604
 Vibration     6          0.685              1.697              1.488
 Vibration     7          0.728              1.573              1.160
 Vibration     8          0.777              1.441              0.914
 Vibration     9          0.850              1.263              0.673

 Optimization completed.
    -- Stationary point found.
 Normal termination of Gaussian 09 at Tue Jan 28 13:25:55 2020.
