 Gaussian 09, Revision D.01,
 Gaussian 09:  ES64L-G09RevD.01 24-Apr-2013

 -----------------------------
 # b3lyp 6-31G(2df,p) opt Freq
 -----------------------------

 -----
 titel
 -----
 Symbolic Z-matrix:
 Charge =  0 Multiplicity = 1

 SCF Done:  E(RB3LYP) =  -423.247307461     A.U. after   14 cycles
 Optimization completed.
    -- Stationary point found.
 Normal termination of Gaussian 09 at Tue Jan 28 14:09:46 2020.

 ----------------------------------------------------------------------
 #N Geom=AllCheck Guess=TCheck SCRF=Check GenChk RB3LYP/6-31G(2df,p) Fr
 eq
 ----------------------------------------------------------------------

 Structure from the checkpoint file:  "/scratch/puck/g09_5f8624f5-6ffe-4849-9d7a-5286de79e50e/Gau-4018.chk"
 -----
 titel
 -----
 Charge =  0 Multiplicity = 1

                         Standard orientation:
 ---------------------------------------------------------------------
 Center     Atomic      Atomic             Coordinates (Angstroms)
 Number     Number       Type             X           Y           Z
 ---------------------------------------------------------------------
      1          6           0        3.867921   -0.166326   -0.205401
      2          6           0        2.395055    0.100371   -0.523084
      3          6           0        1.459088   -0.340100    0.622674
      4          6           0        0.010434   -0.111468    0.332283
      5          6           0       -0.971426   -0.998818    0.148683
      6          6           0       -2.241432   -0.289527   -0.114211
      7          8           0       -3.340407   -0.715740   -0.327702
      8          8           0       -1.971342    1.063144   -0.076864
      9          6           0       -0.590628    1.265934    0.194215
     10          1           0        4.512253    0.148799   -1.031332
     11          1           0        4.185080    0.376322    0.691863
     12          1           0        4.048194   -1.232282   -0.029156
     13          1           0        2.250984    1.168409   -0.725716
     14          1           0        2.107680   -0.428586   -1.439345
     15          1           0        1.621250   -1.402269    0.835684
     16          1           0        1.736833    0.209170    1.533535
     17          1           0       -0.914902   -2.077236    0.181736
     18          1           0       -0.144619    1.842347   -0.626138
     19          1           0       -0.482832    1.855692    1.114453
 ---------------------------------------------------------------------

 SCF Done:  E(RB3LYP) =  -423.247307461     A.U. after    1 cycles

 The electronic state is 1-A.
 Alpha  occ. eigenvalues --  -19.17433 -19.11291 -10.29592 -10.25539 -10.22400
 Alpha  occ. eigenvalues --  -10.21071 -10.20408 -10.19863 -10.18988  -1.09268
 Alpha  occ. eigenvalues --   -1.01385  -0.84195  -0.78904  -0.73085  -0.70415
 Alpha  occ. eigenvalues --   -0.61677  -0.57973  -0.55994  -0.50795  -0.49582
 Alpha  occ. eigenvalues --   -0.48030  -0.45529  -0.43049  -0.42547  -0.41046
 Alpha  occ. eigenvalues --   -0.39953  -0.38982  -0.37124  -0.36363  -0.35478
 Alpha  occ. eigenvalues --   -0.34389  -0.29682  -0.27253  -0.26279
 Alpha virt. eigenvalues --   -0.03679   0.06994   0.08634   0.09691   0.10715
 Alpha virt. eigenvalues --    0.11444   0.12391   0.14126   0.15279   0.15583
 Alpha virt. eigenvalues --    0.16813   0.17636   0.20204   0.20997   0.22183

 Mulliken charges:
               1
     1  C   -0.380804
     2  C   -0.168286
     3  C   -0.303310
     4  C    0.322011
     5  C   -0.377351
     6  C    0.459502
     7  O   -0.351467
     8  O   -0.234305
     9  C   -0.166127
    10  H    0.120872
    11  H    0.119003
    12  H    0.121153
    13  H    0.104957
    14  H    0.112645
    15  H    0.116648
    16  H    0.114644
    17  H    0.125351
    18  H    0.133577
    19  H    0.131288
 Sum of Mulliken charges =   0.00000

 Dipole moment (field-independent basis, Debye):
    X=              5.4644    Y=              0.5153    Z=              0.8623  Tot=              5.5560
 Quadrupole moment (field-independent basis, Debye-Ang):
   XX=            -68.7676   YY=            -51.3380   ZZ=            -52.5207
   XY=             -1.0858   XZ=             -2.1059   YZ=              0.0783

  Exact polarizability: 107.702   9.814  75.701   4.111   1.308  57.001
 Approx polarizability: 146.643  24.505 121.330  10.303   4.418  87.438

                      1                      2                      3
                      A                      A                      A
 Frequencies --     44.8553                82.6014               108.8245
 Red. masses --      2.6916                 2.1013                 4.1725
 Frc consts  --      0.0032                 0.0084                 0.0291
 IR Inten    --      1.4324                 0.8555                 2.1017

                      4                      5                      6
                      A                      A                      A
 Frequencies --    203.7559               246.7204               259.3730
 Red. masses --      4.4957                 1.2169                 2.1825
 Frc consts  --      0.1100                 0.0436                 0.0865
 IR Inten    --      0.0595                 0.5096                 3.0418

                      7                      8                      9
                      A                      A                      A
 Frequencies --    302.0873               308.7495               481.7522
 Red. masses --      2.8243                 3.4274                 2.8187
 Frc consts  --      0.1519                 0.1925                 0.3854
 IR Inten    --      1.9261                 0.3426                 5.6140

                     10                     11                     12
                      A                      A                      A
 Frequencies --    529.5459               655.6361               709.7676
 Red. masses --      4.5018                 3.9007                 6.9004
 Frc consts  --      0.7438                 0.9879                 2.0481
 IR Inten    --      1.7167                 2.2634                 1.0815

                     13                     14                     15
                      A                      A                      A
 Frequencies --    742.9426               748.3087               867.2775
 Red. masses --      2.9080                 1.2681                 1.3823
 Frc consts  --      0.9457                 0.4184                 0.6126
 IR Inten    --      4.6265                 2.4273                 3.4641

                     16                     17                     18
                      A                      A                      A
 Frequencies --    875.2201               890.5089               908.9963
 Red. masses --      2.2768                 5.2321                 1.5354
 Frc consts  --      1.0276                 2.4446                 0.7475
 IR Inten    --     12.1948                40.7582                 8.7518

                     19                     20                     21
                      A                      A                      A
 Frequencies --    930.3480              1010.6184              1039.6626
 Red. masses --      2.3007                 1.6099                 3.0236
 Frc consts  --      1.1733                 0.9688                 1.9256
 IR Inten    --      3.5654                 5.8475                 2.5985

                     22                     23                     24
                      A                      A                      A
 Frequencies --   1063.1219              1104.0231              1113.7367
 Red. masses --      3.6957                 2.2135                 1.8475
 Frc consts  --      2.4610                 1.5896                 1.3502
 IR Inten    --     57.7522                 7.5750                 7.6718

                     25                     26                     27
                      A                      A                      A
 Frequencies --   1142.7446              1183.7645              1208.2094
 Red. masses --      3.4122                 1.6813                 1.1032
 Frc consts  --      2.6253                 1.3881                 0.9489
 IR Inten    --     78.1770                11.3351                 0.8603

                     28                     29                     30
                      A                      A                      A
 Frequencies --   1250.8429              1308.7526              1316.9790
 Red. masses --      1.5070                 1.3963                 1.3648
 Frc consts  --      1.3892                 1.4092                 1.3947
 IR Inten    --      3.3376                 4.8681                 9.8757

                     31                     32                     33
                      A                      A                      A
 Frequencies --   1344.7803              1376.7209              1380.4478
 Red. masses --      1.5381                 1.7880                 1.4498
 Frc consts  --      1.6389                 1.9966                 1.6278
 IR Inten    --     17.3370                 1.7513                 1.6914

                     34                     35                     36
                      A                      A                      A
 Frequencies --   1415.3669              1480.5971              1490.6015
 Red. masses --      1.2308                 1.0900                 1.0784
 Frc consts  --      1.4527                 1.4078                 1.4118
 IR Inten    --      0.5808                 2.7653                 3.4081

                     37                     38                     39
                      A                      A                      A
 Frequencies --   1494.2539              1499.9787              1510.2969
 Red. masses --      1.0631                 1.0402                 1.0839
 Frc consts  --      1.3986                 1.3789                 1.4567
 IR Inten    --      1.3352                 5.9526                 3.7307

                     40                     41                     42
                      A                      A                      A
 Frequencies --   1696.4156              1873.0850              3009.4434
 Red. masses --      7.6998                12.6704                 1.0641
 Frc consts  --     13.0554                26.1913                 5.6781
 IR Inten    --     46.7752               497.8819                 7.8034

                     43                     44                     45
                      A                      A                      A
 Frequencies --   3019.3061              3031.5154              3034.4291
 Red. masses --      1.0583                 1.0543                 1.0431
 Frc consts  --      5.6843                 5.7086                 5.6589
 IR Inten    --     31.8619                 8.2815                38.2181

                     46                     47                     48
                      A                      A                      A
 Frequencies --   3051.8984              3058.6377              3078.0541
 Red. masses --      1.1023                 1.0966                 1.1005
 Frc consts  --      6.0491                 6.0446                 6.1431
 IR Inten    --     23.2436                 2.3305                14.6458

                     49                     50                     51
                      A                      A                      A
 Frequencies --   3102.9941              3109.5224              3244.7016
 Red. masses --      1.1027                 1.1010                 1.0975
 Frc consts  --      6.2558                 6.2721                 6.8078
 IR Inten    --     49.9546                28.4882                 0.7030

 - Thermochemistry -
 -------------------
 Temperature   298.150 Kelvin.  Pressure   1.00000 Atm.
 Atom     1 has atomic number  6 and mass  12.00000

 Molecular mass:   126.06808 amu.
 Principal axes and moments of inertia in atomic units:
                           1         2         3
     Eigenvalues --   351.213332428.344752626.98183
           X            0.99998  -0.00365  -0.00474
           Y            0.00361   0.99997  -0.00695
           Z            0.00476   0.00693   0.99996
 This molecule is an asymmetric top.
 Rotational symmetry number  1.
 Rotational temperatures (Kelvin)      0.24661     0.03567     0.03297
 Rotational constants (GHZ):           5.13859     0.74320     0.68700
 Zero-point vibrational energy     418350.7 (Joules/Mol)
                                   99.98821 (Kcal/Mol)
 Warning -- explicit consideration of  10 degrees of freedom as
           vibrations may cause significant error
 Vibrational temperatures:     64.54   118.84   156.57   293.16   354.98
          (Kelvin)            373.18   434.64   444.22   693.13   761.90
                              943.31  1021.20  1068.93  1076.65  1247.82
                             1259.24  1281.24  1307.84  1338.56  1454.05
                             1495.84  1529.59  1588.44  1602.42  1644.15
                             1703.17  1738.34  1799.68  1883.00  1894.84
                             1934.84  1980.79  1986.15  2036.39  2130.25
                             2144.64  2149.90  2158.13  2172.98  2440.76
                             2694.95  4329.91  4344.10  4361.67  4365.86
                             4391.00  4400.69  4428.63  4464.51  4473.90
                             4668.40

 Zero-point correction=                           0.159341 (Hartree/Particle)
 Thermal correction to Energy=                    0.168297
 Thermal correction to Enthalpy=                  0.169241
 Thermal correction to Gibbs Free Energy=         0.124598
 Sum of electronic and zero-point Energies=           -423.087966
 Sum of electronic and thermal Energies=              -423.079011
 Sum of electronic and thermal Enthalpies=            -423.078067
 Sum of electronic and thermal Free Energies=         -423.122709

                     E (Thermal)             CV                S
                      KCal/Mol        Cal/Mol-Kelvin    Cal/Mol-Kelvin
 Total                  105.608             32.327             93.958
 Electronic               0.000              0.000              0.000
 Translational            0.889              2.981             40.409
 Rotational               0.889              2.981             29.195
 Vibrational            103.830             26.365             24.354
 Vibration     1          0.595              1.979              5.032
 Vibration     2          0.600              1.961              3.828
 Vibration     3          0.606              1.942              3.290
 Vibration     4          0.639              1.835              2.099
 Vibration     5          0.661              1.768              1.754
 Vibration     6          0.668              1.747              1.666
 Vibration     7          0.694              1.670              1.405
 Vibration     8          0.698              1.657              1.369
 Vibration     9          0.838              1.291              0.705
 Vibration    10          0.885              1.185              0.588

 Optimization completed.
    -- Stationary point found.
 Normal termination of Gaussian 09 at Tue Jan 28 14:52:59 2020.
