 Gaussian 09, Revision D.01,
 Gaussian 09:  ES64L-G09RevD.01 24-Apr-2013

 -----------------------------
 # b3lyp 6-31G(2df,p) opt Freq
 -----------------------------

 -----
 titel
 -----
 Symbolic Z-matrix:
 Charge =  0 Multiplicity = 1

 SCF Done:  E(RB3LYP) =  -423.158356496     A.U. after   14 cycles
 Optimization completed.
    -- Stationary point found.
 Normal termination of Gaussian 09 at Tue Jan 28 00:52:06 2020.

 ----------------------------------------------------------------------
 #N Geom=AllCheck Guess=TCheck SCRF=Check GenChk RB3LYP/6-31G(2df,p) Fr
 eq
 ----------------------------------------------------------------------

 Structure from the checkpoint file:  "/scratch/puck/g09_d428694a-c725-44db-ab93-05953ec82ba1/Gau-38715.chk"
 -----
 titel
 -----
 Charge =  0 Multiplicity = 1

                         Standard orientation:
 ---------------------------------------------------------------------
 Center     Atomic      Atomic             Coordinates (Angstroms)
 Number     Number       Type             X           Y           Z
 ---------------------------------------------------------------------
      1          8           0        2.355315   -0.671756   -0.860827
      2          6           0        1.711363   -0.501966    0.400683
      3          6           0        1.296969    0.984922    0.494374
      4          6           0       -0.237396    1.025919    0.362957
      5          8           0       -0.635105    2.134565   -0.412667
      6          6           0       -0.599936   -0.351497   -0.259475
      7          6           0        0.385544   -1.289268    0.464665
      8          6           0       -2.009692   -0.680803   -0.146489
      9          6           0       -3.185661   -0.910049   -0.034102
     10          1           0        2.600126   -1.599132   -0.946466
     11          1           0        2.391620   -0.793541    1.212045
     12          1           0        1.634540    1.450898    1.422385
     13          1           0        1.745783    1.529195   -0.339648
     14          1           0       -0.700840    1.070041    1.361149
     15          1           0       -1.597256    2.119665   -0.468145
     16          1           0       -0.314081   -0.305232   -1.317800
     17          1           0        0.071491   -1.427121    1.505995
     18          1           0        0.460146   -2.279903    0.006750
     19          1           0       -4.220360   -1.130891    0.056004
 ---------------------------------------------------------------------

 SCF Done:  E(RB3LYP) =  -423.158356496     A.U. after    1 cycles

 The electronic state is 1-A.
 Alpha  occ. eigenvalues --  -19.13795 -19.13508 -10.23608 -10.23452 -10.20485
 Alpha  occ. eigenvalues --  -10.18983 -10.18234 -10.17718 -10.17334  -1.02201
 Alpha  occ. eigenvalues --   -1.01748  -0.83802  -0.75918  -0.71178  -0.69302
 Alpha  occ. eigenvalues --   -0.60580  -0.56672  -0.53944  -0.52381  -0.50195
 Alpha  occ. eigenvalues --   -0.49144  -0.44963  -0.42263  -0.40228  -0.39047
 Alpha  occ. eigenvalues --   -0.37484  -0.36374  -0.35701  -0.33356  -0.31409
 Alpha  occ. eigenvalues --   -0.28491  -0.27476  -0.25881  -0.25224
 Alpha virt. eigenvalues --    0.04642   0.05290   0.07466   0.08821   0.10983
 Alpha virt. eigenvalues --    0.11226   0.12747   0.15105   0.16065   0.16776
 Alpha virt. eigenvalues --    0.17342   0.18084   0.19221   0.21455   0.23389

 Mulliken charges:
               1
     1  O   -0.432053
     2  C    0.092901
     3  C   -0.226573
     4  C    0.135542
     5  O   -0.442424
     6  C   -0.173054
     7  C   -0.240851
     8  C    0.269169
     9  C   -0.440349
    10  H    0.280555
    11  H    0.061891
    12  H    0.103909
    13  H    0.134989
    14  H    0.070965
    15  H    0.286555
    16  H    0.120607
    17  H    0.107015
    18  H    0.098654
    19  H    0.192553
 Sum of Mulliken charges =   0.00000

 Dipole moment (field-independent basis, Debye):
    X=             -0.3447    Y=             -1.7931    Z=              1.2955  Tot=              2.2388
 Quadrupole moment (field-independent basis, Debye-Ang):
   XX=            -48.0406   YY=            -53.1723   ZZ=            -53.9021
   XY=             -4.7993   XZ=              1.6637   YZ=              1.8182

  Exact polarizability: 101.202   3.856  70.936   0.209   0.237  60.670
 Approx polarizability: 143.411   7.778  99.770  -4.102  -1.498  94.651

                      1                      2                      3
                      A                      A                      A
 Frequencies --     53.6420               103.2660               120.6346
 Red. masses --      3.4094                 3.7831                 4.2037
 Frc consts  --      0.0058                 0.0238                 0.0360
 IR Inten    --      0.3615                 0.8714                 0.9168

                      4                      5                      6
                      A                      A                      A
 Frequencies --    222.0591               315.7744               337.8037
 Red. masses --      4.0113                 2.2352                 1.1193
 Frc consts  --      0.1165                 0.1313                 0.0753
 IR Inten    --      0.3174                28.2436                99.4821

                      7                      8                      9
                      A                      A                      A
 Frequencies --    370.3391               392.0837               409.0867
 Red. masses --      1.3885                 2.1905                 3.3337
 Frc consts  --      0.1122                 0.1984                 0.3287
 IR Inten    --    100.8141                 3.5408                 3.1578

                     10                     11                     12
                      A                      A                      A
 Frequencies --    444.7715               504.0608               535.5503
 Red. masses --      4.0120                 4.2440                 4.2618
 Frc consts  --      0.4676                 0.6353                 0.7202
 IR Inten    --     18.4054                 4.5471                 6.6943

                     13                     14                     15
                      A                      A                      A
 Frequencies --    551.7316               621.6538               637.6493
 Red. masses --      4.1643                 1.2153                 1.2292
 Frc consts  --      0.7469                 0.2767                 0.2945
 IR Inten    --      8.4227                45.0316                42.1860

                     16                     17                     18
                      A                      A                      A
 Frequencies --    694.0906               806.3120               844.2056
 Red. masses --      3.1329                 2.8210                 2.3582
 Frc consts  --      0.8893                 1.0806                 0.9902
 IR Inten    --      2.4268                 2.1468                 2.9937

                     19                     20                     21
                      A                      A                      A
 Frequencies --    924.2419               961.9764               982.5856
 Red. masses --      1.9344                 2.3199                 2.9755
 Frc consts  --      0.9736                 1.2649                 1.6926
 IR Inten    --      4.2345                16.1765                15.1083

                     22                     23                     24
                      A                      A                      A
 Frequencies --   1022.8139              1030.3286              1064.4048
 Red. masses --      2.5105                 2.0647                 2.7716
 Frc consts  --      1.5474                 1.2914                 1.8501
 IR Inten    --     17.5650                23.7330                12.2476

                     25                     26                     27
                      A                      A                      A
 Frequencies --   1090.6843              1113.2260              1191.8818
 Red. masses --      2.4648                 2.6746                 1.3148
 Frc consts  --      1.7275                 1.9529                 1.1005
 IR Inten    --      9.2144                61.2974                 2.5896

                     28                     29                     30
                      A                      A                      A
 Frequencies --   1192.4615              1231.3994              1266.3142
 Red. masses --      1.6839                 1.3943                 1.1751
 Frc consts  --      1.4107                 1.2457                 1.1102
 IR Inten    --     21.1754                29.5223                35.0117

                     31                     32                     33
                      A                      A                      A
 Frequencies --   1271.6348              1290.7640              1321.1715
 Red. masses --      1.2727                 1.2228                 1.4209
 Frc consts  --      1.2125                 1.2003                 1.4613
 IR Inten    --     36.2118                30.7384                 2.5586

                     34                     35                     36
                      A                      A                      A
 Frequencies --   1332.7597              1349.0154              1390.6813
 Red. masses --      1.3507                 1.3976                 1.4119
 Frc consts  --      1.4136                 1.4985                 1.6088
 IR Inten    --     25.2594                33.8712                10.9565

                     37                     38                     39
                      A                      A                      A
 Frequencies --   1421.4444              1435.5289              1476.5493
 Red. masses --      1.4114                 1.4547                 1.0890
 Frc consts  --      1.6802                 1.7662                 1.3988
 IR Inten    --     11.7877                12.7161                 5.8153

                     40                     41                     42
                      A                      A                      A
 Frequencies --   1486.4238              2230.2389              2971.0787
 Red. masses --      1.1073                 5.9798                 1.0832
 Frc consts  --      1.4415                17.5243                 5.6338
 IR Inten    --      0.7134                 7.1216                38.1263

                     43                     44                     45
                      A                      A                      A
 Frequencies --   3003.6892              3036.8017              3046.1892
 Red. masses --      1.0846                 1.0773                 1.0668
 Frc consts  --      5.7654                 5.8535                 5.8324
 IR Inten    --     51.2430                 3.7701                35.8100

                     46                     47                     48
                      A                      A                      A
 Frequencies --   3076.6769              3093.6452              3126.9617
 Red. masses --      1.0607                 1.1032                 1.1052
 Frc consts  --      5.9155                 6.2210                 6.3670
 IR Inten    --     20.7169                26.0773                13.3899

                     49                     50                     51
                      A                      A                      A
 Frequencies --   3503.9431              3799.6689              3810.2075
 Red. masses --      1.1607                 1.0658                 1.0660
 Frc consts  --      8.3962                 9.0663                 9.1178
 IR Inten    --     75.3145                19.9490                15.8085

 - Thermochemistry -
 -------------------
 Temperature   298.150 Kelvin.  Pressure   1.00000 Atm.
 Atom     1 has atomic number  8 and mass  15.99491

 Molecular mass:   126.06808 amu.
 Principal axes and moments of inertia in atomic units:
                           1         2         3
     Eigenvalues --   720.037391437.340371905.36325
           X            0.99995  -0.00732   0.00680
           Y            0.00728   0.99996   0.00527
           Z           -0.00684  -0.00522   0.99996
 This molecule is an asymmetric top.
 Rotational symmetry number  1.
 Warning -- assumption of classical behavior for rotation
           may cause significant error
 Rotational temperatures (Kelvin)      0.12029     0.06026     0.04546
 Rotational constants (GHZ):           2.50645     1.25561     0.94719
 Zero-point vibrational energy     415774.7 (Joules/Mol)
                                   99.37255 (Kcal/Mol)
 Warning -- explicit consideration of  13 degrees of freedom as
           vibrations may cause significant error
 Vibrational temperatures:     77.18   148.58   173.57   319.49   454.33
          (Kelvin)            486.02   532.83   564.12   588.58   639.93
                              725.23   770.54   793.82   894.42   917.43
                              998.64  1160.10  1214.62  1329.78  1384.07
                             1413.72  1471.60  1482.41  1531.44  1569.25
                             1601.68  1714.85  1715.68  1771.71  1821.94
                             1829.60  1857.12  1900.87  1917.54  1940.93
                             2000.88  2045.14  2065.40  2124.42  2138.63
                             3208.81  4274.71  4321.63  4369.27  4382.78
                             4426.65  4451.06  4498.99  5041.39  5466.87
                             5482.03

 Zero-point correction=                           0.158360 (Hartree/Particle)
 Thermal correction to Energy=                    0.167552
 Thermal correction to Enthalpy=                  0.168496
 Thermal correction to Gibbs Free Energy=         0.124184
 Sum of electronic and zero-point Energies=           -422.999996
 Sum of electronic and thermal Energies=              -422.990805
 Sum of electronic and thermal Enthalpies=            -422.989861
 Sum of electronic and thermal Free Energies=         -423.034173

                     E (Thermal)             CV                S
                      KCal/Mol        Cal/Mol-Kelvin    Cal/Mol-Kelvin
 Total                  105.140             35.061             93.262
 Electronic               0.000              0.000              0.000
 Translational            0.889              2.981             40.409
 Rotational               0.889              2.981             29.068
 Vibrational            103.363             29.100             23.785
 Vibration     1          0.596              1.976              4.678
 Vibration     2          0.605              1.947              3.392
 Vibration     3          0.609              1.932              3.090
 Vibration     4          0.648              1.807              1.942
 Vibration     5          0.703              1.644              1.332
 Vibration     6          0.718              1.600              1.223
 Vibration     7          0.742              1.533              1.078
 Vibration     8          0.760              1.487              0.992
 Vibration     9          0.773              1.450              0.930
 Vibration    10          0.804              1.372              0.812
 Vibration    11          0.859              1.241              0.648
 Vibration    12          0.891              1.171              0.575
 Vibration    13          0.907              1.136              0.541

 Optimization completed.
    -- Stationary point found.
 Normal termination of Gaussian 09 at Tue Jan 28 02:51:21 2020.
