 Gaussian 09, Revision D.01,
 Gaussian 09:  ES64L-G09RevD.01 24-Apr-2013

 -----------------------------
 # b3lyp 6-31G(2df,p) opt Freq
 -----------------------------

 -----
 titel
 -----
 Symbolic Z-matrix:
 Charge =  0 Multiplicity = 1

 SCF Done:  E(RB3LYP) =  -423.114057405     A.U. after   12 cycles
 Optimization completed.
    -- Stationary point found.
 Normal termination of Gaussian 09 at Tue Jan 28 09:54:22 2020.

 ----------------------------------------------------------------------
 #N Geom=AllCheck Guess=TCheck SCRF=Check GenChk RB3LYP/6-31G(2df,p) Fr
 eq
 ----------------------------------------------------------------------

 Structure from the checkpoint file:  "/scratch/puck/g09_83b10fd9-220e-4e80-b729-6fb02b33d363/Gau-18895.chk"
 -----
 titel
 -----
 Charge =  0 Multiplicity = 1

                         Standard orientation:
 ---------------------------------------------------------------------
 Center     Atomic      Atomic             Coordinates (Angstroms)
 Number     Number       Type             X           Y           Z
 ---------------------------------------------------------------------
      1          6           0        2.752179    0.224701   -0.010988
      2          8           0        1.485959    0.857119    0.014877
      3          6           0        0.421418   -0.019510    0.003946
      4          6           0        0.079723   -0.913467   -1.229131
      5          6           0       -1.373001   -0.770474   -0.775253
      6          6           0       -1.378581   -0.779761    0.786866
      7          6           0        0.075653   -0.920033    1.231451
      8          6           0       -1.099235    0.476233   -0.000661
      9          8           0       -1.690874    1.704527   -0.102412
     10          1           0        2.883228   -0.384162   -0.916670
     11          1           0        3.505076    1.015794   -0.004416
     12          1           0        2.903981   -0.418929    0.867323
     13          1           0        0.257507   -0.375855   -2.164519
     14          1           0        0.522762   -1.914687   -1.275799
     15          1           0       -2.274199   -1.020120   -1.319103
     16          1           0       -2.277631   -1.054381    1.322671
     17          1           0        0.264630   -0.394243    2.172049
     18          1           0        0.517624   -1.922075    1.265454
     19          1           0       -1.532592    2.189351    0.715905
 ---------------------------------------------------------------------

 SCF Done:  E(RB3LYP) =  -423.114057405     A.U. after    1 cycles

 The electronic state is 1-A.
 Alpha  occ. eigenvalues --  -19.15438 -19.14527 -10.23656 -10.23207 -10.22605
 Alpha  occ. eigenvalues --  -10.18707 -10.18687 -10.17986 -10.17864  -1.04547
 Alpha  occ. eigenvalues --   -1.03447  -0.91583  -0.71889  -0.71723  -0.68239
 Alpha  occ. eigenvalues --   -0.60758  -0.56271  -0.53998  -0.52427  -0.47583
 Alpha  occ. eigenvalues --   -0.46139  -0.44494  -0.43272  -0.42369  -0.40719
 Alpha  occ. eigenvalues --   -0.39707  -0.37216  -0.35386  -0.33353  -0.32635
 Alpha  occ. eigenvalues --   -0.29540  -0.26137  -0.24428  -0.22579
 Alpha virt. eigenvalues --    0.07328   0.08882   0.11285   0.12794   0.13780
 Alpha virt. eigenvalues --    0.14671   0.15239   0.15606   0.15917   0.16499
 Alpha virt. eigenvalues --    0.17107   0.18288   0.18718   0.19926   0.22036

 Mulliken charges:
               1
     1  C   -0.265924
     2  O   -0.297612
     3  C    0.338865
     4  C   -0.293529
     5  C   -0.114439
     6  C   -0.154596
     7  C   -0.291216
     8  C    0.315466
     9  O   -0.446914
    10  H    0.115315
    11  H    0.129128
    12  H    0.112950
    13  H    0.107786
    14  H    0.085899
    15  H    0.092419
    16  H    0.089271
    17  H    0.096476
    18  H    0.087845
    19  H    0.292811
 Sum of Mulliken charges =   0.00000

 Dipole moment (field-independent basis, Debye):
    X=              0.7810    Y=             -0.8114    Z=              1.1273  Tot=              1.5935
 Quadrupole moment (field-independent basis, Debye-Ang):
   XX=            -50.2762   YY=            -53.7257   ZZ=            -51.6525
   XY=             -0.3125   XZ=             -2.0340   YZ=              3.2769

  Exact polarizability:  83.723   0.474  70.006  -0.254   1.308  71.604
 Approx polarizability: 110.401  -0.299 109.943   0.430   1.291 107.144

                      1                      2                      3
                      A                      A                      A
 Frequencies --     77.5607               146.9196               188.9740
 Red. masses --      2.7586                 3.6240                 1.1260
 Frc consts  --      0.0098                 0.0461                 0.0237
 IR Inten    --      2.7509                 4.0996                 0.5897

                      4                      5                      6
                      A                      A                      A
 Frequencies --    232.1015               273.2459               332.7611
 Red. masses --      2.2217                 2.6781                 1.4272
 Frc consts  --      0.0705                 0.1178                 0.0931
 IR Inten    --     11.4839                 3.5440                87.8888

                      7                      8                      9
                      A                      A                      A
 Frequencies --    391.7613               399.4997               489.2459
 Red. masses --      1.9976                 4.0054                 2.3243
 Frc consts  --      0.1806                 0.3766                 0.3278
 IR Inten    --      6.1436                 8.8984                 2.8443

                     10                     11                     12
                      A                      A                      A
 Frequencies --    509.0386               583.6318               688.8822
 Red. masses --      3.7470                 4.3893                 3.2736
 Frc consts  --      0.5720                 0.8809                 0.9153
 IR Inten    --     10.7833                 4.3364                11.4062

                     13                     14                     15
                      A                      A                      A
 Frequencies --    710.6597               742.6249               857.7186
 Red. masses --      3.6779                 3.4681                 2.0917
 Frc consts  --      1.0944                 1.1269                 0.9066
 IR Inten    --      1.5742                 8.3834                 2.7163

                     16                     17                     18
                      A                      A                      A
 Frequencies --    889.2089               913.7706               924.3896
 Red. masses --      1.7167                 2.2656                 2.0235
 Frc consts  --      0.7998                 1.1146                 1.0188
 IR Inten    --      1.3235                11.3711                 8.7876

                     19                     20                     21
                      A                      A                      A
 Frequencies --    966.5713               989.4396              1009.9849
 Red. masses --      1.5883                 1.4738                 2.0119
 Frc consts  --      0.8743                 0.8501                 1.2092
 IR Inten    --     14.5997                 3.8075                 2.7686

                     22                     23                     24
                      A                      A                      A
 Frequencies --   1052.9585              1088.3808              1093.5088
 Red. masses --      5.1945                 2.0195                 1.8619
 Frc consts  --      3.3933                 1.4094                 1.3117
 IR Inten    --     51.8012                 7.4541                 7.8491

                     25                     26                     27
                      A                      A                      A
 Frequencies --   1102.6367              1130.9049              1155.1891
 Red. masses --      2.1962                 1.9443                 1.5250
 Frc consts  --      1.5732                 1.4651                 1.1990
 IR Inten    --      0.6578                 8.7035                 3.7723

                     28                     29                     30
                      A                      A                      A
 Frequencies --   1180.7775              1201.4815              1217.7905
 Red. masses --      1.2945                 1.5599                 2.0436
 Frc consts  --      1.0634                 1.3268                 1.7856
 IR Inten    --      2.9204                 1.5002                55.6205

                     31                     32                     33
                      A                      A                      A
 Frequencies --   1230.4720              1258.2557              1270.6671
 Red. masses --      1.6282                 2.1043                 1.7707
 Frc consts  --      1.4525                 1.9629                 1.6845
 IR Inten    --      4.3539                48.4880                14.8261

                     34                     35                     36
                      A                      A                      A
 Frequencies --   1315.1197              1339.3769              1481.0289
 Red. masses --      1.5373                 3.0895                 1.3249
 Frc consts  --      1.5666                 3.2654                 1.7122
 IR Inten    --    113.9522               186.9709                12.2724

                     37                     38                     39
                      A                      A                      A
 Frequencies --   1484.5699              1489.0099              1491.0584
 Red. masses --      1.1475                 1.1868                 1.5007
 Frc consts  --      1.4900                 1.5504                 1.9658
 IR Inten    --      1.4748                11.2634                15.9416

                     40                     41                     42
                      A                      A                      A
 Frequencies --   1505.8380              1515.8490              2990.4652
 Red. masses --      1.0625                 1.5743                 1.0354
 Frc consts  --      1.4195                 2.1313                 5.4554
 IR Inten    --     11.9758                24.3502                41.2781

                     43                     44                     45
                      A                      A                      A
 Frequencies --   3029.2534              3037.8956              3043.3439
 Red. masses --      1.0615                 1.0583                 1.1013
 Frc consts  --      5.7390                 5.7547                 6.0097
 IR Inten    --     13.7529                66.0192                59.4774

                     46                     47                     48
                      A                      A                      A
 Frequencies --   3095.2681              3103.1071              3121.3514
 Red. masses --      1.1057                 1.1050                 1.0979
 Frc consts  --      6.2412                 6.2693                 6.3025
 IR Inten    --     22.5233                24.9162                29.7613

                     49                     50                     51
                      A                      A                      A
 Frequencies --   3200.3571              3209.8507              3786.0183
 Red. masses --      1.0924                 1.0947                 1.0659
 Frc consts  --      6.5920                 6.6451                 9.0022
 IR Inten    --      5.5677                18.5864                24.2543

 - Thermochemistry -
 -------------------
 Temperature   298.150 Kelvin.  Pressure   1.00000 Atm.
 Atom     1 has atomic number  6 and mass  12.00000

 Molecular mass:   126.06808 amu.
 Principal axes and moments of inertia in atomic units:
                           1         2         3
     Eigenvalues --   648.454051236.220891388.63761
           X            0.99998   0.00167  -0.00579
           Y           -0.00148   0.99943   0.03363
           Z            0.00584  -0.03362   0.99942
 This molecule is an asymmetric top.
 Rotational symmetry number  1.
 Warning -- assumption of classical behavior for rotation
           may cause significant error
 Rotational temperatures (Kelvin)      0.13357     0.07006     0.06237
 Rotational constants (GHZ):           2.78314     1.45989     1.29965
 Zero-point vibrational energy     415940.2 (Joules/Mol)
                                   99.41210 (Kcal/Mol)
 Warning -- explicit consideration of  11 degrees of freedom as
           vibrations may cause significant error
 Vibrational temperatures:    111.59   211.38   271.89   333.94   393.14
          (Kelvin)            478.77   563.66   574.79   703.91   732.39
                              839.71   991.15  1022.48  1068.47  1234.06
                             1279.37  1314.71  1329.99  1390.68  1423.58
                             1453.14  1514.97  1565.94  1573.31  1586.45
                             1627.12  1662.06  1698.87  1728.66  1752.13
                             1770.37  1810.35  1828.20  1892.16  1927.06
                             2130.87  2135.96  2142.35  2145.30  2166.56
                             2180.97  4302.61  4358.41  4370.85  4378.69
                             4453.39  4464.67  4490.92  4604.59  4618.25
                             5447.23

 Zero-point correction=                           0.158423 (Hartree/Particle)
 Thermal correction to Energy=                    0.166803
 Thermal correction to Enthalpy=                  0.167747
 Thermal correction to Gibbs Free Energy=         0.125600
 Sum of electronic and zero-point Energies=           -422.955634
 Sum of electronic and thermal Energies=              -422.947255
 Sum of electronic and thermal Enthalpies=            -422.946310
 Sum of electronic and thermal Free Energies=         -422.988458

                     E (Thermal)             CV                S
                      KCal/Mol        Cal/Mol-Kelvin    Cal/Mol-Kelvin
 Total                  104.670             32.477             88.706
 Electronic               0.000              0.000              0.000
 Translational            0.889              2.981             40.409
 Rotational               0.889              2.981             28.500
 Vibrational            102.893             26.515             19.798
 Vibration     1          0.599              1.964              3.952
 Vibration     2          0.617              1.906              2.712
 Vibration     3          0.633              1.855              2.238
 Vibration     4          0.653              1.792              1.863
 Vibration     5          0.676              1.723              1.576
 Vibration     6          0.715              1.610              1.247
 Vibration     7          0.759              1.488              0.993
 Vibration     8          0.766              1.471              0.964
 Vibration     9          0.845              1.274              0.686
 Vibration    10          0.864              1.230              0.636
 Vibration    11          0.941              1.067              0.479

 Optimization completed.
    -- Stationary point found.
 Normal termination of Gaussian 09 at Tue Jan 28 10:38:03 2020.
