 Gaussian 09, Revision D.01,
 Gaussian 09:  ES64L-G09RevD.01 24-Apr-2013

 -----------------------------
 # b3lyp 6-31G(2df,p) opt Freq
 -----------------------------

 -----
 titel
 -----
 Symbolic Z-matrix:
 Charge =  0 Multiplicity = 1

 SCF Done:  E(RB3LYP) =  -423.148025897     A.U. after   15 cycles
 Optimization completed.
    -- Stationary point found.
 Normal termination of Gaussian 09 at Mon Jan 27 15:53:23 2020.

 ----------------------------------------------------------------------
 #N Geom=AllCheck Guess=TCheck SCRF=Check GenChk RB3LYP/6-31G(2df,p) Fr
 eq
 ----------------------------------------------------------------------

 Structure from the checkpoint file:  "/scratch/puck/g09_fc6f27a6-9513-48ff-a128-ab949588c9a6/Gau-10121.chk"
 -----
 titel
 -----
 Charge =  0 Multiplicity = 1

                         Standard orientation:
 ---------------------------------------------------------------------
 Center     Atomic      Atomic             Coordinates (Angstroms)
 Number     Number       Type             X           Y           Z
 ---------------------------------------------------------------------
      1          6           0       -1.847548    0.171091    1.657480
      2          6           0       -0.999825    0.209066    0.385224
      3          8           0        0.125041   -0.628904    0.594543
      4          6           0        1.189663   -0.453069   -0.340535
      5          6           0        2.177960   -1.594921   -0.103870
      6          6           0        1.827878    0.862423   -0.197250
      7          6           0        2.355387    1.935756   -0.076869
      8          6           0       -1.831785   -0.304107   -0.788268
      9          8           0       -2.565651    0.377239   -1.453851
     10          1           0       -2.173226   -0.851342    1.872863
     11          1           0       -1.253711    0.528125    2.502241
     12          1           0       -2.728662    0.806688    1.540452
     13          1           0       -0.691226    1.240843    0.171885
     14          1           0        0.795060   -0.529547   -1.367429
     15          1           0        1.669659   -2.552464   -0.240832
     16          1           0        3.012668   -1.525933   -0.805236
     17          1           0        2.567834   -1.543579    0.915382
     18          1           0        2.820056    2.885660    0.024994
     19          1           0       -1.723949   -1.402574   -0.955322
 ---------------------------------------------------------------------

 SCF Done:  E(RB3LYP) =  -423.148025897     A.U. after    1 cycles

 The electronic state is 1-A.
 Alpha  occ. eigenvalues --  -19.15745 -19.14610 -10.27198 -10.26885 -10.24453
 Alpha  occ. eigenvalues --  -10.18990 -10.18979 -10.18937 -10.18591  -1.05797
 Alpha  occ. eigenvalues --   -1.04582  -0.81318  -0.76175  -0.73189  -0.66020
 Alpha  occ. eigenvalues --   -0.64496  -0.58321  -0.54305  -0.52267  -0.49701
 Alpha  occ. eigenvalues --   -0.47387  -0.44625  -0.44305  -0.41445  -0.40867
 Alpha  occ. eigenvalues --   -0.38874  -0.38297  -0.38138  -0.36492  -0.33813
 Alpha  occ. eigenvalues --   -0.29982  -0.28195  -0.27574  -0.24677
 Alpha virt. eigenvalues --   -0.03236   0.03043   0.04407   0.10644   0.11784
 Alpha virt. eigenvalues --    0.12078   0.12312   0.13691   0.14848   0.15818
 Alpha virt. eigenvalues --    0.16790   0.17351   0.18072   0.19139   0.19979

 Mulliken charges:
               1
     1  C   -0.412297
     2  C    0.045568
     3  O   -0.256496
     4  C   -0.046797
     5  C   -0.395124
     6  C    0.356664
     7  C   -0.488907
     8  C    0.136844
     9  O   -0.240483
    10  H    0.129936
    11  H    0.136513
    12  H    0.138501
    13  H    0.107521
    14  H    0.103824
    15  H    0.126465
    16  H    0.130881
    17  H    0.139794
    18  H    0.205494
    19  H    0.082099
 Sum of Mulliken charges =   0.00000

 Dipole moment (field-independent basis, Debye):
    X=              1.6410    Y=             -0.4800    Z=              0.9703  Tot=              1.9659
 Quadrupole moment (field-independent basis, Debye-Ang):
   XX=            -55.8776   YY=            -49.2909   ZZ=            -55.8829
   XY=              3.3153   XZ=             -5.9414   YZ=              3.0495

  Exact polarizability:  84.582   5.452  85.047   0.908   2.042  66.110
 Approx polarizability: 110.252  11.221 133.645   6.687  -0.061  96.896

                      1                      2                      3
                      A                      A                      A
 Frequencies --     37.4269                58.1391                89.1763
 Red. masses --      5.1045                 4.2496                 3.3717
 Frc consts  --      0.0042                 0.0085                 0.0158
 IR Inten    --      1.9191                 5.0466                 1.2766

                      4                      5                      6
                      A                      A                      A
 Frequencies --    143.4012               202.5343               214.5157
 Red. masses --      3.1762                 2.7245                 1.4016
 Frc consts  --      0.0385                 0.0658                 0.0380
 IR Inten    --      1.7016                 0.8713                 0.5998

                      7                      8                      9
                      A                      A                      A
 Frequencies --    224.4439               252.4207               279.6436
 Red. masses --      1.0735                 2.0477                 2.5097
 Frc consts  --      0.0319                 0.0769                 0.1156
 IR Inten    --      0.5620                 1.1196                 4.5523

                     10                     11                     12
                      A                      A                      A
 Frequencies --    358.0031               378.2562               420.2465
 Red. masses --      3.4666                 3.4344                 3.4289
 Frc consts  --      0.2618                 0.2895                 0.3568
 IR Inten    --      3.1868                14.8678                 2.8247

                     13                     14                     15
                      A                      A                      A
 Frequencies --    521.1982               575.6845               617.4574
 Red. masses --      4.9799                 4.3998                 4.3850
 Frc consts  --      0.7970                 0.8591                 0.9850
 IR Inten    --      3.6886                 8.6326                 1.3516

                     16                     17                     18
                      A                      A                      A
 Frequencies --    635.8755               682.3783               813.2463
 Red. masses --      1.2530                 1.2554                 2.4216
 Frc consts  --      0.2985                 0.3444                 0.9436
 IR Inten    --     42.2346                34.3967                 4.0222

                     19                     20                     21
                      A                      A                      A
 Frequencies --    873.1839               895.3575               925.7351
 Red. masses --      1.9221                 1.6859                 2.1606
 Frc consts  --      0.8634                 0.7963                 1.0909
 IR Inten    --      5.1899                18.9923                 4.9592

                     22                     23                     24
                      A                      A                      A
 Frequencies --    998.6094              1066.4602              1105.0303
 Red. masses --      2.1056                 2.2789                 2.9530
 Frc consts  --      1.2371                 1.5271                 2.1246
 IR Inten    --      6.5976                36.6055                49.4355

                     25                     26                     27
                      A                      A                      A
 Frequencies --   1110.6973              1127.3755              1156.3202
 Red. masses --      2.2442                 2.5542                 2.1600
 Frc consts  --      1.6312                 1.9127                 1.7016
 IR Inten    --      8.0410               140.2478                32.8706

                     28                     29                     30
                      A                      A                      A
 Frequencies --   1182.9202              1312.1559              1326.6807
 Red. masses --      2.3664                 1.3569                 1.2096
 Frc consts  --      1.9510                 1.3765                 1.2544
 IR Inten    --     15.2536                12.9491                20.0084

                     31                     32                     33
                      A                      A                      A
 Frequencies --   1348.8676              1376.9306              1390.6372
 Red. masses --      1.3992                 1.2344                 1.2228
 Frc consts  --      1.5000                 1.3789                 1.3932
 IR Inten    --     28.3600                 8.0759                 1.3460

                     34                     35                     36
                      A                      A                      A
 Frequencies --   1401.6432              1405.2278              1481.6259
 Red. masses --      1.2391                 1.2586                 1.0439
 Frc consts  --      1.4343                 1.4643                 1.3501
 IR Inten    --     11.5696                 1.2804                 3.8671

                     37                     38                     39
                      A                      A                      A
 Frequencies --   1483.7360              1494.0920              1498.1288
 Red. masses --      1.0477                 1.0496                 1.0539
 Frc consts  --      1.3589                 1.3804                 1.3936
 IR Inten    --      5.2992                 1.1929                 1.6792

                     40                     41                     42
                      A                      A                      A
 Frequencies --   1838.8799              2231.8295              2853.9515
 Red. masses --     10.7377                 5.8816                 1.0827
 Frc consts  --     21.3929                17.2610                 5.1958
 IR Inten    --    139.1735                 3.3209                88.4486

                     43                     44                     45
                      A                      A                      A
 Frequencies --   2962.6267              3031.9184              3046.8174
 Red. masses --      1.0811                 1.0834                 1.0342
 Frc consts  --      5.5906                 5.8680                 5.6567
 IR Inten    --     29.9069                10.6735                13.5754

                     46                     47                     48
                      A                      A                      A
 Frequencies --   3054.6206              3122.6187              3136.1641
 Red. masses --      1.0336                 1.1014                 1.1032
 Frc consts  --      5.6820                 6.3277                 6.3928
 IR Inten    --     12.2751                14.1787                16.4476

                     49                     50                     51
                      A                      A                      A
 Frequencies --   3137.4886              3139.4979              3500.6882
 Red. masses --      1.1031                 1.1028                 1.1630
 Frc consts  --      6.3977                 6.4044                 8.3976
 IR Inten    --     10.5244                13.2286                61.3023

 - Thermochemistry -
 -------------------
 Temperature   298.150 Kelvin.  Pressure   1.00000 Atm.
 Atom     1 has atomic number  6 and mass  12.00000

 Molecular mass:   126.06808 amu.
 Principal axes and moments of inertia in atomic units:
                           1         2         3
     Eigenvalues --   794.154971869.701541955.03523
           X            0.99930  -0.00904  -0.03631
           Y            0.01476   0.98692   0.16056
           Z            0.03438  -0.16098   0.98636
 This molecule is an asymmetric top.
 Rotational symmetry number  1.
 Warning -- assumption of classical behavior for rotation
           may cause significant error
 Rotational temperatures (Kelvin)      0.10906     0.04632     0.04430
 Rotational constants (GHZ):           2.27253     0.96526     0.92312
 Zero-point vibrational energy     403874.6 (Joules/Mol)
                                   96.52835 (Kcal/Mol)
 Warning -- explicit consideration of  15 degrees of freedom as
           vibrations may cause significant error
 Vibrational temperatures:     53.85    83.65   128.30   206.32   291.40
          (Kelvin)            308.64   322.92   363.18   402.34   515.09
                              544.23   604.64   749.89   828.28   888.38
                              914.88   981.79  1170.08  1256.32  1288.22
                             1331.92  1436.77  1534.40  1589.89  1598.04
                             1622.04  1663.68  1701.96  1887.90  1908.80
                             1940.72  1981.09  2000.81  2016.65  2021.81
                             2131.73  2134.76  2149.66  2155.47  2645.73
                             3211.10  4106.19  4262.55  4362.25  4383.69
                             4394.91  4492.75  4512.23  4514.14  4517.03
                             5036.70

 Zero-point correction=                           0.153828 (Hartree/Particle)
 Thermal correction to Energy=                    0.164561
 Thermal correction to Enthalpy=                  0.165505
 Thermal correction to Gibbs Free Energy=         0.117014
 Sum of electronic and zero-point Energies=           -422.994198
 Sum of electronic and thermal Energies=              -422.983465
 Sum of electronic and thermal Enthalpies=            -422.982521
 Sum of electronic and thermal Free Energies=         -423.031012

                     E (Thermal)             CV                S
                      KCal/Mol        Cal/Mol-Kelvin    Cal/Mol-Kelvin
 Total                  103.264             37.576            102.059
 Electronic               0.000              0.000              0.000
 Translational            0.889              2.981             40.409
 Rotational               0.889              2.981             29.453
 Vibrational            101.486             31.614             32.198
 Vibration     1          0.594              1.982              5.391
 Vibration     2          0.596              1.974              4.519
 Vibration     3          0.602              1.957              3.678
 Vibration     4          0.616              1.910              2.758
 Vibration     5          0.639              1.836              2.110
 Vibration     6          0.644              1.819              2.005
 Vibration     7          0.649              1.804              1.923
 Vibration     8          0.664              1.759              1.714
 Vibration     9          0.680              1.711              1.536
 Vibration    10          0.733              1.559              1.131
 Vibration    11          0.749              1.516              1.046
 Vibration    12          0.783              1.426              0.891
 Vibration    13          0.876              1.203              0.607
 Vibration    14          0.932              1.084              0.493
 Vibration    15          0.977              0.995              0.421

 Normal termination of Gaussian 09 at Mon Jan 27 17:33:34 2020.
