 Gaussian 09, Revision D.01,
 Gaussian 09:  ES64L-G09RevD.01 24-Apr-2013

 -----------------------------
 # b3lyp 6-31G(2df,p) opt Freq
 -----------------------------

 -----
 titel
 -----
 Symbolic Z-matrix:
 Charge =  0 Multiplicity = 1

 SCF Done:  E(RB3LYP) =  -423.112458151     A.U. after   12 cycles
 Optimization completed.
    -- Stationary point found.
 Normal termination of Gaussian 09 at Tue Jan 28 01:53:01 2020.

 ----------------------------------------------------------------------
 #N Geom=AllCheck Guess=TCheck SCRF=Check GenChk RB3LYP/6-31G(2df,p) Fr
 eq
 ----------------------------------------------------------------------

 Structure from the checkpoint file:  "/scratch/puck/g09_f557a503-9bb8-4c5d-b57f-4e313cd87547/Gau-187369.chk"
 -----
 titel
 -----
 Charge =  0 Multiplicity = 1

                         Standard orientation:
 ---------------------------------------------------------------------
 Center     Atomic      Atomic             Coordinates (Angstroms)
 Number     Number       Type             X           Y           Z
 ---------------------------------------------------------------------
      1          6           0       -2.550355    1.228910    0.141789
      2          6           0       -1.733706    0.262419   -0.687949
      3          6           0       -1.774344   -1.233147   -0.379618
      4          6           0       -0.550796   -0.428720   -0.090131
      5          8           0       -0.132776   -0.185644    1.271678
      6          6           0        1.223969   -0.432868    0.894043
      7          6           0        1.694234    0.573725   -0.104914
      8          8           0        3.063094    0.503090   -0.364340
      9          6           0        0.865244   -0.622924   -0.564775
     10          1           0       -3.597024    1.240812   -0.180776
     11          1           0       -2.520390    0.954196    1.199527
     12          1           0       -2.159834    2.248619    0.056754
     13          1           0       -1.640066    0.521638   -1.740421
     14          1           0       -2.360132   -1.546178    0.479199
     15          1           0       -1.751625   -1.943900   -1.199670
     16          1           0        1.868406   -0.976827    1.573540
     17          1           0        1.251612    1.571459   -0.098998
     18          1           0        3.198490    0.646607   -1.307050
     19          1           0        1.222553   -1.340376   -1.291486
 ---------------------------------------------------------------------

 SCF Done:  E(RB3LYP) =  -423.112458151     A.U. after    1 cycles

 The electronic state is 1-A.
 Alpha  occ. eigenvalues --  -19.15087 -19.14134 -10.24278 -10.23836 -10.23758
 Alpha  occ. eigenvalues --  -10.19519 -10.19031 -10.18205 -10.17509  -1.06008
 Alpha  occ. eigenvalues --   -1.03149  -0.85426  -0.82166  -0.70994  -0.64213
 Alpha  occ. eigenvalues --   -0.60151  -0.57902  -0.53329  -0.52445  -0.50453
 Alpha  occ. eigenvalues --   -0.48922  -0.44596  -0.42789  -0.41548  -0.39933
 Alpha  occ. eigenvalues --   -0.38757  -0.36775  -0.35754  -0.33978  -0.31703
 Alpha  occ. eigenvalues --   -0.30905  -0.27620  -0.24869  -0.22285
 Alpha virt. eigenvalues --    0.06283   0.09109   0.10001   0.11133   0.12696
 Alpha virt. eigenvalues --    0.12906   0.14488   0.14751   0.16035   0.17053
 Alpha virt. eigenvalues --    0.18302   0.18626   0.18990   0.20962   0.23644

 Mulliken charges:
               1
     1  C   -0.403397
     2  C   -0.081167
     3  C   -0.376076
     4  C    0.464922
     5  O   -0.317576
     6  C    0.075792
     7  C    0.060867
     8  O   -0.429820
     9  C   -0.286141
    10  H    0.114474
    11  H    0.134697
    12  H    0.117667
    13  H    0.084676
    14  H    0.123152
    15  H    0.112024
    16  H    0.116185
    17  H    0.094777
    18  H    0.290962
    19  H    0.103983
 Sum of Mulliken charges =   0.00000

 Dipole moment (field-independent basis, Debye):
    X=             -0.1311    Y=             -0.1711    Z=             -2.3774  Tot=              2.3872
 Quadrupole moment (field-independent basis, Debye-Ang):
   XX=            -54.1706   YY=            -51.9196   ZZ=            -51.1633
   XY=             -0.3745   XZ=             -3.1995   YZ=             -1.0303

  Exact polarizability:  91.603   0.832  70.345   0.686   0.045  67.023
 Approx polarizability: 116.680   3.172 102.457   1.703  -0.336 107.349

                      1                      2                      3
                      A                      A                      A
 Frequencies --     96.7673               167.8353               178.9951
 Red. masses --      4.2518                 3.0140                 1.6056
 Frc consts  --      0.0235                 0.0500                 0.0303
 IR Inten    --      0.0362                 2.9199                 2.3016

                      4                      5                      6
                      A                      A                      A
 Frequencies --    216.0790               285.3389               292.6247
 Red. masses --      1.3981                 2.8857                 2.4488
 Frc consts  --      0.0385                 0.1384                 0.1235
 IR Inten    --      1.7865                 1.9421                 6.4762

                      7                      8                      9
                      A                      A                      A
 Frequencies --    336.2182               406.4069               416.9111
 Red. masses --      1.5576                 2.1580                 3.6880
 Frc consts  --      0.1037                 0.2100                 0.3777
 IR Inten    --     97.6377                 0.3438                 8.0387

                     10                     11                     12
                      A                      A                      A
 Frequencies --    473.8455               532.5613               603.0931
 Red. masses --      3.9027                 4.2540                 3.9475
 Frc consts  --      0.5163                 0.7109                 0.8459
 IR Inten    --      3.5430                 1.4350                 2.3128

                     13                     14                     15
                      A                      A                      A
 Frequencies --    785.1176               802.6058               857.0437
 Red. masses --      2.2099                 1.3324                 1.8358
 Frc consts  --      0.8026                 0.5057                 0.7945
 IR Inten    --     10.2076                 9.3081                 4.5917

                     16                     17                     18
                      A                      A                      A
 Frequencies --    888.4920               897.0907               909.0990
 Red. masses --      1.6374                 2.1097                 3.1710
 Frc consts  --      0.7616                 1.0003                 1.5441
 IR Inten    --      9.7757                 6.4241                 8.2020

                     19                     20                     21
                      A                      A                      A
 Frequencies --    945.6168               963.8566               989.2053
 Red. masses --      3.2625                 3.2323                 1.4705
 Frc consts  --      1.7188                 1.7693                 0.8478
 IR Inten    --     22.4928                45.5038                 9.2923

                     22                     23                     24
                      A                      A                      A
 Frequencies --   1024.6927              1038.3773              1062.4635
 Red. masses --      1.6174                 1.2927                 2.2976
 Frc consts  --      1.0006                 0.8212                 1.5281
 IR Inten    --     28.9102                 7.2439                31.8060

                     25                     26                     27
                      A                      A                      A
 Frequencies --   1086.4087              1095.5930              1128.1164
 Red. masses --      1.5862                 1.9132                 1.7646
 Frc consts  --      1.1030                 1.3530                 1.3231
 IR Inten    --     24.9619                 6.5125                14.1179

                     28                     29                     30
                      A                      A                      A
 Frequencies --   1146.5904              1168.0791              1181.3517
 Red. masses --      2.6220                 1.5542                 2.1399
 Frc consts  --      2.0309                 1.2494                 1.7595
 IR Inten    --     88.5017                 5.8802                 6.6421

                     31                     32                     33
                      A                      A                      A
 Frequencies --   1191.2793              1228.1071              1282.0904
 Red. masses --      2.0853                 2.2696                 1.1986
 Frc consts  --      1.7436                 2.0168                 1.1608
 IR Inten    --      3.2989                20.5860                50.5395

                     34                     35                     36
                      A                      A                      A
 Frequencies --   1311.4592              1321.9557              1412.1602
 Red. masses --      1.6720                 1.6081                 1.2333
 Frc consts  --      1.6943                 1.6557                 1.4491
 IR Inten    --      9.1964                29.8947                 1.1007

                     37                     38                     39
                      A                      A                      A
 Frequencies --   1428.2934              1440.1042              1489.7725
 Red. masses --      1.4452                 2.2369                 1.3730
 Frc consts  --      1.7371                 2.7333                 1.7953
 IR Inten    --      4.3729                 1.3941                14.2239

                     40                     41                     42
                      A                      A                      A
 Frequencies --   1492.7441              1511.0637              3033.2014
 Red. masses --      1.0939                 1.4821                 1.0362
 Frc consts  --      1.4362                 1.9939                 5.6167
 IR Inten    --      0.1585                14.9470                34.9810

                     43                     44                     45
                      A                      A                      A
 Frequencies --   3084.4721              3092.8998              3112.7673
 Red. masses --      1.0880                 1.1014                 1.0944
 Frc consts  --      6.0989                 6.2076                 6.2479
 IR Inten    --     29.0374                26.8767                 2.8590

                     46                     47                     48
                      A                      A                      A
 Frequencies --   3122.3509              3132.1981              3191.5509
 Red. masses --      1.0551                 1.0917                 1.0899
 Frc consts  --      6.0603                 6.3105                 6.5412
 IR Inten    --      9.9802                25.1286                12.6992

                     49                     50                     51
                      A                      A                      A
 Frequencies --   3204.9755              3211.6665              3800.5112
 Red. masses --      1.0989                 1.1164                 1.0663
 Frc consts  --      6.6506                 6.7848                 9.0744
 IR Inten    --     11.8531                 7.2078                22.2733

 - Thermochemistry -
 -------------------
 Temperature   298.150 Kelvin.  Pressure   1.00000 Atm.
 Atom     1 has atomic number  6 and mass  12.00000

 Molecular mass:   126.06808 amu.
 Principal axes and moments of inertia in atomic units:
                           1         2         3
     Eigenvalues --   485.208231717.061611764.45851
           X            0.99989  -0.01410  -0.00508
           Y            0.01442   0.99754   0.06861
           Z            0.00410  -0.06868   0.99763
 This molecule is an asymmetric top.
 Rotational symmetry number  1.
 Warning -- assumption of classical behavior for rotation
           may cause significant error
 Rotational temperatures (Kelvin)      0.17851     0.05044     0.04909
 Rotational constants (GHZ):           3.71952     1.05106     1.02283
 Zero-point vibrational energy     413142.9 (Joules/Mol)
                                   98.74352 (Kcal/Mol)
 Warning -- explicit consideration of  12 degrees of freedom as
           vibrations may cause significant error
 Vibrational temperatures:    139.23   241.48   257.53   310.89   410.54
          (Kelvin)            421.02   483.74   584.73   599.84   681.76
                              766.24   867.72  1129.61  1154.77  1233.09
                             1278.34  1290.71  1307.99  1360.53  1386.77
                             1423.24  1474.30  1493.99  1528.65  1563.10
                             1576.31  1623.11  1649.69  1680.60  1699.70
                             1713.98  1766.97  1844.64  1886.89  1902.00
                             2031.78  2054.99  2071.99  2143.45  2147.72
                             2174.08  4364.09  4437.86  4449.99  4478.57
                             4492.36  4506.53  4591.92  4611.24  4620.87
                             5468.08

 Zero-point correction=                           0.157358 (Hartree/Particle)
 Thermal correction to Energy=                    0.165959
 Thermal correction to Enthalpy=                  0.166903
 Thermal correction to Gibbs Free Energy=         0.124415
 Sum of electronic and zero-point Energies=           -422.955100
 Sum of electronic and thermal Energies=              -422.946499
 Sum of electronic and thermal Enthalpies=            -422.945555
 Sum of electronic and thermal Free Energies=         -422.988043

                     E (Thermal)             CV                S
                      KCal/Mol        Cal/Mol-Kelvin    Cal/Mol-Kelvin
 Total                  104.141             33.385             89.423
 Electronic               0.000              0.000              0.000
 Translational            0.889              2.981             40.409
 Rotational               0.889              2.981             28.776
 Vibrational            102.363             27.423             20.238
 Vibration     1          0.603              1.951              3.518
 Vibration     2          0.625              1.882              2.460
 Vibration     3          0.629              1.868              2.339
 Vibration     4          0.645              1.817              1.992
 Vibration     5          0.683              1.701              1.501
 Vibration     6          0.688              1.687              1.459
 Vibration     7          0.717              1.603              1.230
 Vibration     8          0.771              1.456              0.939
 Vibration     9          0.780              1.434              0.903
 Vibration    10          0.831              1.308              0.727
 Vibration    11          0.888              1.178              0.582
 Vibration    12          0.961              1.025              0.444

 Normal termination of Gaussian 09 at Tue Jan 28 02:36:40 2020.
