 Gaussian 09, Revision D.01,
 Gaussian 09:  ES64L-G09RevD.01 24-Apr-2013

 -----------------------------
 # b3lyp 6-31G(2df,p) opt Freq
 -----------------------------

 -----
 titel
 -----
 Symbolic Z-matrix:
 Charge =  0 Multiplicity = 1

 SCF Done:  E(RB3LYP) =  -423.095748196     A.U. after   13 cycles
 Optimization completed.
    -- Stationary point found.
 Normal termination of Gaussian 09 at Mon Jan 27 16:24:45 2020.

 ----------------------------------------------------------------------
 #N Geom=AllCheck Guess=TCheck SCRF=Check GenChk RB3LYP/6-31G(2df,p) Fr
 eq
 ----------------------------------------------------------------------

 Structure from the checkpoint file:  "/scratch/puck/g09_59c6bda0-cacb-46f6-a7b6-8390e1a1e57f/Gau-76306.chk"
 -----
 titel
 -----
 Charge =  0 Multiplicity = 1

                         Standard orientation:
 ---------------------------------------------------------------------
 Center     Atomic      Atomic             Coordinates (Angstroms)
 Number     Number       Type             X           Y           Z
 ---------------------------------------------------------------------
      1          6           0       -1.580991    1.556265   -0.129750
      2          6           0       -1.070507    0.137956   -0.038372
      3          6           0       -1.869703   -0.990961   -0.538036
      4          8           0       -1.767513   -0.734234    0.865233
      5          6           0        0.415858   -0.008981    0.036120
      6          6           0        1.419800    0.650526    1.025101
      7          6           0        2.198448   -0.027128   -0.123119
      8          6           0        1.301948   -1.280361    0.004957
      9          8           0        1.225770    0.542312   -1.088010
     10          1           0       -1.154800    2.053505   -1.005899
     11          1           0       -2.670817    1.568848   -0.203911
     12          1           0       -1.289860    2.126790    0.758105
     13          1           0       -2.845461   -0.791860   -0.978993
     14          1           0       -1.377702   -1.897324   -0.884972
     15          1           0        1.437032    1.740711    1.013731
     16          1           0        1.499905    0.226871    2.028882
     17          1           0        3.254681    0.042660   -0.379875
     18          1           0        1.219719   -1.880316   -0.902125
     19          1           0        1.372132   -1.878396    0.915866
 ---------------------------------------------------------------------

 SCF Done:  E(RB3LYP) =  -423.095748196     A.U. after    1 cycles

 The electronic state is 1-A.
 Alpha  occ. eigenvalues --  -19.15358 -19.13114 -10.25373 -10.25027 -10.24726
 Alpha  occ. eigenvalues --  -10.23475 -10.19322 -10.19279 -10.18269  -1.07460
 Alpha  occ. eigenvalues --   -1.05349  -0.79382  -0.75901  -0.68534  -0.66994
 Alpha  occ. eigenvalues --   -0.65804  -0.58341  -0.54241  -0.51947  -0.47900
 Alpha  occ. eigenvalues --   -0.45362  -0.44734  -0.44023  -0.41046  -0.40553
 Alpha  occ. eigenvalues --   -0.39428  -0.37319  -0.35369  -0.34329  -0.32888
 Alpha  occ. eigenvalues --   -0.32152  -0.29391  -0.26841  -0.23935
 Alpha virt. eigenvalues --    0.07371   0.09236   0.10215   0.11440   0.11804
 Alpha virt. eigenvalues --    0.12641   0.13205   0.14102   0.14517   0.16274
 Alpha virt. eigenvalues --    0.17295   0.17716   0.18738   0.18871   0.20978

 Mulliken charges:
               1
     1  C   -0.485461
     2  C    0.227677
     3  C   -0.219637
     4  O   -0.274883
     5  C    0.445185
     6  C   -0.265468
     7  C    0.043204
     8  C   -0.268424
     9  O   -0.352070
    10  H    0.144955
    11  H    0.125265
    12  H    0.129601
    13  H    0.115366
    14  H    0.114313
    15  H    0.107403
    16  H    0.103572
    17  H    0.098022
    18  H    0.105988
    19  H    0.105393
 Sum of Mulliken charges =   0.00000

 Dipole moment (field-independent basis, Debye):
    X=              0.4356    Y=             -0.2185    Z=              0.0231  Tot=              0.4878
 Quadrupole moment (field-independent basis, Debye-Ang):
   XX=            -50.3833   YY=            -51.7881   ZZ=            -56.0697
   XY=             -2.1962   XZ=              5.5009   YZ=              2.9997

  Exact polarizability:  83.896   1.419  76.437   3.507   3.722  65.162
 Approx polarizability: 112.070   5.086 111.098   1.442   0.603 108.933

                      1                      2                      3
                      A                      A                      A
 Frequencies --     38.5291               158.2970               182.0622
 Red. masses --      3.4859                 2.5429                 1.6889
 Frc consts  --      0.0030                 0.0375                 0.0330
 IR Inten    --      2.7803                 6.5582                 0.1085

                      4                      5                      6
                      A                      A                      A
 Frequencies --    192.4859               305.3570               352.5875
 Red. masses --      1.8466                 3.4111                 2.5342
 Frc consts  --      0.0403                 0.1874                 0.1856
 IR Inten    --      3.0691                 0.6782                 2.2200

                      7                      8                      9
                      A                      A                      A
 Frequencies --    395.8534               466.3874               525.7790
 Red. masses --      3.9010                 2.9793                 2.3986
 Frc consts  --      0.3602                 0.3818                 0.3907
 IR Inten    --      1.3560                 3.5447                 2.3839

                     10                     11                     12
                      A                      A                      A
 Frequencies --    556.3701               606.7804               735.1996
 Red. masses --      2.7500                 2.5987                 5.0254
 Frc consts  --      0.5015                 0.5637                 1.6004
 IR Inten    --      2.4255                 4.7993                26.3324

                     13                     14                     15
                      A                      A                      A
 Frequencies --    804.1575               805.0908               861.4457
 Red. masses --      2.5450                 3.6389                 3.0001
 Frc consts  --      0.9697                 1.3897                 1.3117
 IR Inten    --      1.0241                12.9621                19.4258

                     16                     17                     18
                      A                      A                      A
 Frequencies --    901.7953               920.3852               932.7564
 Red. masses --      2.7744                 2.6688                 1.8757
 Frc consts  --      1.3293                 1.3320                 0.9615
 IR Inten    --     29.8466                 0.5799                 6.6969

                     19                     20                     21
                      A                      A                      A
 Frequencies --    949.0488               981.5484               987.3791
 Red. masses --      1.9717                 2.6763                 1.4721
 Frc consts  --      1.0463                 1.5192                 0.8456
 IR Inten    --      2.9147                12.2508                 7.3821

                     22                     23                     24
                      A                      A                      A
 Frequencies --   1020.7054              1084.7961              1095.8011
 Red. masses --      1.7005                 1.3440                 1.4921
 Frc consts  --      1.0438                 0.9318                 1.0556
 IR Inten    --     10.6509                 9.9820                 1.8878

                     25                     26                     27
                      A                      A                      A
 Frequencies --   1111.0306              1123.4184              1135.9990
 Red. masses --      1.7824                 1.6330                 1.3481
 Frc consts  --      1.2963                 1.2143                 1.0250
 IR Inten    --      3.4903                 3.1848                 5.2743

                     28                     29                     30
                      A                      A                      A
 Frequencies --   1157.3064              1163.6398              1175.1651
 Red. masses --      1.5223                 1.6504                 1.9393
 Frc consts  --      1.2013                 1.3167                 1.5780
 IR Inten    --      1.2235                 5.7163                 6.6430

                     31                     32                     33
                      A                      A                      A
 Frequencies --   1219.1422              1237.3271              1242.0792
 Red. masses --      1.6022                 1.5153                 1.8098
 Frc consts  --      1.4031                 1.3668                 1.6450
 IR Inten    --     44.2140                 2.4344                 1.9805

                     34                     35                     36
                      A                      A                      A
 Frequencies --   1357.2251              1408.9146              1415.5196
 Red. masses --      2.9415                 1.6403                 2.1069
 Frc consts  --      3.1925                 1.9184                 2.4873
 IR Inten    --     11.1003                 5.4785                 6.2536

                     37                     38                     39
                      A                      A                      A
 Frequencies --   1466.0385              1478.7067              1496.1322
 Red. masses --      1.1297                 1.0468                 1.0729
 Frc consts  --      1.4305                 1.3486                 1.4150
 IR Inten    --      1.4642                 5.7808                 3.5474

                     40                     41                     42
                      A                      A                      A
 Frequencies --   1515.9759              1528.3371              3043.6202
 Red. masses --      1.3140                 1.3916                 1.0354
 Frc consts  --      1.7792                 1.9152                 5.6511
 IR Inten    --      1.5997                 2.7792                11.4538

                     43                     44                     45
                      A                      A                      A
 Frequencies --   3065.7500              3073.3125              3087.4504
 Red. masses --      1.0555                 1.0546                 1.0509
 Frc consts  --      5.8452                 5.8688                 5.9023
 IR Inten    --     30.3805                19.7260                22.9619

                     46                     47                     48
                      A                      A                      A
 Frequencies --   3112.0933              3128.5384              3131.2033
 Red. masses --      1.1000                 1.0942                 1.1026
 Frc consts  --      6.2770                 6.3101                 6.3692
 IR Inten    --     13.8451                58.8911                10.4380

                     49                     50                     51
                      A                      A                      A
 Frequencies --   3148.5682              3153.6920              3176.3849
 Red. masses --      1.1109                 1.1118                 1.1192
 Frc consts  --      6.4884                 6.5152                 6.6533
 IR Inten    --     13.0595                30.7504                21.4606

 - Thermochemistry -
 -------------------
 Temperature   298.150 Kelvin.  Pressure   1.00000 Atm.
 Atom     1 has atomic number  6 and mass  12.00000

 Molecular mass:   126.06808 amu.
 Principal axes and moments of inertia in atomic units:
                           1         2         3
     Eigenvalues --   579.418501288.202291458.67618
           X            0.99893  -0.03464   0.03080
           Y            0.03221   0.99658   0.07609
           Z           -0.03333  -0.07501   0.99663
 This molecule is an asymmetric top.
 Rotational symmetry number  1.
 Warning -- assumption of classical behavior for rotation
           may cause significant error
 Rotational temperatures (Kelvin)      0.14948     0.06724     0.05938
 Rotational constants (GHZ):           3.11475     1.40098     1.23725
 Zero-point vibrational energy     413986.7 (Joules/Mol)
                                   98.94519 (Kcal/Mol)
 Warning -- explicit consideration of  11 degrees of freedom as
           vibrations may cause significant error
 Vibrational temperatures:     55.43   227.75   261.95   276.94   439.34
          (Kelvin)            507.29   569.54   671.03   756.48   800.49
                              873.02  1057.79  1157.00  1158.34  1239.43
                             1297.48  1324.23  1342.03  1365.47  1412.23
                             1420.62  1468.57  1560.78  1576.61  1598.52
                             1616.35  1634.45  1665.10  1674.22  1690.80
                             1754.07  1780.24  1787.07  1952.74  2027.11
                             2036.61  2109.30  2127.53  2152.60  2181.15
                             2198.93  4379.09  4410.92  4421.81  4442.15
                             4477.60  4501.26  4505.10  4530.08  4537.45
                             4570.10

 Zero-point correction=                           0.157679 (Hartree/Particle)
 Thermal correction to Energy=                    0.165939
 Thermal correction to Enthalpy=                  0.166883
 Thermal correction to Gibbs Free Energy=         0.124393
 Sum of electronic and zero-point Energies=           -422.938069
 Sum of electronic and thermal Energies=              -422.929809
 Sum of electronic and thermal Enthalpies=            -422.928865
 Sum of electronic and thermal Free Energies=         -422.971355

                     E (Thermal)             CV                S
                      KCal/Mol        Cal/Mol-Kelvin    Cal/Mol-Kelvin
 Total                  104.128             31.841             89.428
 Electronic               0.000              0.000              0.000
 Translational            0.889              2.981             40.409
 Rotational               0.889              2.981             28.478
 Vibrational            102.351             25.879             20.542
 Vibration     1          0.594              1.981              5.333
 Vibration     2          0.621              1.893              2.570
 Vibration     3          0.630              1.864              2.307
 Vibration     4          0.634              1.850              2.204
 Vibration     5          0.696              1.664              1.387
 Vibration     6          0.729              1.570              1.155
 Vibration     7          0.763              1.479              0.978
 Vibration     8          0.824              1.325              0.748
 Vibration     9          0.881              1.193              0.597
 Vibration    10          0.912              1.126              0.531
 Vibration    11          0.965              1.017              0.438

 Optimization completed.
    -- Stationary point found.
 Normal termination of Gaussian 09 at Mon Jan 27 17:16:55 2020.
