 Gaussian 09, Revision D.01,
 Gaussian 09:  ES64L-G09RevD.01 24-Apr-2013

 -----------------------------
 # b3lyp 6-31G(2df,p) opt Freq
 -----------------------------

 -----
 titel
 -----
 Symbolic Z-matrix:
 Charge =  0 Multiplicity = 1

 SCF Done:  E(RB3LYP) =  -423.129965419     A.U. after   13 cycles
 Optimization completed.
    -- Stationary point found.
 Normal termination of Gaussian 09 at Mon Jan 27 18:40:00 2020.

 ----------------------------------------------------------------------
 #N Geom=AllCheck Guess=TCheck SCRF=Check GenChk RB3LYP/6-31G(2df,p) Fr
 eq
 ----------------------------------------------------------------------

 Structure from the checkpoint file:  "/scratch/puck/g09_b9f1607a-5df9-400e-b8cf-d55647c3f634/Gau-5625.chk"
 -----
 titel
 -----
 Charge =  0 Multiplicity = 1

                         Standard orientation:
 ---------------------------------------------------------------------
 Center     Atomic      Atomic             Coordinates (Angstroms)
 Number     Number       Type             X           Y           Z
 ---------------------------------------------------------------------
      1          8           0        2.205448   -1.156831   -0.361291
      2          6           0        1.128373   -0.385395    0.060826
      3          6           0        1.545521    1.010146    0.554124
      4          8           0        0.577546    1.668703   -0.295227
      5          6           0        0.103471    0.414918   -0.823564
      6          6           0       -1.028766   -0.201916    0.001763
      7          6           0       -2.374971   -0.624400   -0.514801
      8          6           0       -2.257262    0.517550    0.466125
      9          6           0       -0.044178   -1.044580    0.835812
     10          1           0        1.878546   -2.019035   -0.638291
     11          1           0        1.390345    1.225050    1.618318
     12          1           0        2.572459    1.266421    0.269602
     13          1           0        0.031522    0.415185   -1.914751
     14          1           0       -2.618723   -0.392508   -1.547043
     15          1           0       -2.784648   -1.565600   -0.160655
     16          1           0       -2.410480    1.529893    0.107764
     17          1           0       -2.589063    0.348587    1.485633
     18          1           0       -0.048311   -0.901504    1.920870
     19          1           0       -0.118723   -2.119396    0.628980
 ---------------------------------------------------------------------

 SCF Done:  E(RB3LYP) =  -423.129965419     A.U. after    1 cycles

 The electronic state is 1-A.
 Alpha  occ. eigenvalues --  -19.15134 -19.12904 -10.24173 -10.22431 -10.22409
 Alpha  occ. eigenvalues --  -10.19542 -10.18882 -10.18824 -10.18494  -1.04814
 Alpha  occ. eigenvalues --   -1.02210  -0.86664  -0.78623  -0.69920  -0.65482
 Alpha  occ. eigenvalues --   -0.60289  -0.58044  -0.53006  -0.52208  -0.48911
 Alpha  occ. eigenvalues --   -0.47875  -0.46063  -0.44609  -0.41173  -0.40216
 Alpha  occ. eigenvalues --   -0.37491  -0.36381  -0.35622  -0.33920  -0.31789
 Alpha  occ. eigenvalues --   -0.28415  -0.27897  -0.25348  -0.23812
 Alpha virt. eigenvalues --    0.05640   0.07718   0.09601   0.11021   0.11465
 Alpha virt. eigenvalues --    0.12585   0.14480   0.14915   0.16386   0.16661
 Alpha virt. eigenvalues --    0.17798   0.19016   0.19859   0.22891   0.23046

 Mulliken charges:
               1
     1  O   -0.472613
     2  C    0.374945
     3  C   -0.108058
     4  O   -0.284097
     5  C   -0.068966
     6  C    0.380669
     7  C   -0.332644
     8  C   -0.307656
     9  C   -0.410414
    10  H    0.282030
    11  H    0.099657
    12  H    0.112334
    13  H    0.073400
    14  H    0.114759
    15  H    0.109932
    16  H    0.126090
    17  H    0.112135
    18  H    0.105813
    19  H    0.092685
 Sum of Mulliken charges =   0.00000

 Dipole moment (field-independent basis, Debye):
    X=             -0.9280    Y=             -2.2178    Z=              0.2642  Tot=              2.4186
 Quadrupole moment (field-independent basis, Debye-Ang):
   XX=            -56.3566   YY=            -52.7350   ZZ=            -50.7666
   XY=             -0.1084   XZ=              0.8747   YZ=              1.8715

  Exact polarizability:  85.864   1.914  72.185   2.383   1.751  68.550
 Approx polarizability: 112.529   0.892 107.809   3.274   2.448 103.199

                      1                      2                      3
                      A                      A                      A
 Frequencies --     56.3083               199.7645               227.0942
 Red. masses --      3.3092                 3.4381                 2.1471
 Frc consts  --      0.0062                 0.0808                 0.0652
 IR Inten    --      0.0668                 2.0438                 3.9725

                      4                      5                      6
                      A                      A                      A
 Frequencies --    250.3058               305.8218               335.0728
 Red. masses --      2.4578                 1.2647                 2.7218
 Frc consts  --      0.0907                 0.0697                 0.1800
 IR Inten    --      0.2898                83.3905                 2.6445

                      7                      8                      9
                      A                      A                      A
 Frequencies --    381.0235               385.0069               496.2293
 Red. masses --      2.8722                 2.5930                 3.3608
 Frc consts  --      0.2457                 0.2265                 0.4876
 IR Inten    --     10.5969                 7.5575                 6.5315

                     10                     11                     12
                      A                      A                      A
 Frequencies --    531.9616               661.5239               748.6614
 Red. masses --      3.3819                 4.1547                 2.6888
 Frc consts  --      0.5639                 1.0712                 0.8879
 IR Inten    --      2.5841                 2.8266                 4.8848

                     13                     14                     15
                      A                      A                      A
 Frequencies --    776.7696               844.9729               876.0148
 Red. masses --      1.0651                 2.1465                 2.1565
 Frc consts  --      0.3786                 0.9030                 0.9750
 IR Inten    --      0.4180                 3.5565                 4.0266

                     16                     17                     18
                      A                      A                      A
 Frequencies --    900.0599               924.8653               929.0142
 Red. masses --      2.0707                 2.0604                 2.1409
 Frc consts  --      0.9883                 1.0384                 1.0887
 IR Inten    --      5.9031                11.4594                 9.9413

                     19                     20                     21
                      A                      A                      A
 Frequencies --    953.2727               989.7902              1006.9258
 Red. masses --      1.8009                 2.6783                 4.1756
 Frc consts  --      0.9642                 1.5460                 2.4944
 IR Inten    --      3.7553                 6.3205                29.3250

                     22                     23                     24
                      A                      A                      A
 Frequencies --   1027.8297              1051.6566              1068.2220
 Red. masses --      3.9178                 1.4594                 2.0027
 Frc consts  --      2.4386                 0.9510                 1.3464
 IR Inten    --     73.1125                11.1388                 4.4921

                     25                     26                     27
                      A                      A                      A
 Frequencies --   1077.1674              1105.4579              1139.7843
 Red. masses --      1.5992                 2.5676                 1.7658
 Frc consts  --      1.0932                 1.8487                 1.3516
 IR Inten    --      3.8922                81.9800                19.8806

                     28                     29                     30
                      A                      A                      A
 Frequencies --   1145.1310              1162.1078              1186.3678
 Red. masses --      1.3188                 1.3057                 1.3037
 Frc consts  --      1.0190                 1.0389                 1.0811
 IR Inten    --      1.3646                 3.3868                 0.1607

                     31                     32                     33
                      A                      A                      A
 Frequencies --   1214.8898              1251.7624              1277.4487
 Red. masses --      1.4891                 2.3232                 1.3875
 Frc consts  --      1.2949                 2.1447                 1.3341
 IR Inten    --     26.5522                 7.8539                20.4234

                     34                     35                     36
                      A                      A                      A
 Frequencies --   1310.0975              1340.7688              1382.6342
 Red. masses --      2.1987                 1.6184                 2.6120
 Frc consts  --      2.2234                 1.7141                 2.9419
 IR Inten    --     48.9929                70.0410                23.3407

                     37                     38                     39
                      A                      A                      A
 Frequencies --   1404.8082              1466.0847              1479.1778
 Red. masses --      1.9712                 1.0870                 1.1308
 Frc consts  --      2.2919                 1.3766                 1.4577
 IR Inten    --      5.4871                 1.4036                 3.9599

                     40                     41                     42
                      A                      A                      A
 Frequencies --   1502.9187              1512.6446              3019.4579
 Red. masses --      1.4628                 1.1112                 1.0553
 Frc consts  --      1.9467                 1.4980                 5.6689
 IR Inten    --      0.5017                 1.8584                61.1688

                     43                     44                     45
                      A                      A                      A
 Frequencies --   3023.9874              3072.1865              3074.8129
 Red. masses --      1.0611                 1.1083                 1.0917
 Frc consts  --      5.7169                 6.1630                 6.0812
 IR Inten    --     44.0341                14.7305                51.1438

                     46                     47                     48
                      A                      A                      A
 Frequencies --   3081.6142              3119.0523              3129.4422
 Red. masses --      1.1042                 1.0526                 1.0557
 Frc consts  --      6.1783                 6.0336                 6.0914
 IR Inten    --     28.5219                19.3616                12.2508

                     49                     50                     51
                      A                      A                      A
 Frequencies --   3199.0078              3217.2507              3812.9807
 Red. masses --      1.1175                 1.1157                 1.0659
 Frc consts  --      6.7382                 6.8041                 9.1302
 IR Inten    --      2.8357                12.0564                18.5673

 - Thermochemistry -
 -------------------
 Temperature   298.150 Kelvin.  Pressure   1.00000 Atm.
 Atom     1 has atomic number  8 and mass  15.99491

 Molecular mass:   126.06808 amu.
 Principal axes and moments of inertia in atomic units:
                           1         2         3
     Eigenvalues --   594.237121261.405861533.73178
           X            0.99990   0.01230   0.00708
           Y           -0.01242   0.99978   0.01665
           Z           -0.00688  -0.01674   0.99984
 This molecule is an asymmetric top.
 Rotational symmetry number  1.
 Warning -- assumption of classical behavior for rotation
           may cause significant error
 Rotational temperatures (Kelvin)      0.14576     0.06866     0.05647
 Rotational constants (GHZ):           3.03707     1.43074     1.17670
 Zero-point vibrational energy     416523.0 (Joules/Mol)
                                   99.55139 (Kcal/Mol)
 Warning -- explicit consideration of  10 degrees of freedom as
           vibrations may cause significant error
 Vibrational temperatures:     81.02   287.42   326.74   360.13   440.01
          (Kelvin)            482.09   548.21   553.94   713.96   765.37
                              951.78  1077.16  1117.60  1215.73  1260.39
                             1294.98  1330.67  1336.64  1371.55  1424.09
                             1448.74  1478.82  1513.10  1536.93  1549.80
                             1590.51  1639.89  1647.59  1672.01  1706.92
                             1747.95  1801.00  1837.96  1884.94  1929.06
                             1989.30  2021.20  2109.37  2128.20  2162.36
                             2176.36  4344.32  4350.84  4420.19  4423.96
                             4433.75  4487.61  4502.56  4602.65  4628.90
                             5486.02

 Zero-point correction=                           0.158645 (Hartree/Particle)
 Thermal correction to Energy=                    0.166763
 Thermal correction to Enthalpy=                  0.167707
 Thermal correction to Gibbs Free Energy=         0.125960
 Sum of electronic and zero-point Energies=           -422.971320
 Sum of electronic and thermal Energies=              -422.963203
 Sum of electronic and thermal Enthalpies=            -422.962259
 Sum of electronic and thermal Free Energies=         -423.004005

                     E (Thermal)             CV                S
                      KCal/Mol        Cal/Mol-Kelvin    Cal/Mol-Kelvin
 Total                  104.645             31.943             87.863
 Electronic               0.000              0.000              0.000
 Translational            0.889              2.981             40.409
 Rotational               0.889              2.981             28.532
 Vibrational            102.868             25.981             18.922
 Vibration     1          0.596              1.975              4.583
 Vibration     2          0.638              1.840              2.135
 Vibration     3          0.651              1.800              1.902
 Vibration     4          0.663              1.762              1.728
 Vibration     5          0.696              1.663              1.385
 Vibration     6          0.716              1.605              1.236
 Vibration     7          0.751              1.511              1.035
 Vibration     8          0.754              1.502              1.019
 Vibration     9          0.852              1.258              0.668
 Vibration    10          0.887              1.179              0.583

 Normal termination of Gaussian 09 at Mon Jan 27 19:26:25 2020.
