 Gaussian 09, Revision D.01,
 Gaussian 09:  ES64L-G09RevD.01 24-Apr-2013

 -----------------------------
 # b3lyp 6-31G(2df,p) opt Freq
 -----------------------------

 -----
 titel
 -----
 Symbolic Z-matrix:
 Charge =  0 Multiplicity = 1

 SCF Done:  E(RB3LYP) =  -423.157331104     A.U. after   13 cycles
 Optimization completed.
    -- Stationary point found.
 Normal termination of Gaussian 09 at Mon Jan 27 11:19:14 2020.

 ----------------------------------------------------------------------
 #N Geom=AllCheck Guess=TCheck SCRF=Check GenChk RB3LYP/6-31G(2df,p) Fr
 eq
 ----------------------------------------------------------------------

 Structure from the checkpoint file:  "/scratch/puck/g09_a5184e97-851c-4c7f-aaa4-898153ba974f/Gau-32183.chk"
 -----
 titel
 -----
 Charge =  0 Multiplicity = 1

                         Standard orientation:
 ---------------------------------------------------------------------
 Center     Atomic      Atomic             Coordinates (Angstroms)
 Number     Number       Type             X           Y           Z
 ---------------------------------------------------------------------
      1          6           0        1.400827   -0.369041    1.058854
      2          6           0        1.473225    0.505903   -0.217053
      3          6           0        0.461815    1.643208   -0.368111
      4          6           0       -0.873291    1.497293    0.388166
      5          6           0       -1.588674    0.158052    0.379041
      6          8           0       -1.655340   -0.625112   -0.813871
      7          6           0       -0.932868   -1.157131    0.298244
      8          6           0        0.579798   -1.310254    0.145953
      9          8           0        1.070871   -0.632299   -1.021944
     10          1           0        2.372107   -0.786475    1.328825
     11          1           0        0.913572    0.035696    1.947240
     12          1           0        2.470577    0.850424   -0.511350
     13          1           0        0.923946    2.586270   -0.050946
     14          1           0        0.271408    1.732077   -1.443213
     15          1           0       -0.725823    1.752944    1.446637
     16          1           0       -1.568200    2.254385    0.003556
     17          1           0       -2.536922    0.193590    0.922336
     18          1           0       -1.424658   -1.997575    0.792428
     19          1           0        0.854745   -2.370231    0.140449
 ---------------------------------------------------------------------

 SCF Done:  E(RB3LYP) =  -423.157331104     A.U. after    1 cycles

 The electronic state is 1-A.
 Alpha  occ. eigenvalues --  -19.14512 -19.12888 -10.23762 -10.23576 -10.23494
 Alpha  occ. eigenvalues --  -10.23138 -10.19238 -10.19082 -10.18509  -1.06968
 Alpha  occ. eigenvalues --   -1.03628  -0.79313  -0.74900  -0.72143  -0.66836
 Alpha  occ. eigenvalues --   -0.63358  -0.54746  -0.53567  -0.52985  -0.48505
 Alpha  occ. eigenvalues --   -0.47567  -0.46854  -0.42661  -0.41671  -0.40497
 Alpha  occ. eigenvalues --   -0.39353  -0.36531  -0.35209  -0.34561  -0.32426
 Alpha  occ. eigenvalues --   -0.30745  -0.28297  -0.25918  -0.24653
 Alpha virt. eigenvalues --    0.06754   0.07831   0.10257   0.11651   0.12262
 Alpha virt. eigenvalues --    0.12554   0.14165   0.14764   0.15753   0.17316
 Alpha virt. eigenvalues --    0.18651   0.19027   0.19518   0.20611   0.20942

 Mulliken charges:
               1
     1  C   -0.290260
     2  C    0.109343
     3  C   -0.209149
     4  C   -0.260730
     5  C    0.071211
     6  O   -0.241033
     7  C    0.039551
     8  C    0.065152
     9  O   -0.267366
    10  H    0.111490
    11  H    0.104533
    12  H    0.078155
    13  H    0.094790
    14  H    0.128288
    15  H    0.106659
    16  H    0.111336
    17  H    0.085160
    18  H    0.085561
    19  H    0.077309
 Sum of Mulliken charges =   0.00000

 Dipole moment (field-independent basis, Debye):
    X=              0.6560    Y=              0.9768    Z=              2.9281  Tot=              3.1556
 Quadrupole moment (field-independent basis, Debye-Ang):
   XX=            -53.0152   YY=            -49.5548   ZZ=            -55.8939
   XY=             -0.3949   XZ=             -1.2811   YZ=             -2.7156

  Exact polarizability:  76.887  -0.937  80.395  -1.254  -2.246  62.786
 Approx polarizability: 104.332  -1.681 113.982   0.193   0.345 104.047

                      1                      2                      3
                      A                      A                      A
 Frequencies --    141.5975               226.7192               293.7663
 Red. masses --      2.9458                 3.4716                 2.8320
 Frc consts  --      0.0348                 0.1051                 0.1440
 IR Inten    --      2.0768                 0.2914                 1.1523

                      4                      5                      6
                      A                      A                      A
 Frequencies --    329.7735               346.3446               422.9606
 Red. masses --      3.7267                 2.5036                 3.3794
 Frc consts  --      0.2388                 0.1769                 0.3562
 IR Inten    --      1.1998                 0.9663                 5.3637

                      7                      8                      9
                      A                      A                      A
 Frequencies --    512.4636               609.5931               661.2633
 Red. masses --      3.3050                 3.7562                 2.4486
 Frc consts  --      0.5114                 0.8224                 0.6308
 IR Inten    --      3.1283                14.0575                 2.2706

                     10                     11                     12
                      A                      A                      A
 Frequencies --    734.5060               772.1644               798.5396
 Red. masses --      2.9383                 3.3072                 2.5453
 Frc consts  --      0.9340                 1.1618                 0.9563
 IR Inten    --      7.2603                 2.1478                 2.3352

                     13                     14                     15
                      A                      A                      A
 Frequencies --    862.1529               885.8704               902.1384
 Red. masses --      2.4071                 2.2802                 4.6622
 Frc consts  --      1.0542                 1.0543                 2.2356
 IR Inten    --      4.5617                 3.9882                 4.4871

                     16                     17                     18
                      A                      A                      A
 Frequencies --    927.2696               939.9222               963.0512
 Red. masses --      2.7508                 3.0862                 2.7122
 Frc consts  --      1.3936                 1.6064                 1.4821
 IR Inten    --     29.7203                17.9110                26.6936

                     19                     20                     21
                      A                      A                      A
 Frequencies --   1018.7117              1031.9257              1062.2045
 Red. masses --      2.2373                 3.3576                 1.7463
 Frc consts  --      1.3680                 2.1066                 1.1609
 IR Inten    --      4.3571                47.4595                 3.1016

                     22                     23                     24
                      A                      A                      A
 Frequencies --   1082.1965              1101.0546              1115.8387
 Red. masses --      1.9058                 1.5712                 1.4925
 Frc consts  --      1.3151                 1.1223                 1.0949
 IR Inten    --      8.3153                 4.9145                 3.3393

                     25                     26                     27
                      A                      A                      A
 Frequencies --   1142.5363              1164.5421              1215.3131
 Red. masses --      1.7081                 1.3748                 1.2317
 Frc consts  --      1.3138                 1.0985                 1.0719
 IR Inten    --      0.8731                 4.5286                 4.3509

                     28                     29                     30
                      A                      A                      A
 Frequencies --   1245.3913              1262.9632              1275.3021
 Red. masses --      1.5515                 1.2772                 1.3871
 Frc consts  --      1.4178                 1.2003                 1.3292
 IR Inten    --      7.2388                 1.5275                 1.2735

                     31                     32                     33
                      A                      A                      A
 Frequencies --   1299.5264              1326.1270              1355.3976
 Red. masses --      1.2772                 1.6154                 1.2876
 Frc consts  --      1.2708                 1.6738                 1.3937
 IR Inten    --      5.0642                 2.1745                 1.8413

                     34                     35                     36
                      A                      A                      A
 Frequencies --   1368.6238              1383.5129              1396.2008
 Red. masses --      1.4648                 1.4034                 1.5867
 Frc consts  --      1.6166                 1.5827                 1.8224
 IR Inten    --      5.8990                 0.5022                 1.3422

                     37                     38                     39
                      A                      A                      A
 Frequencies --   1408.1092              1464.5830              1478.0629
 Red. masses --      1.3786                 1.1767                 1.1728
 Frc consts  --      1.6105                 1.4871                 1.5096
 IR Inten    --      4.9109                 3.5015                 9.1639

                     40                     41                     42
                      A                      A                      A
 Frequencies --   1492.0933              1497.1320              3013.3762
 Red. masses --      1.8198                 1.2168                 1.0632
 Frc consts  --      2.3871                 1.6069                 5.6884
 IR Inten    --      5.1042                 9.4398                12.1007

                     43                     44                     45
                      A                      A                      A
 Frequencies --   3027.9461              3045.6002              3046.6413
 Red. masses --      1.0673                 1.0919                 1.0863
 Frc consts  --      5.7653                 5.9675                 5.9410
 IR Inten    --     11.4132                30.7957                58.9074

                     46                     47                     48
                      A                      A                      A
 Frequencies --   3050.4314              3067.6244              3079.9300
 Red. masses --      1.0871                 1.0847                 1.0710
 Frc consts  --      5.9599                 6.0141                 5.9860
 IR Inten    --     52.8591                44.8766                 8.4215

                     49                     50                     51
                      A                      A                      A
 Frequencies --   3081.1306              3089.9389              3136.2125
 Red. masses --      1.0896                 1.0886                 1.1091
 Frc consts  --      6.0947                 6.1238                 6.4271
 IR Inten    --     40.2171                64.0140                23.4979

 - Thermochemistry -
 -------------------
 Temperature   298.150 Kelvin.  Pressure   1.00000 Atm.
 Atom     1 has atomic number  6 and mass  12.00000

 Molecular mass:   126.06808 amu.
 Principal axes and moments of inertia in atomic units:
                           1         2         3
     Eigenvalues --   720.35913 904.337031202.57697
           X            0.99964  -0.02577  -0.00787
           Y            0.02546   0.99901  -0.03644
           Z            0.00880   0.03623   0.99930
 This molecule is an asymmetric top.
 Rotational symmetry number  1.
 Warning -- assumption of classical behavior for rotation
           may cause significant error
 Rotational temperatures (Kelvin)      0.12024     0.09578     0.07202
 Rotational constants (GHZ):           2.50534     1.99565     1.50073
 Zero-point vibrational energy     425609.0 (Joules/Mol)
                                  101.72300 (Kcal/Mol)
 Warning -- explicit consideration of   8 degrees of freedom as
           vibrations may cause significant error
 Vibrational temperatures:    203.73   326.20   422.66   474.47   498.31
          (Kelvin)            608.55   737.32   877.07   951.41  1056.79
                             1110.97  1148.92  1240.44  1274.57  1297.97
                             1334.13  1352.34  1385.61  1465.70  1484.71
                             1528.27  1557.04  1584.17  1605.44  1643.85
                             1675.51  1748.56  1791.84  1817.12  1834.87
                             1869.73  1908.00  1950.11  1969.14  1990.56
                             2008.82  2025.95  2107.21  2126.60  2146.79
                             2154.04  4335.57  4356.53  4381.93  4383.43
                             4388.88  4413.62  4431.33  4433.05  4445.73
                             4512.30

 Zero-point correction=                           0.162106 (Hartree/Particle)
 Thermal correction to Energy=                    0.169005
 Thermal correction to Enthalpy=                  0.169949
 Thermal correction to Gibbs Free Energy=         0.131077
 Sum of electronic and zero-point Energies=           -422.995225
 Sum of electronic and thermal Energies=              -422.988326
 Sum of electronic and thermal Enthalpies=            -422.987382
 Sum of electronic and thermal Free Energies=         -423.026254

                     E (Thermal)             CV                S
                      KCal/Mol        Cal/Mol-Kelvin    Cal/Mol-Kelvin
 Total                  106.052             28.332             81.814
 Electronic               0.000              0.000              0.000
 Translational            0.889              2.981             40.409
 Rotational               0.889              2.981             28.151
 Vibrational            104.275             22.370             13.255
 Vibration     1          0.615              1.912              2.782
 Vibration     2          0.650              1.800              1.905
 Vibration     3          0.689              1.685              1.452
 Vibration     4          0.713              1.616              1.261
 Vibration     5          0.724              1.583              1.183
 Vibration     6          0.785              1.420              0.882
 Vibration     7          0.868              1.222              0.628
 Vibration     8          0.969              1.012              0.433

 Optimization completed.
    -- Stationary point found.
 Normal termination of Gaussian 09 at Mon Jan 27 12:08:59 2020.
