 Gaussian 09, Revision D.01,
 Gaussian 09:  ES64L-G09RevD.01 24-Apr-2013

 -----------------------------
 # b3lyp 6-31G(2df,p) opt Freq
 -----------------------------

 -----
 titel
 -----
 Symbolic Z-matrix:
 Charge =  0 Multiplicity = 1

 SCF Done:  E(RB3LYP) =  -423.159252038     A.U. after   14 cycles
 Optimization completed.
    -- Stationary point found.
 Normal termination of Gaussian 09 at Tue Jan 28 01:52:52 2020.

 ----------------------------------------------------------------------
 #N Geom=AllCheck Guess=TCheck SCRF=Check GenChk RB3LYP/6-31G(2df,p) Fr
 eq
 ----------------------------------------------------------------------

 Structure from the checkpoint file:  "/scratch/puck/g09_15a0651c-a7e5-4e44-816c-1349231b14fc/Gau-190677.chk"
 -----
 titel
 -----
 Charge =  0 Multiplicity = 1

                         Standard orientation:
 ---------------------------------------------------------------------
 Center     Atomic      Atomic             Coordinates (Angstroms)
 Number     Number       Type             X           Y           Z
 ---------------------------------------------------------------------
      1          8           0        2.576471   -1.251244   -0.258089
      2          6           0        2.122287    0.051015   -0.480459
      3          6           0        2.026179    1.020585    0.676808
      4          6           0        0.786925    0.392582    0.097450
      5          6           0       -0.379023    1.036529   -0.655733
      6          6           0       -1.248467   -0.218396   -0.300253
      7          6           0       -0.148633   -0.635921    0.735873
      8          6           0       -2.611422    0.065225    0.260801
      9          8           0       -3.646396   -0.403769   -0.138042
     10          1           0        3.522473   -1.214135   -0.082780
     11          1           0        2.363236    0.461875   -1.462437
     12          1           0        2.353078    0.660407    1.647832
     13          1           0        2.218529    2.072868    0.489643
     14          1           0       -0.748457    1.944660   -0.165469
     15          1           0       -0.246102    1.243327   -1.720563
     16          1           0       -1.335819   -0.921257   -1.129892
     17          1           0       -0.429549   -0.380915    1.763837
     18          1           0        0.174911   -1.676988    0.701649
     19          1           0       -2.599980    0.780537    1.120304
 ---------------------------------------------------------------------

 SCF Done:  E(RB3LYP) =  -423.159252037     A.U. after    1 cycles

 The electronic state is 1-A.
 Alpha  occ. eigenvalues --  -19.14963 -19.13469 -10.26529 -10.23960 -10.20210
 Alpha  occ. eigenvalues --  -10.19757 -10.19738 -10.19318 -10.18828  -1.04126
 Alpha  occ. eigenvalues --   -1.03440  -0.87847  -0.81019  -0.67543  -0.66915
 Alpha  occ. eigenvalues --   -0.61400  -0.56782  -0.53860  -0.52014  -0.50181
 Alpha  occ. eigenvalues --   -0.46798  -0.45415  -0.43754  -0.40460  -0.40407
 Alpha  occ. eigenvalues --   -0.39155  -0.37958  -0.37243  -0.34197  -0.31948
 Alpha  occ. eigenvalues --   -0.31392  -0.27564  -0.26618  -0.24210
 Alpha virt. eigenvalues --   -0.02073   0.07146   0.09101   0.10217   0.10534
 Alpha virt. eigenvalues --    0.11045   0.13402   0.14697   0.15255   0.16139
 Alpha virt. eigenvalues --    0.17988   0.18494   0.19611   0.21158   0.23525

 Mulliken charges:
               1
     1  O   -0.418546
     2  C    0.048005
     3  C   -0.404852
     4  C    0.357417
     5  C   -0.334769
     6  C   -0.054900
     7  C   -0.318902
     8  C    0.160792
     9  O   -0.254076
    10  H    0.290557
    11  H    0.085560
    12  H    0.115289
    13  H    0.112720
    14  H    0.106252
    15  H    0.113067
    16  H    0.096892
    17  H    0.103478
    18  H    0.132955
    19  H    0.063061
 Sum of Mulliken charges =   0.00000

 Dipole moment (field-independent basis, Debye):
    X=              3.7808    Y=              1.5715    Z=              0.5507  Tot=              4.1313
 Quadrupole moment (field-independent basis, Debye-Ang):
   XX=            -60.1548   YY=            -53.7598   ZZ=            -51.6615
   XY=             -2.2238   XZ=             -1.2450   YZ=             -1.1977

  Exact polarizability:  97.557   2.191  69.646   1.472   1.735  67.119
 Approx polarizability: 127.243   5.337 105.296   4.670   4.904 102.056

                      1                      2                      3
                      A                      A                      A
 Frequencies --     48.3732                70.5891               172.6773
 Red. masses --      4.4330                 5.0280                 3.1722
 Frc consts  --      0.0061                 0.0148                 0.0557
 IR Inten    --      0.4640                 3.4130                 2.7737

                      4                      5                      6
                      A                      A                      A
 Frequencies --    200.9644               256.2993               297.0800
 Red. masses --      3.2034                 2.2167                 1.2686
 Frc consts  --      0.0762                 0.0858                 0.0660
 IR Inten    --      4.2963                32.3265                65.7721

                      7                      8                      9
                      A                      A                      A
 Frequencies --    324.7487               364.6969               413.1318
 Red. masses --      2.3333                 2.1022                 4.3554
 Frc consts  --      0.1450                 0.1647                 0.4380
 IR Inten    --      2.4880                 9.7746                 2.3382

                     10                     11                     12
                      A                      A                      A
 Frequencies --    441.6719               505.2382               600.6471
 Red. masses --      2.2934                 3.0550                 3.2799
 Frc consts  --      0.2636                 0.4595                 0.6972
 IR Inten    --      5.7629                 5.4074                 2.6233

                     13                     14                     15
                      A                      A                      A
 Frequencies --    759.2746               804.6617               825.4747
 Red. masses --      2.3559                 1.8333                 1.4921
 Frc consts  --      0.8002                 0.6994                 0.5990
 IR Inten    --     21.3336                 3.5345                 1.1172

                     16                     17                     18
                      A                      A                      A
 Frequencies --    880.4102               891.4728               907.8519
 Red. masses --      2.3186                 2.6624                 1.6185
 Frc consts  --      1.0589                 1.2467                 0.7859
 IR Inten    --      7.0330                 0.2576                 0.5963

                     19                     20                     21
                      A                      A                      A
 Frequencies --    910.5891              1000.6419              1025.5519
 Red. masses --      2.4596                 2.0278                 2.3584
 Frc consts  --      1.2016                 1.1963                 1.4614
 IR Inten    --     12.7838                22.4909                 8.2767

                     22                     23                     24
                      A                      A                      A
 Frequencies --   1031.6427              1067.9673              1090.3677
 Red. masses --      1.3879                 1.8604                 1.4694
 Frc consts  --      0.8703                 1.2502                 1.0293
 IR Inten    --      0.7568                 1.6098                 4.2152

                     25                     26                     27
                      A                      A                      A
 Frequencies --   1101.4214              1156.9124              1173.6233
 Red. masses --      1.4510                 2.5295                 2.8012
 Frc consts  --      1.0371                 1.9947                 2.2732
 IR Inten    --     20.8883                19.6373                54.9209

                     28                     29                     30
                      A                      A                      A
 Frequencies --   1213.1059              1225.9843              1239.4650
 Red. masses --      1.5502                 2.0646                 1.3946
 Frc consts  --      1.3441                 1.8283                 1.2623
 IR Inten    --      8.6929                 0.7615                 6.5490

                     31                     32                     33
                      A                      A                      A
 Frequencies --   1241.8898              1264.5875              1299.9246
 Red. masses --      1.3988                 1.2547                 1.3340
 Frc consts  --      1.2711                 1.1822                 1.3281
 IR Inten    --      4.8624                 1.3040                63.5102

                     34                     35                     36
                      A                      A                      A
 Frequencies --   1317.5840              1352.2187              1422.8974
 Red. masses --      1.5397                 1.7010                 1.2754
 Frc consts  --      1.5749                 1.8325                 1.5214
 IR Inten    --      4.0839                 1.3448                 7.6918

                     37                     38                     39
                      A                      A                      A
 Frequencies --   1429.6965              1471.1372              1490.5336
 Red. masses --      1.2223                 1.0865                 1.1750
 Frc consts  --      1.4720                 1.3854                 1.5381
 IR Inten    --      1.3321                 2.3245                 1.0176

                     40                     41                     42
                      A                      A                      A
 Frequencies --   1491.7762              1830.6005              2827.1074
 Red. masses --      2.0227                10.4460                 1.0806
 Frc consts  --      2.6521                20.6247                 5.0885
 IR Inten    --     12.9033               229.3087                99.1605

                     43                     44                     45
                      A                      A                      A
 Frequencies --   3036.4959              3044.5124              3085.1303
 Red. masses --      1.0611                 1.0655                 1.0869
 Frc consts  --      5.7643                 5.8189                 6.0951
 IR Inten    --     34.3873                22.2635                34.1977

                     46                     47                     48
                      A                      A                      A
 Frequencies --   3096.1401              3110.5003              3117.3254
 Red. masses --      1.0991                 1.0914                 1.0542
 Frc consts  --      6.2078                 6.2218                 6.0361
 IR Inten    --      9.1678                18.6586                10.2196

                     49                     50                     51
                      A                      A                      A
 Frequencies --   3127.8374              3206.5682              3807.9299
 Red. masses --      1.0990                 1.1166                 1.0663
 Frc consts  --      6.3347                 6.7644                 9.1100
 IR Inten    --     13.3147                 7.9552                25.4628

 - Thermochemistry -
 -------------------
 Temperature   298.150 Kelvin.  Pressure   1.00000 Atm.
 Atom     1 has atomic number  8 and mass  15.99491

 Molecular mass:   126.06808 amu.
 Principal axes and moments of inertia in atomic units:
                           1         2         3
     Eigenvalues --   407.995422169.945622309.29974
           X            1.00000   0.00078  -0.00044
           Y           -0.00079   0.99977  -0.02129
           Z            0.00042   0.02129   0.99977
 This molecule is an asymmetric top.
 Rotational symmetry number  1.
 Rotational temperatures (Kelvin)      0.21229     0.03992     0.03751
 Rotational constants (GHZ):           4.42343     0.83170     0.78151
 Zero-point vibrational energy     413159.8 (Joules/Mol)
                                   98.74757 (Kcal/Mol)
 Warning -- explicit consideration of  12 degrees of freedom as
           vibrations may cause significant error
 Vibrational temperatures:     69.60   101.56   248.44   289.14   368.76
          (Kelvin)            427.43   467.24   524.72   594.40   635.47
                              726.92   864.20  1092.43  1157.73  1187.67
                             1266.71  1282.63  1306.19  1310.13  1439.70
                             1475.54  1484.30  1536.56  1568.79  1584.70
                             1664.54  1688.58  1745.39  1763.92  1783.31
                             1786.80  1819.46  1870.30  1895.71  1945.54
                             2047.23  2057.01  2116.64  2144.54  2146.33
                             2633.82  4067.57  4368.83  4380.37  4438.81
                             4454.65  4475.31  4485.13  4500.25  4613.53
                             5478.75

 Zero-point correction=                           0.157364 (Hartree/Particle)
 Thermal correction to Energy=                    0.166387
 Thermal correction to Enthalpy=                  0.167332
 Thermal correction to Gibbs Free Energy=         0.122917
 Sum of electronic and zero-point Energies=           -423.001888
 Sum of electronic and thermal Energies=              -422.992865
 Sum of electronic and thermal Enthalpies=            -422.991920
 Sum of electronic and thermal Free Energies=         -423.036335

                     E (Thermal)             CV                S
                      KCal/Mol        Cal/Mol-Kelvin    Cal/Mol-Kelvin
 Total                  104.410             33.483             93.479
 Electronic               0.000              0.000              0.000
 Translational            0.889              2.981             40.409
 Rotational               0.889              2.981             29.104
 Vibrational            102.632             27.522             23.967
 Vibration     1          0.595              1.978              4.883
 Vibration     2          0.598              1.968              4.137
 Vibration     3          0.626              1.876              2.406
 Vibration     4          0.638              1.839              2.124
 Vibration     5          0.666              1.752              1.687
 Vibration     6          0.691              1.679              1.433
 Vibration     7          0.709              1.626              1.286
 Vibration     8          0.738              1.545              1.102
 Vibration     9          0.777              1.442              0.916
 Vibration    10          0.801              1.379              0.821
 Vibration    11          0.860              1.238              0.645
 Vibration    12          0.959              1.030              0.449

 Optimization completed.
    -- Stationary point found.
 Normal termination of Gaussian 09 at Tue Jan 28 02:37:54 2020.
