 Gaussian 09, Revision D.01,
 Gaussian 09:  ES64L-G09RevD.01 24-Apr-2013

 -----------------------------
 # b3lyp 6-31G(2df,p) opt Freq
 -----------------------------

 -----
 titel
 -----
 Symbolic Z-matrix:
 Charge =  0 Multiplicity = 1

 SCF Done:  E(RB3LYP) =  -423.183792721     A.U. after   14 cycles
 Optimization completed.
    -- Stationary point found.
 Normal termination of Gaussian 09 at Tue Jan 28 00:03:53 2020.

 ----------------------------------------------------------------------
 #N Geom=AllCheck Guess=TCheck SCRF=Check GenChk RB3LYP/6-31G(2df,p) Fr
 eq
 ----------------------------------------------------------------------

 Structure from the checkpoint file:  "/scratch/puck/g09_a9dc64e2-9dc5-44de-bcd8-b698257e6e50/Gau-188096.chk"
 -----
 titel
 -----
 Charge =  0 Multiplicity = 1

                         Standard orientation:
 ---------------------------------------------------------------------
 Center     Atomic      Atomic             Coordinates (Angstroms)
 Number     Number       Type             X           Y           Z
 ---------------------------------------------------------------------
      1          6           0        2.868790    0.115369   -0.372716
      2          6           0        1.399011    0.152179   -0.095955
      3          6           0        0.714483    1.144178    0.497061
      4          6           0       -0.761720    0.856076    0.575775
      5          8           0       -1.549225    1.725509   -0.258088
      6          6           0       -0.880262   -0.591987    0.071274
      7          8           0       -2.063767   -0.918152   -0.570980
      8          6           0       -0.149934   -1.663368    0.799257
      9          6           0        0.504331   -0.998715   -0.420258
     10          1           0        3.344579   -0.722150    0.152062
     11          1           0        3.060416   -0.040497   -1.441679
     12          1           0        3.363712    1.040999   -0.067381
     13          1           0        1.144275    2.063224    0.879725
     14          1           0       -1.181486    0.972877    1.580657
     15          1           0       -0.996012    1.953802   -1.014542
     16          1           0       -2.401476   -0.073427   -0.903871
     17          1           0        0.275384   -1.470753    1.779928
     18          1           0       -0.536532   -2.666752    0.650575
     19          1           0        0.662889   -1.598581   -1.309555
 ---------------------------------------------------------------------

 SCF Done:  E(RB3LYP) =  -423.183792721     A.U. after    1 cycles

 The electronic state is 1-A.
 Alpha  occ. eigenvalues --  -19.14844 -19.13284 -10.23585 -10.23280 -10.20107
 Alpha  occ. eigenvalues --  -10.18886 -10.18579 -10.18515 -10.17575  -1.03861
 Alpha  occ. eigenvalues --   -1.00990  -0.87717  -0.78027  -0.73015  -0.65992
 Alpha  occ. eigenvalues --   -0.61255  -0.57030  -0.53933  -0.52508  -0.48310
 Alpha  occ. eigenvalues --   -0.46356  -0.44783  -0.42553  -0.41834  -0.41101
 Alpha  occ. eigenvalues --   -0.40028  -0.36411  -0.35108  -0.34010  -0.32866
 Alpha  occ. eigenvalues --   -0.32157  -0.27965  -0.25099  -0.22171
 Alpha virt. eigenvalues --    0.00285   0.08709   0.10283   0.11519   0.12814
 Alpha virt. eigenvalues --    0.13491   0.14191   0.15089   0.15587   0.17133
 Alpha virt. eigenvalues --    0.18484   0.19374   0.20959   0.21658   0.22877

 Mulliken charges:
               1
     1  C   -0.494057
     2  C    0.344952
     3  C   -0.264912
     4  C    0.013707
     5  O   -0.444481
     6  C    0.413189
     7  O   -0.474669
     8  C   -0.333612
     9  C   -0.229652
    10  H    0.135572
    11  H    0.130293
    12  H    0.125214
    13  H    0.093464
    14  H    0.097314
    15  H    0.281150
    16  H    0.284119
    17  H    0.110096
    18  H    0.122458
    19  H    0.089855
 Sum of Mulliken charges =   0.00000

 Dipole moment (field-independent basis, Debye):
    X=              2.2918    Y=              0.6887    Z=             -0.4770  Tot=              2.4402
 Quadrupole moment (field-independent basis, Debye-Ang):
   XX=            -55.5567   YY=            -53.8451   ZZ=            -50.4227
   XY=             -0.6692   XZ=             -0.0851   YZ=             -1.8109

  Exact polarizability:  87.570  -2.986  81.215  -2.897   2.061  63.945
 Approx polarizability: 122.418 -11.069 124.605  -6.060   6.577 101.410

                      1                      2                      3
                      A                      A                      A
 Frequencies --    138.3152               148.4044               192.5986
 Red. masses --      3.3192                 3.4701                 1.1203
 Frc consts  --      0.0374                 0.0450                 0.0245
 IR Inten    --      1.4386                 0.3100                 0.3725

                      4                      5                      6
                      A                      A                      A
 Frequencies --    266.1344               281.4417               347.5360
 Red. masses --      2.9859                 3.3905                 1.2751
 Frc consts  --      0.1246                 0.1582                 0.0907
 IR Inten    --      2.1210                 4.1212                32.4253

                      7                      8                      9
                      A                      A                      A
 Frequencies --    364.2865               398.3981               453.4286
 Red. masses --      2.2531                 3.5439                 3.0306
 Frc consts  --      0.1762                 0.3314                 0.3671
 IR Inten    --     23.5142                 5.4315                 3.6943

                     10                     11                     12
                      A                      A                      A
 Frequencies --    478.8368               551.0923               575.1918
 Red. masses --      3.5901                 1.1891                 3.8278
 Frc consts  --      0.4850                 0.2128                 0.7462
 IR Inten    --      1.8560                92.5982                12.1500

                     13                     14                     15
                      A                      A                      A
 Frequencies --    600.8714               676.7102               769.3643
 Red. masses --      3.0529                 2.8228                 3.4598
 Frc consts  --      0.6494                 0.7616                 1.2066
 IR Inten    --      3.4857                 2.7432                11.1945

                     16                     17                     18
                      A                      A                      A
 Frequencies --    811.4931               855.4347               890.5258
 Red. masses --      1.6477                 1.9422                 2.0841
 Frc consts  --      0.6393                 0.8374                 0.9738
 IR Inten    --      7.8449                20.4746                22.5863

                     19                     20                     21
                      A                      A                      A
 Frequencies --    922.0039               956.0466               987.4767
 Red. masses --      2.5257                 1.7509                 2.0686
 Frc consts  --      1.2650                 0.9429                 1.1885
 IR Inten    --      7.9681                 2.1662                49.1324

                     22                     23                     24
                      A                      A                      A
 Frequencies --   1005.5520              1022.9571              1049.0398
 Red. masses --      1.9030                 2.5695                 2.0054
 Frc consts  --      1.1337                 1.5842                 1.3003
 IR Inten    --     23.7550                36.3052                38.0346

                     25                     26                     27
                      A                      A                      A
 Frequencies --   1055.1188              1077.8672              1091.8526
 Red. masses --      1.4930                 1.4009                 1.7578
 Frc consts  --      0.9793                 0.9589                 1.2347
 IR Inten    --      4.6845                 9.3808                 4.8564

                     28                     29                     30
                      A                      A                      A
 Frequencies --   1175.9718              1206.4246              1229.6251
 Red. masses --      2.0855                 1.5647                 1.4284
 Frc consts  --      1.6993                 1.3418                 1.2725
 IR Inten    --      0.7510                48.7036                 2.5424

                     31                     32                     33
                      A                      A                      A
 Frequencies --   1261.7067              1287.4263              1337.3829
 Red. masses --      1.7354                 1.4469                 2.7784
 Frc consts  --      1.6277                 1.4130                 2.9279
 IR Inten    --     23.2485                50.2448                18.8383

                     34                     35                     36
                      A                      A                      A
 Frequencies --   1373.7033              1404.0024              1413.4480
 Red. masses --      2.4407                 1.2333                 1.3152
 Frc consts  --      2.7136                 1.4323                 1.5481
 IR Inten    --    118.8551                58.9176                16.2447

                     37                     38                     39
                      A                      A                      A
 Frequencies --   1436.7742              1478.0206              1485.8180
 Red. masses --      1.2941                 1.0452                 1.0685
 Frc consts  --      1.5740                 1.3453                 1.3898
 IR Inten    --     35.6784                 6.3632                 9.4162

                     40                     41                     42
                      A                      A                      A
 Frequencies --   1491.5122              1683.2406              3022.3770
 Red. masses --      1.8463                 6.6926                 1.0374
 Frc consts  --      2.4200                11.1722                 5.5832
 IR Inten    --      6.6197                16.2870                23.4033

                     43                     44                     45
                      A                      A                      A
 Frequencies --   3056.9898              3071.2165              3114.5471
 Red. masses --      1.0848                 1.0982                 1.1000
 Frc consts  --      5.9727                 6.1032                 6.2870
 IR Inten    --     30.0141                13.6785                20.0230

                     46                     47                     48
                      A                      A                      A
 Frequencies --   3116.1582              3175.2408              3193.5527
 Red. masses --      1.0542                 1.0911                 1.0936
 Frc consts  --      6.0314                 6.4813                 6.5715
 IR Inten    --     14.4079                 9.7969                 9.7880

                     49                     50                     51
                      A                      A                      A
 Frequencies --   3210.6242              3722.4854              3791.1802
 Red. masses --      1.1161                 1.0644                 1.0660
 Frc consts  --      6.7783                 8.6901                 9.0272
 IR Inten    --      7.3656                64.3628                18.8037

 - Thermochemistry -
 -------------------
 Temperature   298.150 Kelvin.  Pressure   1.00000 Atm.
 Atom     1 has atomic number  6 and mass  12.00000

 Molecular mass:   126.06808 amu.
 Principal axes and moments of inertia in atomic units:
                           1         2         3
     Eigenvalues --   698.184271192.911461623.66722
           X            0.99995   0.00228  -0.00963
           Y           -0.00235   0.99997  -0.00780
           Z            0.00961   0.00782   0.99992
 This molecule is an asymmetric top.
 Rotational symmetry number  1.
 Warning -- assumption of classical behavior for rotation
           may cause significant error
 Rotational temperatures (Kelvin)      0.12406     0.07261     0.05334
 Rotational constants (GHZ):           2.58491     1.51289     1.11152
 Zero-point vibrational energy     416942.9 (Joules/Mol)
                                   99.65174 (Kcal/Mol)
 Warning -- explicit consideration of  13 degrees of freedom as
           vibrations may cause significant error
 Vibrational temperatures:    199.00   213.52   277.11   382.91   404.93
          (Kelvin)            500.03   524.13   573.21   652.38   688.94
                              792.90   827.57   864.52   973.63  1106.94
                             1167.56  1230.78  1281.27  1326.56  1375.54
                             1420.76  1446.76  1471.81  1509.33  1518.08
                             1550.81  1570.93  1691.96  1735.77  1769.15
                             1815.31  1852.32  1924.19  1976.45  2020.04
                             2033.63  2067.20  2126.54  2137.76  2145.95
                             2421.80  4348.52  4398.32  4418.79  4481.13
                             4483.45  4568.46  4594.80  4619.37  5355.82
                             5454.66

 Zero-point correction=                           0.158805 (Hartree/Particle)
 Thermal correction to Energy=                    0.167324
 Thermal correction to Enthalpy=                  0.168268
 Thermal correction to Gibbs Free Energy=         0.126266
 Sum of electronic and zero-point Energies=           -423.024988
 Sum of electronic and thermal Energies=              -423.016469
 Sum of electronic and thermal Enthalpies=            -423.015525
 Sum of electronic and thermal Free Energies=         -423.057527

                     E (Thermal)             CV                S
                      KCal/Mol        Cal/Mol-Kelvin    Cal/Mol-Kelvin
 Total                  104.997             33.862             88.400
 Electronic               0.000              0.000              0.000
 Translational            0.889              2.981             40.409
 Rotational               0.889              2.981             28.693
 Vibrational            103.220             27.900             19.298
 Vibration     1          0.614              1.915              2.827
 Vibration     2          0.618              1.904              2.693
 Vibration     3          0.635              1.850              2.203
 Vibration     4          0.672              1.735              1.621
 Vibration     5          0.681              1.708              1.525
 Vibration     6          0.725              1.580              1.177
 Vibration     7          0.738              1.546              1.104
 Vibration     8          0.765              1.474              0.969
 Vibration     9          0.812              1.353              0.785
 Vibration    10          0.835              1.297              0.713
 Vibration    11          0.906              1.137              0.542
 Vibration    12          0.932              1.085              0.494
 Vibration    13          0.959              1.030              0.448

 Normal termination of Gaussian 09 at Tue Jan 28 00:50:23 2020.
