 Gaussian 09, Revision D.01,
 Gaussian 09:  ES64L-G09RevD.01 24-Apr-2013

 -----------------------------
 # b3lyp 6-31G(2df,p) opt Freq
 -----------------------------

 -----
 titel
 -----
 Symbolic Z-matrix:
 Charge =  0 Multiplicity = 1

 SCF Done:  E(RB3LYP) =  -423.159346532     A.U. after   14 cycles
 Optimization completed.
    -- Stationary point found.
 Normal termination of Gaussian 09 at Tue Jan 28 02:54:54 2020.

 ----------------------------------------------------------------------
 #N Geom=AllCheck Guess=TCheck SCRF=Check GenChk RB3LYP/6-31G(2df,p) Fr
 eq
 ----------------------------------------------------------------------

 Structure from the checkpoint file:  "/scratch/puck/g09_ed1f6819-bd5b-42dd-ac32-4e9985bec60d/Gau-77807.chk"
 -----
 titel
 -----
 Charge =  0 Multiplicity = 1

                         Standard orientation:
 ---------------------------------------------------------------------
 Center     Atomic      Atomic             Coordinates (Angstroms)
 Number     Number       Type             X           Y           Z
 ---------------------------------------------------------------------
      1          6           0        2.806683   -0.709498   -0.407334
      2          6           0        1.585743    0.183196   -0.337994
      3          8           0        1.249585    0.508487    1.056228
      4          6           0        0.048897   -0.228583    0.936945
      5          6           0        0.242225   -0.526438   -0.509419
      6          6           0       -0.900536    0.407096   -0.102655
      7          6           0       -0.904552    1.898080   -0.357001
      8          6           0       -2.217468   -0.280932   -0.092183
      9          8           0       -2.369732   -1.481439   -0.050813
     10          1           0        3.016615   -0.980600   -1.447702
     11          1           0        3.678812   -0.186327   -0.004743
     12          1           0        2.651566   -1.625780    0.169059
     13          1           0        1.732960    1.098994   -0.921773
     14          1           0       -0.307079   -0.809880    1.778578
     15          1           0        0.048741   -1.435390   -1.062468
     16          1           0       -0.915239    2.132174   -1.426923
     17          1           0       -1.790853    2.358009    0.093449
     18          1           0       -0.027291    2.368325    0.092629
     19          1           0       -3.093011    0.406555   -0.095585
 ---------------------------------------------------------------------

 SCF Done:  E(RB3LYP) =  -423.159346532     A.U. after    1 cycles

 The electronic state is 1-A.
 Alpha  occ. eigenvalues --  -19.15350 -19.13358 -10.26778 -10.25487 -10.25184
 Alpha  occ. eigenvalues --  -10.21141 -10.20556 -10.18786 -10.18662  -1.06809
 Alpha  occ. eigenvalues --   -1.04057  -0.85379  -0.76902  -0.73160  -0.66089
 Alpha  occ. eigenvalues --   -0.63454  -0.55641  -0.55018  -0.52284  -0.48818
 Alpha  occ. eigenvalues --   -0.46796  -0.44528  -0.43195  -0.42106  -0.40473
 Alpha  occ. eigenvalues --   -0.39807  -0.38516  -0.38190  -0.37848  -0.33907
 Alpha  occ. eigenvalues --   -0.32289  -0.28839  -0.25804  -0.24175
 Alpha virt. eigenvalues --   -0.02478   0.08043   0.09510   0.10166   0.11377
 Alpha virt. eigenvalues --    0.12819   0.14199   0.14700   0.15206   0.16636
 Alpha virt. eigenvalues --    0.16680   0.17714   0.19448   0.20526   0.21686

 Mulliken charges:
               1
     1  C   -0.400389
     2  C    0.101223
     3  O   -0.297586
     4  C    0.086134
     5  C   -0.163658
     6  C    0.177050
     7  C   -0.499037
     8  C    0.089733
     9  O   -0.279315
    10  H    0.122026
    11  H    0.131880
    12  H    0.130942
    13  H    0.088911
    14  H    0.125884
    15  H    0.120135
    16  H    0.123384
    17  H    0.121444
    18  H    0.147733
    19  H    0.073506
 Sum of Mulliken charges =   0.00000

 Dipole moment (field-independent basis, Debye):
    X=              1.2383    Y=              1.3769    Z=             -1.0806  Tot=              2.1440
 Quadrupole moment (field-independent basis, Debye-Ang):
   XX=            -54.6433   YY=            -56.1494   ZZ=            -52.8321
   XY=             -6.7871   XZ=             -2.9160   YZ=             -1.4495

  Exact polarizability:  96.709  -2.218  74.371  -1.601  -1.536  62.044
 Approx polarizability: 127.872   4.037 114.936   1.729   0.406 102.138

                      1                      2                      3
                      A                      A                      A
 Frequencies --    114.5809               132.6492               172.3709
 Red. masses --      3.2702                 2.8346                 1.3003
 Frc consts  --      0.0253                 0.0294                 0.0228
 IR Inten    --      7.8121                 3.2504                 0.4000

                      4                      5                      6
                      A                      A                      A
 Frequencies --    205.8701               209.1721               250.2047
 Red. masses --      2.4526                 2.1253                 1.2178
 Frc consts  --      0.0612                 0.0548                 0.0449
 IR Inten    --      4.8594                 1.7898                 0.2471

                      7                      8                      9
                      A                      A                      A
 Frequencies --    271.6467               313.9935               381.4027
 Red. masses --      3.1821                 2.9014                 2.6751
 Frc consts  --      0.1383                 0.1685                 0.2293
 IR Inten    --      2.9995                 1.6832                 3.0968

                     10                     11                     12
                      A                      A                      A
 Frequencies --    456.2717               522.8000               659.1303
 Red. masses --      4.0961                 3.7416                 4.9497
 Frc consts  --      0.5024                 0.6025                 1.2670
 IR Inten    --      1.8179                 3.6114                10.1135

                     13                     14                     15
                      A                      A                      A
 Frequencies --    691.0563               776.8480               814.7259
 Red. masses --      3.7712                 2.8725                 3.1110
 Frc consts  --      1.0611                 1.0214                 1.2167
 IR Inten    --     11.1955                11.5945                32.8768

                     16                     17                     18
                      A                      A                      A
 Frequencies --    855.2086               900.0781               915.4901
 Red. masses --      1.8564                 1.9733                 2.3596
 Frc consts  --      0.8000                 0.9419                 1.1652
 IR Inten    --     16.1899                27.2964                22.5041

                     19                     20                     21
                      A                      A                      A
 Frequencies --    962.0615              1011.2784              1024.6128
 Red. masses --      1.7244                 1.5724                 1.6941
 Frc consts  --      0.9404                 0.9474                 1.0479
 IR Inten    --    114.6354                26.1339                34.3860

                     22                     23                     24
                      A                      A                      A
 Frequencies --   1036.7366              1061.5128              1092.9131
 Red. masses --      1.9985                 2.1403                 1.5245
 Frc consts  --      1.2656                 1.4209                 1.0729
 IR Inten    --     24.9885                 2.3421                 5.3933

                     25                     26                     27
                      A                      A                      A
 Frequencies --   1112.6132              1116.0413              1128.8904
 Red. masses --      2.1928                 1.9737                 2.3827
 Frc consts  --      1.5993                 1.4484                 1.7891
 IR Inten    --     29.6128                 1.5190                 8.0406

                     28                     29                     30
                      A                      A                      A
 Frequencies --   1207.1723              1233.2559              1273.7746
 Red. masses --      1.6205                 1.5356                 2.6216
 Frc consts  --      1.3913                 1.3760                 2.5061
 IR Inten    --     16.4740                 2.7616                12.6862

                     31                     32                     33
                      A                      A                      A
 Frequencies --   1302.1834              1364.6242              1384.2118
 Red. masses --      1.8805                 2.6480                 1.4828
 Frc consts  --      1.8787                 2.9054                 1.6739
 IR Inten    --      0.2877                63.5306                 4.5330

                     34                     35                     36
                      A                      A                      A
 Frequencies --   1406.8646              1414.9742              1435.7547
 Red. masses --      1.3150                 1.2954                 1.3125
 Frc consts  --      1.5334                 1.5281                 1.5940
 IR Inten    --      6.9962                 6.1898                 3.5579

                     37                     38                     39
                      A                      A                      A
 Frequencies --   1484.4557              1492.1816              1493.4805
 Red. masses --      1.0541                 1.0495                 1.0509
 Frc consts  --      1.3686                 1.3768                 1.3810
 IR Inten    --      3.2521                 2.6386                13.6860

                     40                     41                     42
                      A                      A                      A
 Frequencies --   1505.6354              1791.1293              2878.5713
 Red. masses --      1.0456                10.2328                 1.0831
 Frc consts  --      1.3966                19.3418                 5.2877
 IR Inten    --      6.0991               168.5834               128.4595

                     43                     44                     45
                      A                      A                      A
 Frequencies --   3033.8082              3038.2734              3045.4880
 Red. masses --      1.0388                 1.0371                 1.0812
 Frc consts  --      5.6334                 5.6407                 5.9084
 IR Inten    --     22.3162                18.5401                39.3786

                     46                     47                     48
                      A                      A                      A
 Frequencies --   3092.1737              3111.2316              3124.4273
 Red. masses --      1.1012                 1.1004                 1.1015
 Frc consts  --      6.2034                 6.2758                 6.3355
 IR Inten    --     19.3411                15.9097                 9.0970

                     49                     50                     51
                      A                      A                      A
 Frequencies --   3124.9993              3193.9811              3213.7520
 Red. masses --      1.0997                 1.0907                 1.0971
 Frc consts  --      6.3275                 6.5554                 6.6764
 IR Inten    --     17.6249                 9.9246                 1.0012

 - Thermochemistry -
 -------------------
 Temperature   298.150 Kelvin.  Pressure   1.00000 Atm.
 Atom     1 has atomic number  6 and mass  12.00000

 Molecular mass:   126.06808 amu.
 Principal axes and moments of inertia in atomic units:
                           1         2         3
     Eigenvalues --   587.678151471.130081731.33320
           X            0.99847  -0.05366  -0.01363
           Y            0.05321   0.99809  -0.03123
           Z            0.01528   0.03046   0.99942
 This molecule is an asymmetric top.
 Rotational symmetry number  1.
 Warning -- assumption of classical behavior for rotation
           may cause significant error
 Rotational temperatures (Kelvin)      0.14738     0.05888     0.05003
 Rotational constants (GHZ):           3.07097     1.22677     1.04240
 Zero-point vibrational energy     411734.1 (Joules/Mol)
                                   98.40681 (Kcal/Mol)
 Warning -- explicit consideration of  11 degrees of freedom as
           vibrations may cause significant error
 Vibrational temperatures:    164.86   190.85   248.00   296.20   300.95
          (Kelvin)            359.99   390.84   451.77   548.75   656.47
                              752.19   948.34   994.27  1117.71  1172.21
                             1230.45  1295.01  1317.18  1384.19  1455.00
                             1474.19  1491.63  1527.28  1572.46  1600.80
                             1605.73  1624.22  1736.85  1774.38  1832.68
                             1873.55  1963.39  1991.57  2024.16  2035.83
                             2065.73  2135.80  2146.91  2148.78  2166.27
                             2577.03  4141.62  4364.97  4371.39  4381.77
                             4448.94  4476.36  4495.35  4496.17  4595.42
                             4623.87

 Zero-point correction=                           0.156821 (Hartree/Particle)
 Thermal correction to Energy=                    0.165834
 Thermal correction to Enthalpy=                  0.166778
 Thermal correction to Gibbs Free Energy=         0.123353
 Sum of electronic and zero-point Energies=           -423.002525
 Sum of electronic and thermal Energies=              -422.993513
 Sum of electronic and thermal Enthalpies=            -422.992568
 Sum of electronic and thermal Free Energies=         -423.035993

                     E (Thermal)             CV                S
                      KCal/Mol        Cal/Mol-Kelvin    Cal/Mol-Kelvin
 Total                  104.062             33.585             91.395
 Electronic               0.000              0.000              0.000
 Translational            0.889              2.981             40.409
 Rotational               0.889              2.981             28.794
 Vibrational            102.285             27.623             22.192
 Vibration     1          0.608              1.937              3.190
 Vibration     2          0.613              1.921              2.907
 Vibration     3          0.626              1.876              2.409
 Vibration     4          0.640              1.832              2.080
 Vibration     5          0.642              1.827              2.051
 Vibration     6          0.663              1.762              1.729
 Vibration     7          0.675              1.726              1.586
 Vibration     8          0.702              1.647              1.341
 Vibration     9          0.751              1.510              1.034
 Vibration    10          0.815              1.347              0.777
 Vibration    11          0.878              1.200              0.604

 Optimization completed.
    -- Stationary point found.
 Normal termination of Gaussian 09 at Tue Jan 28 03:36:44 2020.
