 Gaussian 09, Revision D.01,
 Gaussian 09:  ES64L-G09RevD.01 24-Apr-2013

 -----------------------------
 # b3lyp 6-31G(2df,p) opt Freq
 -----------------------------

 -----
 titel
 -----
 Symbolic Z-matrix:
 Charge =  0 Multiplicity = 1

 SCF Done:  E(RB3LYP) =  -423.127511101     A.U. after   14 cycles
 Optimization completed.
    -- Stationary point found.
 Normal termination of Gaussian 09 at Mon Jan 27 18:01:49 2020.

 ----------------------------------------------------------------------
 #N Geom=AllCheck Guess=TCheck SCRF=Check GenChk RB3LYP/6-31G(2df,p) Fr
 eq
 ----------------------------------------------------------------------

 Structure from the checkpoint file:  "/scratch/puck/g09_1557bdd7-a623-49ee-9e6e-da89b5f19f1e/Gau-51971.chk"
 -----
 titel
 -----
 Charge =  0 Multiplicity = 1

                         Standard orientation:
 ---------------------------------------------------------------------
 Center     Atomic      Atomic             Coordinates (Angstroms)
 Number     Number       Type             X           Y           Z
 ---------------------------------------------------------------------
      1          6           0       -2.402270   -0.632096   -0.530650
      2          6           0       -0.989426   -0.384368   -0.128166
      3          8           0        0.057088   -1.182850   -0.680670
      4          6           0        1.021213   -0.253322   -0.098238
      5          6           0        2.321214   -0.169989   -0.833900
      6          6           0        0.892387   -0.536968    1.424853
      7          6           0       -0.511050    0.046301    1.298542
      8          6           0       -0.148559    0.834907    0.059991
      9          8           0       -0.273916    2.178029   -0.178757
     10          1           0       -2.517050   -0.573830   -1.618200
     11          1           0       -2.736234   -1.623399   -0.206131
     12          1           0       -3.059116    0.114485   -0.074517
     13          1           0        2.163057    0.107863   -1.880372
     14          1           0        2.976927    0.572703   -0.370004
     15          1           0        2.831273   -1.139559   -0.813486
     16          1           0        1.009570   -1.583359    1.723955
     17          1           0        1.545999    0.109964    2.016518
     18          1           0       -1.219486    0.313319    2.072647
     19          1           0       -0.361360    2.313594   -1.129592
 ---------------------------------------------------------------------

 SCF Done:  E(RB3LYP) =  -423.127511101     A.U. after    1 cycles

 The electronic state is 1-A.
 Alpha  occ. eigenvalues --  -19.16140 -19.12829 -10.23758 -10.23389 -10.23293
 Alpha  occ. eigenvalues --  -10.18515 -10.18457 -10.18042 -10.18018  -1.06086
 Alpha  occ. eigenvalues --   -1.03455  -0.84460  -0.77211  -0.72506  -0.67862
 Alpha  occ. eigenvalues --   -0.60344  -0.57229  -0.54242  -0.48903  -0.47223
 Alpha  occ. eigenvalues --   -0.46481  -0.43250  -0.41308  -0.41251  -0.40299
 Alpha  occ. eigenvalues --   -0.39773  -0.38807  -0.35849  -0.35469  -0.34015
 Alpha  occ. eigenvalues --   -0.32197  -0.25365  -0.25078  -0.21988
 Alpha virt. eigenvalues --    0.06383   0.09262   0.10881   0.11968   0.12430
 Alpha virt. eigenvalues --    0.14148   0.14853   0.15561   0.16432   0.17267
 Alpha virt. eigenvalues --    0.18077   0.18977   0.20097   0.20278   0.22966

 Mulliken charges:
               1
     1  C   -0.513220
     2  C    0.376506
     3  O   -0.352893
     4  C    0.336294
     5  C   -0.505579
     6  C   -0.263859
     7  C   -0.201115
     8  C    0.211686
     9  O   -0.444622
    10  H    0.125449
    11  H    0.134417
    12  H    0.130533
    13  H    0.122699
    14  H    0.127051
    15  H    0.133470
    16  H    0.096153
    17  H    0.102662
    18  H    0.091050
    19  H    0.293318
 Sum of Mulliken charges =   0.00000

 Dipole moment (field-independent basis, Debye):
    X=             -0.1644    Y=              0.7687    Z=             -0.5624  Tot=              0.9665
 Quadrupole moment (field-independent basis, Debye-Ang):
   XX=            -48.6781   YY=            -56.8216   ZZ=            -50.9165
   XY=              0.0238   XZ=              0.3929   YZ=             -4.5597

  Exact polarizability:  85.189   0.160  69.031   1.000  -1.881  73.060
 Approx polarizability: 110.760   0.459 108.623   1.130   0.259 110.071

                      1                      2                      3
                      A                      A                      A
 Frequencies --    168.2032               173.2125               182.4522
 Red. masses --      1.6757                 1.7692                 2.1875
 Frc consts  --      0.0279                 0.0313                 0.0429
 IR Inten    --      0.4782                 0.3538                 0.3508

                      4                      5                      6
                      A                      A                      A
 Frequencies --    186.1807               203.7027               294.8925
 Red. masses --      1.0525                 2.7028                 2.2001
 Frc consts  --      0.0215                 0.0661                 0.1127
 IR Inten    --      0.8804                 2.5813                17.5847

                      7                      8                      9
                      A                      A                      A
 Frequencies --    345.8110               367.0890               392.3567
 Red. masses --      2.4584                 1.2559                 3.0134
 Frc consts  --      0.1732                 0.0997                 0.2733
 IR Inten    --      2.6248                87.1192                 6.7604

                     10                     11                     12
                      A                      A                      A
 Frequencies --    506.1407               583.6137               589.9121
 Red. masses --      3.2283                 3.5270                 3.6640
 Frc consts  --      0.4873                 0.7078                 0.7512
 IR Inten    --      1.8431                 4.1894                 2.8679

                     13                     14                     15
                      A                      A                      A
 Frequencies --    634.1955               661.0763               743.8207
 Red. masses --      3.9749                 4.2817                 4.1658
 Frc consts  --      0.9419                 1.1025                 1.3579
 IR Inten    --      1.9621                12.9709                 1.8693

                     16                     17                     18
                      A                      A                      A
 Frequencies --    806.4797               862.0700               877.6403
 Red. masses --      4.4556                 3.1353                 2.5572
 Frc consts  --      1.7074                 1.3728                 1.1605
 IR Inten    --     11.5495                 5.2503                26.7869

                     19                     20                     21
                      A                      A                      A
 Frequencies --    907.8352               944.0479               964.1148
 Red. masses --      1.5329                 1.9379                 1.8798
 Frc consts  --      0.7444                 1.0176                 1.0295
 IR Inten    --     18.4735                17.8374                 5.6762

                     22                     23                     24
                      A                      A                      A
 Frequencies --    995.1093              1024.4476              1098.9107
 Red. masses --      1.4671                 2.4678                 1.6573
 Frc consts  --      0.8560                 1.5260                 1.1791
 IR Inten    --      6.4764                 6.2904                11.2233

                     25                     26                     27
                      A                      A                      A
 Frequencies --   1105.9954              1128.8281              1139.5993
 Red. masses --      1.5838                 2.1000                 2.0145
 Frc consts  --      1.1414                 1.5766                 1.5414
 IR Inten    --      6.9983                23.3281                14.1244

                     28                     29                     30
                      A                      A                      A
 Frequencies --   1206.1509              1228.9190              1240.3224
 Red. masses --      2.0285                 1.7356                 2.5973
 Frc consts  --      1.7387                 1.5443                 2.3542
 IR Inten    --     51.7302                 7.7045                17.4904

                     31                     32                     33
                      A                      A                      A
 Frequencies --   1280.3511              1320.3499              1374.0678
 Red. masses --      2.1606                 2.3814                 1.7794
 Frc consts  --      2.0868                 2.4460                 1.9794
 IR Inten    --    125.8180                19.6719                 1.1411

                     34                     35                     36
                      A                      A                      A
 Frequencies --   1410.7696              1422.0839              1471.3693
 Red. masses --      1.3839                 1.8529                 1.1799
 Frc consts  --      1.6228                 2.2077                 1.5050
 IR Inten    --     10.9188                 0.5920                 0.9933

                     37                     38                     39
                      A                      A                      A
 Frequencies --   1476.0860              1481.2569              1488.7404
 Red. masses --      1.0829                 1.1671                 1.0521
 Frc consts  --      1.3902                 1.5087                 1.3739
 IR Inten    --      0.6954                 6.7586                 3.6316

                     40                     41                     42
                      A                      A                      A
 Frequencies --   1493.3224              1520.1583              3032.7601
 Red. masses --      1.2314                 2.3116                 1.0353
 Frc consts  --      1.6179                 3.1473                 5.6106
 IR Inten    --      8.7389                41.8511                33.4704

                     43                     44                     45
                      A                      A                      A
 Frequencies --   3034.7297              3046.3185              3094.9609
 Red. masses --      1.0359                 1.0562                 1.1016
 Frc consts  --      5.6209                 5.7752                 6.2168
 IR Inten    --     16.4202                43.8588                17.3442

                     46                     47                     48
                      A                      A                      A
 Frequencies --   3102.2869              3107.8963              3113.6606
 Red. masses --      1.1005                 1.1076                 1.0999
 Frc consts  --      6.2405                 6.3034                 6.2828
 IR Inten    --     10.6794                20.5694                12.8187

                     49                     50                     51
                      A                      A                      A
 Frequencies --   3116.3408              3199.8828              3781.9688
 Red. masses --      1.1015                 1.0934                 1.0660
 Frc consts  --      6.3025                 6.5962                 8.9838
 IR Inten    --     20.1569                11.3930                22.8547

 - Thermochemistry -
 -------------------
 Temperature   298.150 Kelvin.  Pressure   1.00000 Atm.
 Atom     1 has atomic number  6 and mass  12.00000

 Molecular mass:   126.06808 amu.
 Principal axes and moments of inertia in atomic units:
                           1         2         3
     Eigenvalues --   767.049351095.469171261.09711
           X            0.99985   0.01722   0.00027
           Y           -0.01718   0.99818  -0.05781
           Z           -0.00127   0.05779   0.99833
 This molecule is an asymmetric top.
 Rotational symmetry number  1.
 Warning -- assumption of classical behavior for rotation
           may cause significant error
 Rotational temperatures (Kelvin)      0.11292     0.07907     0.06868
 Rotational constants (GHZ):           2.35284     1.64746     1.43109
 Zero-point vibrational energy     412307.9 (Joules/Mol)
                                   98.54394 (Kcal/Mol)
 Warning -- explicit consideration of  12 degrees of freedom as
           vibrations may cause significant error
 Vibrational temperatures:    242.01   249.21   262.51   267.87   293.08
          (Kelvin)            424.28   497.54   528.16   564.51   728.22
                              839.69   848.75   912.46   951.14  1070.19
                             1160.34  1240.32  1262.73  1306.17  1358.27
                             1387.14  1431.74  1473.95  1581.09  1591.28
                             1624.13  1639.63  1735.38  1768.14  1784.55
                             1842.14  1899.69  1976.97  2029.78  2046.06
                             2116.97  2123.76  2131.20  2141.96  2148.56
                             2187.17  4363.46  4366.29  4382.97  4452.95
                             4463.49  4471.56  4479.86  4483.71  4603.91
                             5441.40

 Zero-point correction=                           0.157040 (Hartree/Particle)
 Thermal correction to Energy=                    0.165812
 Thermal correction to Enthalpy=                  0.166756
 Thermal correction to Gibbs Free Energy=         0.124337
 Sum of electronic and zero-point Energies=           -422.970471
 Sum of electronic and thermal Energies=              -422.961699
 Sum of electronic and thermal Enthalpies=            -422.960755
 Sum of electronic and thermal Free Energies=         -423.003174

                     E (Thermal)             CV                S
                      KCal/Mol        Cal/Mol-Kelvin    Cal/Mol-Kelvin
 Total                  104.049             34.058             89.279
 Electronic               0.000              0.000              0.000
 Translational            0.889              2.981             40.409
 Rotational               0.889              2.981             28.451
 Vibrational            102.271             28.096             20.420
 Vibration     1          0.625              1.882              2.455
 Vibration     2          0.627              1.875              2.400
 Vibration     3          0.630              1.864              2.303
 Vibration     4          0.632              1.859              2.266
 Vibration     5          0.639              1.835              2.099
 Vibration     6          0.689              1.683              1.446
 Vibration     7          0.724              1.584              1.185
 Vibration     8          0.740              1.540              1.092
 Vibration     9          0.760              1.487              0.991
 Vibration    10          0.861              1.236              0.643
 Vibration    11          0.940              1.067              0.479
 Vibration    12          0.947              1.053              0.467

 Normal termination of Gaussian 09 at Mon Jan 27 18:45:03 2020.
