 Gaussian 09, Revision D.01,
 Gaussian 09:  ES64L-G09RevD.01 24-Apr-2013

 -----------------------------
 # b3lyp 6-31G(2df,p) opt Freq
 -----------------------------

 -----
 titel
 -----
 Symbolic Z-matrix:
 Charge =  0 Multiplicity = 1

 SCF Done:  E(RB3LYP) =  -423.215189423     A.U. after   14 cycles
 Optimization completed.
    -- Stationary point found.
 Normal termination of Gaussian 09 at Tue Jan 28 12:37:19 2020.

 ----------------------------------------------------------------------
 #N Geom=AllCheck Guess=TCheck SCRF=Check GenChk RB3LYP/6-31G(2df,p) Fr
 eq
 ----------------------------------------------------------------------

 Structure from the checkpoint file:  "/scratch/puck/g09_81f6e2ba-760a-422b-a780-b08fdf03af05/Gau-23880.chk"
 -----
 titel
 -----
 Charge =  0 Multiplicity = 1

                         Standard orientation:
 ---------------------------------------------------------------------
 Center     Atomic      Atomic             Coordinates (Angstroms)
 Number     Number       Type             X           Y           Z
 ---------------------------------------------------------------------
      1          6           0       -2.835230   -0.292416    0.626505
      2          6           0       -1.921130   -0.579766   -0.577297
      3          6           0       -0.455618   -0.408436   -0.266068
      4          6           0        0.399820   -1.425137   -0.077280
      5          6           0        1.862763   -1.230225    0.194458
      6          8           0        2.332134    0.043135   -0.189083
      7          6           0        1.530051    1.094381    0.307027
      8          6           0        0.062028    0.973269   -0.099117
      9          8           0       -0.638259    1.960017   -0.211457
     10          1           0       -3.885336   -0.429251    0.350942
     11          1           0       -2.613260   -0.968225    1.458959
     12          1           0       -2.705112    0.735656    0.971725
     13          1           0       -2.092539   -1.599095   -0.939847
     14          1           0       -2.185250    0.104422   -1.390940
     15          1           0        0.047788   -2.454984   -0.114384
     16          1           0        2.067888   -1.420586    1.266654
     17          1           0        2.453502   -1.959087   -0.371342
     18          1           0        1.573252    1.146322    1.411163
     19          1           0        1.931967    2.029584   -0.087984
 ---------------------------------------------------------------------

 SCF Done:  E(RB3LYP) =  -423.215189423     A.U. after    1 cycles

 The electronic state is 1-A.
 Alpha  occ. eigenvalues --  -19.15414 -19.12951 -10.26631 -10.24898 -10.23753
 Alpha  occ. eigenvalues --  -10.21081 -10.20108 -10.18912 -10.17438  -1.05429
 Alpha  occ. eigenvalues --   -1.03499  -0.82661  -0.76503  -0.74504  -0.66628
 Alpha  occ. eigenvalues --   -0.61940  -0.60941  -0.51277  -0.50709  -0.49741
 Alpha  occ. eigenvalues --   -0.46348  -0.45333  -0.43004  -0.42112  -0.41543
 Alpha  occ. eigenvalues --   -0.39960  -0.38642  -0.36407  -0.35527  -0.34514
 Alpha  occ. eigenvalues --   -0.32755  -0.29000  -0.26460  -0.23417
 Alpha virt. eigenvalues --   -0.05372   0.04908   0.09150   0.10648   0.12219
 Alpha virt. eigenvalues --    0.13311   0.14750   0.15446   0.15836   0.16079
 Alpha virt. eigenvalues --    0.16979   0.17499   0.18834   0.21965   0.22961

 Mulliken charges:
               1
     1  C   -0.377482
     2  C   -0.277268
     3  C    0.203780
     4  C   -0.162509
     5  C   -0.127030
     6  O   -0.239390
     7  C   -0.186044
     8  C    0.310099
     9  O   -0.322056
    10  H    0.114749
    11  H    0.109906
    12  H    0.144087
    13  H    0.097124
    14  H    0.123567
    15  H    0.105817
    16  H    0.106599
    17  H    0.128079
    18  H    0.109174
    19  H    0.138796
 Sum of Mulliken charges =   0.00000

 Dipole moment (field-independent basis, Debye):
    X=              0.3796    Y=             -2.8064    Z=              0.8670  Tot=              2.9617
 Quadrupole moment (field-independent basis, Debye-Ang):
   XX=            -55.1072   YY=            -53.9088   ZZ=            -52.8754
   XY=              1.5984   XZ=              1.8833   YZ=              0.8461

  Exact polarizability:  91.786  -8.194  88.776   4.126  -0.618  57.708
 Approx polarizability: 123.102 -25.909 148.914   6.534  -5.048  88.777

                      1                      2                      3
                      A                      A                      A
 Frequencies --     78.6886                83.4075               159.7431
 Red. masses --      2.4629                 3.4949                 3.2787
 Frc consts  --      0.0090                 0.0143                 0.0493
 IR Inten    --      0.7159                 1.4502                 1.6144

                      4                      5                      6
                      A                      A                      A
 Frequencies --    212.1252               239.4215               295.8336
 Red. masses --      1.3239                 2.7814                 2.0108
 Frc consts  --      0.0351                 0.0939                 0.1037
 IR Inten    --      1.6205                 4.5494                 3.9197

                      7                      8                      9
                      A                      A                      A
 Frequencies --    305.6743               377.9906               447.1550
 Red. masses --      2.0872                 3.6063                 3.7916
 Frc consts  --      0.1149                 0.3036                 0.4467
 IR Inten    --      3.1120                 3.0520                 8.2272

                     10                     11                     12
                      A                      A                      A
 Frequencies --    513.7874               530.5066               637.4256
 Red. masses --      5.4124                 4.4202                 3.6437
 Frc consts  --      0.8418                 0.7330                 0.8723
 IR Inten    --      0.7563                 6.9596                 5.2846

                     13                     14                     15
                      A                      A                      A
 Frequencies --    698.4504               765.6240               791.1014
 Red. masses --      3.4815                 1.9624                 1.6944
 Frc consts  --      1.0007                 0.6777                 0.6248
 IR Inten    --      7.0928                 7.1338                11.5907

                     16                     17                     18
                      A                      A                      A
 Frequencies --    851.0086               911.6285               955.6002
 Red. masses --      1.3989                 2.4061                 2.7746
 Frc consts  --      0.5969                 1.1781                 1.4928
 IR Inten    --      7.4552                 5.1084                 2.1031

                     19                     20                     21
                      A                      A                      A
 Frequencies --   1001.0648              1013.1703              1044.4569
 Red. masses --      2.7803                 2.1412                 2.1368
 Frc consts  --      1.6416                 1.2950                 1.3734
 IR Inten    --     10.8596                16.1931                 4.1895

                     22                     23                     24
                      A                      A                      A
 Frequencies --   1078.3876              1097.1548              1134.1821
 Red. masses --      2.0391                 1.5846                 2.7854
 Frc consts  --      1.3971                 1.1238                 2.1111
 IR Inten    --      4.9203                 1.3623                 2.8141

                     25                     26                     27
                      A                      A                      A
 Frequencies --   1183.5703              1232.5052              1251.7818
 Red. masses --      3.4202                 1.5692                 1.4869
 Frc consts  --      2.8228                 1.4044                 1.3728
 IR Inten    --     79.3491                 2.4948                23.6114

                     28                     29                     30
                      A                      A                      A
 Frequencies --   1286.5927              1297.6470              1353.1062
 Red. masses --      1.2900                 1.1947                 1.4259
 Frc consts  --      1.2581                 1.1853                 1.5382
 IR Inten    --     14.2584                 4.2235                 3.3833

                     31                     32                     33
                      A                      A                      A
 Frequencies --   1354.3098              1389.0311              1401.8186
 Red. masses --      1.3577                 1.9609                 1.2742
 Frc consts  --      1.4672                 2.2291                 1.4753
 IR Inten    --      6.0215                33.6562                 4.4422

                     34                     35                     36
                      A                      A                      A
 Frequencies --   1407.1118              1466.1089              1475.6039
 Red. masses --      1.4235                 1.0774                 1.0803
 Frc consts  --      1.6606                 1.3644                 1.3858
 IR Inten    --     17.2594                 2.8117                 2.1748

                     37                     38                     39
                      A                      A                      A
 Frequencies --   1482.3381              1496.1696              1511.7084
 Red. masses --      1.0958                 1.0472                 1.0552
 Frc consts  --      1.4187                 1.3811                 1.4208
 IR Inten    --      8.1130                 6.5407                 3.8858

                     40                     41                     42
                      A                      A                      A
 Frequencies --   1701.4117              1775.3877              2914.1596
 Red. masses --      7.5165                12.1913                 1.0724
 Frc consts  --     12.8199                22.6405                 5.3658
 IR Inten    --      6.3621               187.3414                49.2013

                     43                     44                     45
                      A                      A                      A
 Frequencies --   2937.9834              3039.2966              3040.4055
 Red. masses --      1.0707                 1.0551                 1.0403
 Frc consts  --      5.4450                 5.7425                 5.6659
 IR Inten    --     39.1977                18.9163                31.7403

                     46                     47                     48
                      A                      A                      A
 Frequencies --   3063.0340              3080.1142              3106.9375
 Red. masses --      1.0863                 1.1019                 1.1019
 Frc consts  --      6.0051                 6.1593                 6.2668
 IR Inten    --     21.9833                 7.1405                33.4011

                     49                     50                     51
                      A                      A                      A
 Frequencies --   3114.9369              3133.7846              3142.8421
 Red. masses --      1.0902                 1.1009                 1.0900
 Frc consts  --      6.2323                 6.3698                 6.3431
 IR Inten    --     11.4090                15.6963                16.0188

 - Thermochemistry -
 -------------------
 Temperature   298.150 Kelvin.  Pressure   1.00000 Atm.
 Atom     1 has atomic number  6 and mass  12.00000

 Molecular mass:   126.06808 amu.
 Principal axes and moments of inertia in atomic units:
                           1         2         3
     Eigenvalues --   645.306131378.479251863.77167
           X            0.99986   0.01634   0.00253
           Y           -0.01636   0.99984   0.00779
           Z           -0.00240  -0.00783   0.99997
 This molecule is an asymmetric top.
 Rotational symmetry number  1.
 Warning -- assumption of classical behavior for rotation
           may cause significant error
 Rotational temperatures (Kelvin)      0.13422     0.06283     0.04647
 Rotational constants (GHZ):           2.79672     1.30923     0.96833
 Zero-point vibrational energy     417875.2 (Joules/Mol)
                                   99.87458 (Kcal/Mol)
 Warning -- explicit consideration of  11 degrees of freedom as
           vibrations may cause significant error
 Vibrational temperatures:    113.22   120.00   229.83   305.20   344.47
          (Kelvin)            425.64   439.80   543.84   643.36   739.22
                              763.28   917.11  1004.91  1101.56  1138.22
                             1224.41  1311.63  1374.89  1440.31  1457.72
                             1502.74  1551.56  1578.56  1631.83  1702.89
                             1773.30  1801.03  1851.12  1867.02  1946.82
                             1948.55  1998.50  2016.90  2024.52  2109.40
                             2123.06  2132.75  2152.65  2175.01  2447.95
                             2554.38  4192.82  4227.10  4372.86  4374.46
                             4407.02  4431.59  4470.18  4481.69  4508.81
                             4521.84

 Zero-point correction=                           0.159160 (Hartree/Particle)
 Thermal correction to Energy=                    0.167959
 Thermal correction to Enthalpy=                  0.168903
 Thermal correction to Gibbs Free Energy=         0.125353
 Sum of electronic and zero-point Energies=           -423.056029
 Sum of electronic and thermal Energies=              -423.047230
 Sum of electronic and thermal Enthalpies=            -423.046286
 Sum of electronic and thermal Free Energies=         -423.089836

                     E (Thermal)             CV                S
                      KCal/Mol        Cal/Mol-Kelvin    Cal/Mol-Kelvin
 Total                  105.396             32.460             91.659
 Electronic               0.000              0.000              0.000
 Translational            0.889              2.981             40.409
 Rotational               0.889              2.981             28.896
 Vibrational            103.618             26.499             22.355
 Vibration     1          0.600              1.963              3.923
 Vibration     2          0.600              1.961              3.809
 Vibration     3          0.622              1.892              2.553
 Vibration     4          0.643              1.822              2.025
 Vibration     5          0.657              1.780              1.807
 Vibration     6          0.690              1.682              1.440
 Vibration     7          0.696              1.663              1.386
 Vibration     8          0.748              1.517              1.047
 Vibration     9          0.806              1.367              0.804
 Vibration    10          0.869              1.219              0.625
 Vibration    11          0.885              1.183              0.586

 Optimization completed.
    -- Stationary point found.
 Normal termination of Gaussian 09 at Tue Jan 28 13:19:58 2020.
