 Gaussian 09, Revision D.01,
 Gaussian 09:  ES64L-G09RevD.01 24-Apr-2013

 -----------------------------
 # b3lyp 6-31G(2df,p) opt Freq
 -----------------------------

 -----
 titel
 -----
 Symbolic Z-matrix:
 Charge =  0 Multiplicity = 1

 SCF Done:  E(RB3LYP) =  -423.127143944     A.U. after   12 cycles
 Optimization completed.
    -- Stationary point found.
 Normal termination of Gaussian 09 at Mon Jan 27 17:44:03 2020.

 ----------------------------------------------------------------------
 #N Geom=AllCheck Guess=TCheck SCRF=Check GenChk RB3LYP/6-31G(2df,p) Fr
 eq
 ----------------------------------------------------------------------

 Structure from the checkpoint file:  "/scratch/puck/g09_d5352e2f-7d4f-40e4-9671-cc7bcdcb3d42/Gau-15760.chk"
 -----
 titel
 -----
 Charge =  0 Multiplicity = 1

                         Standard orientation:
 ---------------------------------------------------------------------
 Center     Atomic      Atomic             Coordinates (Angstroms)
 Number     Number       Type             X           Y           Z
 ---------------------------------------------------------------------
      1          8           0        2.264051    0.409474   -0.135567
      2          6           0        1.004814   -0.180068   -0.146088
      3          6           0        0.726160   -1.570567   -0.611185
      4          6           0        0.431853   -1.189558    0.832710
      5          6           0       -0.859500   -0.346949    0.980640
      6          6           0       -2.043694   -0.587483   -0.004086
      7          6           0       -1.469915    0.504037   -0.968315
      8          6           0       -0.266221    0.709843   -0.011651
      9          8           0        0.034767    2.024479    0.329146
     10          1           0        2.559884    0.518124   -1.047201
     11          1           0       -0.060485   -1.799143   -1.323988
     12          1           0        1.615101   -2.185538   -0.718780
     13          1           0        0.924280   -1.719973    1.638848
     14          1           0       -1.102204   -0.065408    2.005081
     15          1           0       -2.115421   -1.596511   -0.416897
     16          1           0       -3.016155   -0.324946    0.417256
     17          1           0       -1.241102    0.196045   -1.993173
     18          1           0       -2.086920    1.404968   -1.005482
     19          1           0        0.991488    2.065233    0.463551
 ---------------------------------------------------------------------

 SCF Done:  E(RB3LYP) =  -423.127143944     A.U. after    1 cycles

 The electronic state is 1-A.
 Alpha  occ. eigenvalues --  -19.16489 -19.13177 -10.23990 -10.22678 -10.19248
 Alpha  occ. eigenvalues --  -10.19181 -10.17698 -10.17631 -10.17205  -1.05051
 Alpha  occ. eigenvalues --   -1.01452  -0.89248  -0.79446  -0.67657  -0.65693
 Alpha  occ. eigenvalues --   -0.59821  -0.57989  -0.54375  -0.52431  -0.49221
 Alpha  occ. eigenvalues --   -0.46830  -0.44698  -0.43762  -0.40894  -0.39244
 Alpha  occ. eigenvalues --   -0.37308  -0.36147  -0.33956  -0.33129  -0.31603
 Alpha  occ. eigenvalues --   -0.29599  -0.27779  -0.25995  -0.22189
 Alpha virt. eigenvalues --    0.05926   0.09047   0.10152   0.10339   0.12493
 Alpha virt. eigenvalues --    0.13583   0.14427   0.15035   0.17138   0.17652
 Alpha virt. eigenvalues --    0.18515   0.19053   0.21438   0.22007   0.23932

 Mulliken charges:
               1
     1  O   -0.466334
     2  C    0.302104
     3  C   -0.363739
     4  C   -0.122005
     5  C   -0.080968
     6  C   -0.244906
     7  C   -0.299200
     8  C    0.386336
     9  O   -0.491243
    10  H    0.292470
    11  H    0.114896
    12  H    0.115639
    13  H    0.094792
    14  H    0.073334
    15  H    0.099432
    16  H    0.102522
    17  H    0.090214
    18  H    0.111921
    19  H    0.284735
 Sum of Mulliken charges =   0.00000

 Dipole moment (field-independent basis, Debye):
    X=              0.9333    Y=             -1.2147    Z=             -1.2200  Tot=              1.9582
 Quadrupole moment (field-independent basis, Debye-Ang):
   XX=            -50.9811   YY=            -55.9324   ZZ=            -50.7228
   XY=              1.1916   XZ=             -3.2332   YZ=             -0.7179

  Exact polarizability:  80.729  -0.588  73.651  -1.178  -0.363  68.251
 Approx polarizability: 111.354   2.207 109.769  -2.518  -0.358 105.954

                      1                      2                      3
                      A                      A                      A
 Frequencies --    149.1124               230.6476               253.6355
 Red. masses --      3.9722                 2.2586                 3.1643
 Frc consts  --      0.0520                 0.0708                 0.1199
 IR Inten    --      5.6046                 1.7479                32.1583

                      4                      5                      6
                      A                      A                      A
 Frequencies --    287.8410               297.8425               361.5008
 Red. masses --      1.2357                 3.0028                 3.1467
 Frc consts  --      0.0603                 0.1569                 0.2423
 IR Inten    --     49.4424                 3.1703                10.6089

                      7                      8                      9
                      A                      A                      A
 Frequencies --    432.3358               452.5301               463.0417
 Red. masses --      2.5172                 3.2406                 1.2080
 Frc consts  --      0.2772                 0.3910                 0.1526
 IR Inten    --      7.4183                16.1743                50.6213

                     10                     11                     12
                      A                      A                      A
 Frequencies --    498.6397               599.0585               628.0493
 Red. masses --      2.3748                 3.8155                 3.6792
 Frc consts  --      0.3479                 0.8068                 0.8550
 IR Inten    --      0.3810                11.2370                 3.0482

                     13                     14                     15
                      A                      A                      A
 Frequencies --    722.5831               762.2545               793.7474
 Red. masses --      1.4531                 3.0270                 2.4532
 Frc consts  --      0.4470                 1.0362                 0.9107
 IR Inten    --      1.1590                 0.4680                 7.9228

                     16                     17                     18
                      A                      A                      A
 Frequencies --    847.9625               891.8830               896.8030
 Red. masses --      2.1723                 1.8846                 2.1596
 Frc consts  --      0.9203                 0.8832                 1.0234
 IR Inten    --      2.3560                 9.7433                 6.6424

                     19                     20                     21
                      A                      A                      A
 Frequencies --    941.5977               951.1055               977.2279
 Red. masses --      2.6177                 2.2505                 1.5794
 Frc consts  --      1.3674                 1.1995                 0.8886
 IR Inten    --      1.7335                16.8736                 2.8847

                     22                     23                     24
                      A                      A                      A
 Frequencies --   1000.4766              1039.1661              1057.2505
 Red. masses --      1.2949                 1.8184                 3.3925
 Frc consts  --      0.7636                 1.1570                 2.2342
 IR Inten    --      3.3297                 1.7798                44.1762

                     25                     26                     27
                      A                      A                      A
 Frequencies --   1077.9196              1083.5405              1103.8998
 Red. masses --      2.1452                 1.5905                 1.5417
 Frc consts  --      1.4686                 1.1002                 1.1069
 IR Inten    --     32.2865                 4.8478                 7.4176

                     28                     29                     30
                      A                      A                      A
 Frequencies --   1123.0835              1207.6130              1218.3674
 Red. masses --      1.7614                 1.9123                 1.4532
 Frc consts  --      1.3090                 1.6431                 1.2710
 IR Inten    --      3.6280                42.7680                 5.3708

                     31                     32                     33
                      A                      A                      A
 Frequencies --   1229.4304              1236.4695              1263.3489
 Red. masses --      1.8156                 1.5352                 1.5424
 Frc consts  --      1.6168                 1.3828                 1.4505
 IR Inten    --     27.8867                32.1200                25.7140

                     34                     35                     36
                      A                      A                      A
 Frequencies --   1287.7003              1301.0991              1330.2169
 Red. masses --      1.5132                 1.7267                 2.9846
 Frc consts  --      1.4784                 1.7222                 3.1116
 IR Inten    --      4.5837                99.4490                41.6991

                     37                     38                     39
                      A                      A                      A
 Frequencies --   1392.1131              1405.9189              1468.6442
 Red. masses --      2.0390                 1.5013                 1.0904
 Frc consts  --      2.3282                 1.7483                 1.3857
 IR Inten    --     17.8103                84.7247                 1.7087

                     40                     41                     42
                      A                      A                      A
 Frequencies --   1486.9779              1501.6815              3051.9906
 Red. masses --      1.3008                 1.2420                 1.0602
 Frc consts  --      1.6946                 1.6502                 5.8182
 IR Inten    --      5.0392                12.7785                34.5918

                     43                     44                     45
                      A                      A                      A
 Frequencies --   3068.0828              3103.1503              3113.9951
 Red. masses --      1.0597                 1.1054                 1.0929
 Frc consts  --      5.8772                 6.2715                 6.2439
 IR Inten    --     36.7008                 1.5896                 7.5243

                     46                     47                     48
                      A                      A                      A
 Frequencies --   3118.7221              3124.5005              3181.4513
 Red. masses --      1.0546                 1.1022                 1.0949
 Frc consts  --      6.0438                 6.3400                 6.5294
 IR Inten    --      8.5316                53.3467                12.1265

                     49                     50                     51
                      A                      A                      A
 Frequencies --   3201.2807              3746.3234              3780.1914
 Red. masses --      1.1139                 1.0654                 1.0662
 Frc consts  --      6.7258                 8.8098                 8.9767
 IR Inten    --     12.0974                60.7931                22.9245

 - Thermochemistry -
 -------------------
 Temperature   298.150 Kelvin.  Pressure   1.00000 Atm.
 Atom     1 has atomic number  8 and mass  15.99491

 Molecular mass:   126.06808 amu.
 Principal axes and moments of inertia in atomic units:
                           1         2         3
     Eigenvalues --   727.48344 978.044181322.78530
           X            0.99999  -0.00398   0.00149
           Y            0.00397   0.99999   0.00207
           Z           -0.00150  -0.00207   1.00000
 This molecule is an asymmetric top.
 Rotational symmetry number  1.
 Warning -- assumption of classical behavior for rotation
           may cause significant error
 Rotational temperatures (Kelvin)      0.11906     0.08856     0.06548
 Rotational constants (GHZ):           2.48080     1.84526     1.36435
 Zero-point vibrational energy     417161.8 (Joules/Mol)
                                   99.70406 (Kcal/Mol)
 Warning -- explicit consideration of  11 degrees of freedom as
           vibrations may cause significant error
 Vibrational temperatures:    214.54   331.85   364.92   414.14   428.53
          (Kelvin)            520.12   622.03   651.09   666.21   717.43
                              861.91   903.62  1039.63  1096.71  1142.02
                             1220.03  1283.22  1290.30  1354.75  1368.43
                             1406.01  1439.46  1495.13  1521.15  1550.88
                             1558.97  1588.26  1615.86  1737.48  1752.96
                             1768.87  1779.00  1817.67  1852.71  1871.99
                             1913.88  2002.94  2022.80  2113.05  2139.43
                             2160.58  4391.13  4414.28  4464.74  4480.34
                             4487.14  4495.45  4577.39  4605.92  5390.12
                             5438.85

 Zero-point correction=                           0.158889 (Hartree/Particle)
 Thermal correction to Energy=                    0.166811
 Thermal correction to Enthalpy=                  0.167755
 Thermal correction to Gibbs Free Energy=         0.127221
 Sum of electronic and zero-point Energies=           -422.968255
 Sum of electronic and thermal Energies=              -422.960333
 Sum of electronic and thermal Enthalpies=            -422.959389
 Sum of electronic and thermal Free Energies=         -422.999923

                     E (Thermal)             CV                S
                      KCal/Mol        Cal/Mol-Kelvin    Cal/Mol-Kelvin
 Total                  104.675             32.701             85.311
 Electronic               0.000              0.000              0.000
 Translational            0.889              2.981             40.409
 Rotational               0.889              2.981             28.333
 Vibrational            102.898             26.740             16.569
 Vibration     1          0.618              1.904              2.684
 Vibration     2          0.652              1.794              1.874
 Vibration     3          0.665              1.757              1.705
 Vibration     4          0.685              1.696              1.487
 Vibration     5          0.691              1.678              1.429
 Vibration     6          0.736              1.552              1.116
 Vibration     7          0.793              1.400              0.851
 Vibration     8          0.811              1.355              0.788
 Vibration     9          0.821              1.332              0.757
 Vibration    10          0.854              1.253              0.662
 Vibration    11          0.957              1.034              0.451

 Optimization completed.
    -- Stationary point found.
 Normal termination of Gaussian 09 at Mon Jan 27 19:41:34 2020.
