 Gaussian 09, Revision D.01,
 Gaussian 09:  ES64L-G09RevD.01 24-Apr-2013

 -----------------------------
 # b3lyp 6-31G(2df,p) opt Freq
 -----------------------------

 -----
 titel
 -----
 Symbolic Z-matrix:
 Charge =  0 Multiplicity = 1

 SCF Done:  E(RB3LYP) =  -423.153232707     A.U. after   13 cycles
 Optimization completed.
    -- Stationary point found.
 Normal termination of Gaussian 09 at Tue Jan 28 02:55:39 2020.

 ----------------------------------------------------------------------
 #N Geom=AllCheck Guess=TCheck SCRF=Check GenChk RB3LYP/6-31G(2df,p) Fr
 eq
 ----------------------------------------------------------------------

 Structure from the checkpoint file:  "/scratch/puck/g09_57a09d7e-2293-4b6b-b0ad-c8f61a3caa91/Gau-65362.chk"
 -----
 titel
 -----
 Charge =  0 Multiplicity = 1

                         Standard orientation:
 ---------------------------------------------------------------------
 Center     Atomic      Atomic             Coordinates (Angstroms)
 Number     Number       Type             X           Y           Z
 ---------------------------------------------------------------------
      1          6           0       -1.770611    1.643490    0.053114
      2          6           0       -0.938214    0.397867    0.020513
      3          6           0       -0.442530   -0.454996    1.185459
      4          6           0        1.066941   -0.682798    1.101126
      5          6           0        1.461600   -0.090671   -0.282162
      6          8           0        2.040902    1.203482   -0.197949
      7          6           0        0.121571   -0.052920   -1.019876
      8          8           0       -0.417441   -1.413485   -1.033060
      9          6           0       -1.264184   -1.063481    0.064403
     10          1           0       -2.525869    1.584145    0.843617
     11          1           0       -1.164786    2.537006    0.248322
     12          1           0       -2.294099    1.801557   -0.896278
     13          1           0       -0.935068   -0.348308    2.146380
     14          1           0        1.607730   -0.157334    1.893927
     15          1           0        1.323221   -1.743691    1.169071
     16          1           0        2.192409   -0.710675   -0.807372
     17          1           0        1.459166    1.751837    0.340380
     18          1           0        0.133408    0.398598   -2.013301
     19          1           0       -2.191240   -1.612055    0.187869
 ---------------------------------------------------------------------

 SCF Done:  E(RB3LYP) =  -423.153232707     A.U. after    1 cycles

 The electronic state is 1-A.
 Alpha  occ. eigenvalues --  -19.13839 -19.13602 -10.23687 -10.23217 -10.22978
 Alpha  occ. eigenvalues --  -10.19938 -10.19407 -10.19201 -10.18287  -1.05485
 Alpha  occ. eigenvalues --   -1.01859  -0.85032  -0.75907  -0.73213  -0.68402
 Alpha  occ. eigenvalues --   -0.61476  -0.56723  -0.53777  -0.51571  -0.48649
 Alpha  occ. eigenvalues --   -0.47532  -0.44227  -0.41999  -0.41445  -0.40403
 Alpha  occ. eigenvalues --   -0.39255  -0.38081  -0.37231  -0.34570  -0.33571
 Alpha  occ. eigenvalues --   -0.30603  -0.26830  -0.26043  -0.22898
 Alpha virt. eigenvalues --    0.05728   0.08866   0.10297   0.11589   0.12561
 Alpha virt. eigenvalues --    0.13322   0.13605   0.14901   0.16290   0.16781
 Alpha virt. eigenvalues --    0.17822   0.18204   0.19059   0.21518   0.22437

 Mulliken charges:
               1
     1  C   -0.517627
     2  C    0.250687
     3  C   -0.146152
     4  C   -0.272183
     5  C    0.135085
     6  O   -0.440153
     7  C    0.011223
     8  O   -0.309491
     9  C    0.052775
    10  H    0.125496
    11  H    0.114912
    12  H    0.129393
    13  H    0.086480
    14  H    0.102674
    15  H    0.115493
    16  H    0.094856
    17  H    0.283187
    18  H    0.082349
    19  H    0.100995
 Sum of Mulliken charges =   0.00000

 Dipole moment (field-independent basis, Debye):
    X=             -1.6354    Y=              1.1105    Z=              1.5950  Tot=              2.5401
 Quadrupole moment (field-independent basis, Debye-Ang):
   XX=            -54.8734   YY=            -54.1125   ZZ=            -52.5598
   XY=             -2.5343   XZ=             -0.1923   YZ=             -1.0178

  Exact polarizability:  77.145  -1.500  73.155  -0.814  -1.774  69.865
 Approx polarizability: 106.041   2.144 111.483  -2.242   0.234 107.155

                      1                      2                      3
                      A                      A                      A
 Frequencies --    111.7179               178.9665               196.9645
 Red. masses --      3.7588                 1.1841                 1.9601
 Frc consts  --      0.0276                 0.0223                 0.0448
 IR Inten    --      1.4709                 0.3283                 0.7793

                      4                      5                      6
                      A                      A                      A
 Frequencies --    279.2715               292.1433               324.3305
 Red. masses --      2.0173                 1.6590                 2.0438
 Frc consts  --      0.0927                 0.0834                 0.1267
 IR Inten    --     15.0014                19.5419                51.4768

                      7                      8                      9
                      A                      A                      A
 Frequencies --    391.8900               456.7298               520.2703
 Red. masses --      3.7494                 4.9027                 2.5492
 Frc consts  --      0.3393                 0.6026                 0.4065
 IR Inten    --      4.9216                 1.7531                 8.2845

                     10                     11                     12
                      A                      A                      A
 Frequencies --    585.5909               718.1788               745.9506
 Red. masses --      3.6288                 4.0869                 4.1268
 Frc consts  --      0.7332                 1.2420                 1.3530
 IR Inten    --      1.5318                 1.4461                 1.7063

                     13                     14                     15
                      A                      A                      A
 Frequencies --    762.2570               839.1607               851.0883
 Red. masses --      3.9269                 2.5876                 3.2268
 Frc consts  --      1.3443                 1.0736                 1.3771
 IR Inten    --     22.6168                 5.3747                 2.6383

                     16                     17                     18
                      A                      A                      A
 Frequencies --    898.6523               908.5838               927.2831
 Red. masses --      1.7209                 2.4559                 1.8594
 Frc consts  --      0.8188                 1.1945                 0.9420
 IR Inten    --      2.9778                14.0203                14.0757

                     19                     20                     21
                      A                      A                      A
 Frequencies --    964.4049               994.1982              1020.3606
 Red. masses --      1.9208                 2.5811                 1.7097
 Frc consts  --      1.0526                 1.5031                 1.0488
 IR Inten    --     10.7625                37.5941                 3.7381

                     22                     23                     24
                      A                      A                      A
 Frequencies --   1044.3846              1060.5233              1070.2984
 Red. masses --      2.1161                 1.9391                 1.7179
 Frc consts  --      1.3599                 1.2850                 1.1595
 IR Inten    --     11.5629                10.8231                29.2046

                     25                     26                     27
                      A                      A                      A
 Frequencies --   1085.9600              1129.3959              1164.1979
 Red. masses --      2.7514                 2.0932                 1.5909
 Frc consts  --      1.9118                 1.5731                 1.2704
 IR Inten    --     76.8986                 1.3011                11.2581

                     28                     29                     30
                      A                      A                      A
 Frequencies --   1202.5657              1206.4856              1237.4182
 Red. masses --      1.4924                 1.5894                 1.5414
 Frc consts  --      1.2716                 1.3631                 1.3906
 IR Inten    --     12.8587                 2.3759                 4.7016

                     31                     32                     33
                      A                      A                      A
 Frequencies --   1274.1571              1281.1381              1297.6061
 Red. masses --      2.0338                 1.6214                 1.5403
 Frc consts  --      1.9454                 1.5680                 1.5281
 IR Inten    --      4.5969                 0.1821                 4.1596

                     34                     35                     36
                      A                      A                      A
 Frequencies --   1318.4576              1328.6454              1418.4903
 Red. masses --      1.4810                 1.5720                 1.2625
 Frc consts  --      1.5168                 1.6351                 1.4967
 IR Inten    --      6.6135                 1.1946                34.8788

                     37                     38                     39
                      A                      A                      A
 Frequencies --   1419.6224              1465.6378              1482.5724
 Red. masses --      1.2219                 3.8551                 1.1176
 Frc consts  --      1.4508                 4.8791                 1.4473
 IR Inten    --     19.1565                 0.3626                 4.1474

                     40                     41                     42
                      A                      A                      A
 Frequencies --   1486.0182              1498.6889              3019.7364
 Red. masses --      1.0463                 1.0681                 1.0374
 Frc consts  --      1.3613                 1.4135                 5.5738
 IR Inten    --      3.3591                 4.9196                37.7486

                     43                     44                     45
                      A                      A                      A
 Frequencies --   3055.8336              3077.0621              3087.2333
 Red. masses --      1.0596                 1.0986                 1.0888
 Frc consts  --      5.8295                 6.1287                 6.1139
 IR Inten    --     26.5270                24.7304                17.2364

                     46                     47                     48
                      A                      A                      A
 Frequencies --   3097.5611              3101.9188              3107.5136
 Red. masses --      1.1003                 1.1028                 1.0912
 Frc consts  --      6.2203                 6.2517                 6.2082
 IR Inten    --     13.6817                24.2148                39.7643

                     49                     50                     51
                      A                      A                      A
 Frequencies --   3168.5692              3180.4380              3799.1696
 Red. masses --      1.0890                 1.0948                 1.0657
 Frc consts  --      6.4417                 6.5249                 9.0631
 IR Inten    --      6.6867                27.9176                 8.8350

 - Thermochemistry -
 -------------------
 Temperature   298.150 Kelvin.  Pressure   1.00000 Atm.
 Atom     1 has atomic number  6 and mass  12.00000

 Molecular mass:   126.06808 amu.
 Principal axes and moments of inertia in atomic units:
                           1         2         3
     Eigenvalues --   752.390681029.530461220.85950
           X            0.99360  -0.11285   0.00478
           Y            0.11295   0.99246  -0.04765
           Z            0.00063   0.04789   0.99885
 This molecule is an asymmetric top.
 Rotational symmetry number  1.
 Warning -- assumption of classical behavior for rotation
           may cause significant error
 Rotational temperatures (Kelvin)      0.11512     0.08413     0.07094
 Rotational constants (GHZ):           2.39868     1.75298     1.47825
 Zero-point vibrational energy     419502.2 (Joules/Mol)
                                  100.26343 (Kcal/Mol)
 Warning -- explicit consideration of  10 degrees of freedom as
           vibrations may cause significant error
 Vibrational temperatures:    160.74   257.49   283.39   401.81   420.33
          (Kelvin)            466.64   563.84   657.13   748.55   842.53
                             1033.30  1073.26  1096.72  1207.36  1224.52
                             1292.96  1307.25  1334.15  1387.56  1430.43
                             1468.07  1502.63  1525.85  1539.92  1562.45
                             1624.95  1675.02  1730.22  1735.86  1780.37
                             1833.23  1843.27  1866.96  1896.96  1911.62
                             2040.89  2042.52  2108.72  2133.09  2138.05
                             2156.28  4344.72  4396.66  4427.20  4441.83
                             4456.69  4462.96  4471.01  4558.86  4575.94
                             5466.15

 Zero-point correction=                           0.159780 (Hartree/Particle)
 Thermal correction to Energy=                    0.167693
 Thermal correction to Enthalpy=                  0.168637
 Thermal correction to Gibbs Free Energy=         0.127693
 Sum of electronic and zero-point Energies=           -422.993453
 Sum of electronic and thermal Energies=              -422.985540
 Sum of electronic and thermal Enthalpies=            -422.984596
 Sum of electronic and thermal Free Energies=         -423.025540

                     E (Thermal)             CV                S
                      KCal/Mol        Cal/Mol-Kelvin    Cal/Mol-Kelvin
 Total                  105.229             31.341             86.175
 Electronic               0.000              0.000              0.000
 Translational            0.889              2.981             40.409
 Rotational               0.889              2.981             28.338
 Vibrational            103.451             25.379             17.428
 Vibration     1          0.607              1.940              3.239
 Vibration     2          0.629              1.868              2.339
 Vibration     3          0.636              1.844              2.161
 Vibration     4          0.680              1.712              1.538
 Vibration     5          0.688              1.688              1.462
 Vibration     6          0.709              1.627              1.288
 Vibration     7          0.759              1.488              0.993
 Vibration     8          0.815              1.346              0.776
 Vibration     9          0.875              1.205              0.609
 Vibration    10          0.943              1.063              0.475

 Normal termination of Gaussian 09 at Tue Jan 28 03:56:24 2020.
