 Gaussian 09, Revision D.01,
 Gaussian 09:  ES64L-G09RevD.01 24-Apr-2013

 -----------------------------
 # b3lyp 6-31G(2df,p) opt Freq
 -----------------------------

 -----
 titel
 -----
 Symbolic Z-matrix:
 Charge =  0 Multiplicity = 1

 SCF Done:  E(RB3LYP) =  -423.148227526     A.U. after   14 cycles
 Optimization completed.
    -- Stationary point found.
 Normal termination of Gaussian 09 at Tue Jan 28 14:32:09 2020.

 ----------------------------------------------------------------------
 #N Geom=AllCheck Guess=TCheck SCRF=Check GenChk RB3LYP/6-31G(2df,p) Fr
 eq
 ----------------------------------------------------------------------

 Structure from the checkpoint file:  "/scratch/puck/g09_ac5b05e6-9986-4620-9ca4-aa81a5ed9678/Gau-112658.chk"
 -----
 titel
 -----
 Charge =  0 Multiplicity = 1

                         Standard orientation:
 ---------------------------------------------------------------------
 Center     Atomic      Atomic             Coordinates (Angstroms)
 Number     Number       Type             X           Y           Z
 ---------------------------------------------------------------------
      1          6           0        4.038013    0.263798   -0.015632
      2          8           0        2.712180    0.407326   -0.464958
      3          6           0        1.781590   -0.279266    0.339527
      4          6           0        0.392874   -0.072348   -0.252023
      5          6           0       -0.693251   -0.789859    0.567920
      6          6           0       -2.086452   -0.569118    0.005893
      7          8           0       -2.769322   -1.462496   -0.444633
      8          6           0       -2.569605    0.805091    0.036297
      9          6           0       -2.968083    1.940587    0.072042
     10          1           0        4.357587   -0.790571   -0.014026
     11          1           0        4.678323    0.825301   -0.700124
     12          1           0        4.170943    0.662367    1.002966
     13          1           0        2.025997   -1.355412    0.381324
     14          1           0        1.815115    0.096793    1.377887
     15          1           0        0.184189    1.001470   -0.296207
     16          1           0        0.389297   -0.443016   -1.282864
     17          1           0       -0.524295   -1.870345    0.588390
     18          1           0       -0.676932   -0.417206    1.600920
     19          1           0       -3.333603    2.938668    0.094326
 ---------------------------------------------------------------------

 SCF Done:  E(RB3LYP) =  -423.148227526     A.U. after    1 cycles

 The electronic state is 1-A.
 Alpha  occ. eigenvalues --  -19.14315 -19.14131 -10.29324 -10.23396 -10.22702
 Alpha  occ. eigenvalues --  -10.20833 -10.20139 -10.20078 -10.19452  -1.05154
 Alpha  occ. eigenvalues --   -1.03719  -0.81207  -0.77352  -0.72860  -0.66812
 Alpha  occ. eigenvalues --   -0.62691  -0.60377  -0.53646  -0.50153  -0.49281
 Alpha  occ. eigenvalues --   -0.47381  -0.46284  -0.44623  -0.43500  -0.41763
 Alpha  occ. eigenvalues --   -0.39164  -0.36640  -0.36189  -0.34747  -0.32122
 Alpha  occ. eigenvalues --   -0.29813  -0.29752  -0.26258  -0.25921
 Alpha virt. eigenvalues --   -0.05824   0.03382   0.07946   0.09370   0.10727
 Alpha virt. eigenvalues --    0.11080   0.12485   0.13602   0.14357   0.15730
 Alpha virt. eigenvalues --    0.16029   0.16656   0.18740   0.19510   0.20685

 Mulliken charges:
               1
     1  C   -0.229449
     2  O   -0.230543
     3  C   -0.046266
     4  C   -0.209832
     5  C   -0.306695
     6  C    0.254469
     7  O   -0.276336
     8  C    0.282041
     9  C   -0.459169
    10  H    0.104568
    11  H    0.128700
    12  H    0.103400
    13  H    0.087727
    14  H    0.084424
    15  H    0.125131
    16  H    0.122750
    17  H    0.125100
    18  H    0.121790
    19  H    0.218189
 Sum of Mulliken charges =   0.00000

 Dipole moment (field-independent basis, Debye):
    X=              1.9817    Y=              1.6747    Z=              1.7479  Tot=              3.1284
 Quadrupole moment (field-independent basis, Debye-Ang):
   XX=            -54.7322   YY=            -51.1199   ZZ=            -53.9292
   XY=            -10.1881   XZ=             -0.6960   YZ=             -0.7378

  Exact polarizability:  93.795  -6.738  88.722   1.599   1.895  58.501
 Approx polarizability: 108.539  -7.632 153.332   3.579   7.366  90.123

                      1                      2                      3
                      A                      A                      A
 Frequencies --     36.1581                50.7166                93.6351
 Red. masses --      3.6363                 2.3365                 4.4812
 Frc consts  --      0.0028                 0.0035                 0.0231
 IR Inten    --      3.3723                 1.5047                 0.5553

                      4                      5                      6
                      A                      A                      A
 Frequencies --    102.2055               127.9614               162.6897
 Red. masses --      2.4775                 2.0918                 3.6724
 Frc consts  --      0.0152                 0.0202                 0.0573
 IR Inten    --      0.1196                 2.0851                 2.3542

                      7                      8                      9
                      A                      A                      A
 Frequencies --    221.1461               235.9198               274.5619
 Red. masses --      4.0425                 1.2495                 5.0586
 Frc consts  --      0.1165                 0.0410                 0.2247
 IR Inten    --      1.7576                 2.5576                 2.3241

                     10                     11                     12
                      A                      A                      A
 Frequencies --    349.0267               430.5489               472.7118
 Red. masses --      4.5251                 3.3866                 3.1598
 Frc consts  --      0.3248                 0.3699                 0.4160
 IR Inten    --      4.7378                 2.6050                 4.3449

                     13                     14                     15
                      A                      A                      A
 Frequencies --    612.1992               650.2068               706.9268
 Red. masses --      6.3193                 1.2496                 1.6992
 Frc consts  --      1.3954                 0.3113                 0.5003
 IR Inten    --      8.4746                43.5191                17.6248

                     16                     17                     18
                      A                      A                      A
 Frequencies --    719.4640               747.1784               785.4699
 Red. masses --      2.7016                 1.6572                 1.7469
 Frc consts  --      0.8239                 0.5451                 0.6350
 IR Inten    --     13.5408                 6.8686                11.1077

                     19                     20                     21
                      A                      A                      A
 Frequencies --    887.6702               982.8597              1043.1394
 Red. masses --      1.4014                 4.2587                 2.9650
 Frc consts  --      0.6506                 2.4239                 1.9009
 IR Inten    --      2.2474                32.0286                 2.9583

                     22                     23                     24
                      A                      A                      A
 Frequencies --   1050.2201              1078.1730              1164.6971
 Red. masses --      2.5179                 2.3700                 4.9907
 Frc consts  --      1.6362                 1.6232                 3.9887
 IR Inten    --     53.5632                 7.1800               198.7993

                     25                     26                     27
                      A                      A                      A
 Frequencies --   1175.8193              1201.6712              1221.6311
 Red. masses --      1.3660                 2.0498                 1.5530
 Frc consts  --      1.1127                 1.7440                 1.3656
 IR Inten    --      8.5766                26.0657                29.5919

                     28                     29                     30
                      A                      A                      A
 Frequencies --   1236.9356              1273.5669              1296.2865
 Red. masses --      1.5908                 1.4895                 1.1988
 Frc consts  --      1.4340                 1.4235                 1.1868
 IR Inten    --     67.7166                16.7455                11.9905

                     31                     32                     33
                      A                      A                      A
 Frequencies --   1315.3457              1359.9219              1426.1979
 Red. masses --      1.0726                 1.4736                 1.3877
 Frc consts  --      1.0934                 1.6056                 1.6630
 IR Inten    --      4.1515                 8.7952                32.9930

                     34                     35                     36
                      A                      A                      A
 Frequencies --   1468.0387              1481.8693              1486.1128
 Red. masses --      1.0893                 1.1629                 1.0474
 Frc consts  --      1.3832                 1.5045                 1.3629
 IR Inten    --      3.0683                 0.3387                 5.0975

                     37                     38                     39
                      A                      A                      A
 Frequencies --   1497.5943              1506.4079              1532.2112
 Red. masses --      1.0803                 1.0683                 1.0967
 Frc consts  --      1.4276                 1.4284                 1.5170
 IR Inten    --      3.5509                 7.8416                 1.3442

                     40                     41                     42
                      A                      A                      A
 Frequencies --   1771.3683              2209.2518              2938.8580
 Red. masses --     11.8825                 5.9091                 1.0535
 Frc consts  --     21.9672                16.9927                 5.3611
 IR Inten    --    183.1115                58.7737                38.3589

                     43                     44                     45
                      A                      A                      A
 Frequencies --   2965.7046              2969.6818              3011.7607
 Red. masses --      1.1022                 1.0398                 1.1031
 Frc consts  --      5.7117                 5.4026                 5.8952
 IR Inten    --     55.9171                74.5164                58.0580

                     46                     47                     48
                      A                      A                      A
 Frequencies --   3024.2327              3050.0898              3087.4824
 Red. masses --      1.0627                 1.0587                 1.0999
 Frc consts  --      5.7265                 5.8030                 6.1773
 IR Inten    --      6.6310                19.6707                 2.5627

                     49                     50                     51
                      A                      A                      A
 Frequencies --   3107.0513              3115.1910              3493.8288
 Red. masses --      1.1026                 1.0957                 1.1618
 Frc consts  --      6.2716                 6.2646                 8.3561
 IR Inten    --     29.2267                29.4485                51.9673

 - Thermochemistry -
 -------------------
 Temperature   298.150 Kelvin.  Pressure   1.00000 Atm.
 Atom     1 has atomic number  6 and mass  12.00000

 Molecular mass:   126.06808 amu.
 Principal axes and moments of inertia in atomic units:
                           1         2         3
     Eigenvalues --   503.839872916.994643271.66446
           X            0.99993  -0.01143   0.00289
           Y            0.01148   0.99982  -0.01509
           Z           -0.00272   0.01512   0.99988
 This molecule is an asymmetric top.
 Rotational symmetry number  1.
 Warning -- assumption of classical behavior for rotation
           may cause significant error
 Rotational temperatures (Kelvin)      0.17191     0.02969     0.02647
 Rotational constants (GHZ):           3.58197     0.61870     0.55163
 Zero-point vibrational energy     407984.0 (Joules/Mol)
                                   97.51051 (Kcal/Mol)
 Warning -- explicit consideration of  13 degrees of freedom as
           vibrations may cause significant error
 Vibrational temperatures:     52.02    72.97   134.72   147.05   184.11
          (Kelvin)            234.07   318.18   339.44   395.03   502.17
                              619.46   680.13   880.82   935.50  1017.11
                             1035.15  1075.02  1130.11  1277.16  1414.11
                             1500.84  1511.03  1551.25  1675.74  1691.74
                             1728.93  1757.65  1779.67  1832.38  1865.06
                             1892.49  1956.62  2051.98  2112.18  2132.08
                             2138.18  2154.70  2167.38  2204.51  2548.60
                             3178.62  4228.36  4266.98  4272.70  4333.25
                             4351.19  4388.39  4442.19  4470.35  4482.06
                             5026.83

 Zero-point correction=                           0.155393 (Hartree/Particle)
 Thermal correction to Energy=                    0.166111
 Thermal correction to Enthalpy=                  0.167056
 Thermal correction to Gibbs Free Energy=         0.117670
 Sum of electronic and zero-point Energies=           -422.992835
 Sum of electronic and thermal Energies=              -422.982116
 Sum of electronic and thermal Enthalpies=            -422.981172
 Sum of electronic and thermal Free Energies=         -423.030557

                     E (Thermal)             CV                S
                      KCal/Mol        Cal/Mol-Kelvin    Cal/Mol-Kelvin
 Total                  104.237             36.262            103.940
 Electronic               0.000              0.000              0.000
 Translational            0.889              2.981             40.409
 Rotational               0.889              2.981             29.954
 Vibrational            102.459             30.300             33.577
 Vibration     1          0.594              1.982              5.459
 Vibration     2          0.595              1.977              4.789
 Vibration     3          0.603              1.954              3.583
 Vibration     4          0.604              1.947              3.412
 Vibration     5          0.611              1.925              2.976
 Vibration     6          0.623              1.888              2.518
 Vibration     7          0.648              1.809              1.950
 Vibration     8          0.655              1.786              1.833
 Vibration     9          0.677              1.720              1.567
 Vibration    10          0.726              1.577              1.171
 Vibration    11          0.792              1.404              0.857
 Vibration    12          0.830              1.311              0.730
 Vibration    13          0.971              1.006              0.429

 Optimization completed.
    -- Stationary point found.
 Normal termination of Gaussian 09 at Tue Jan 28 15:01:34 2020.
