 Gaussian 09, Revision D.01,
 Gaussian 09:  ES64L-G09RevD.01 24-Apr-2013

 -----------------------------
 # b3lyp 6-31G(2df,p) opt Freq
 -----------------------------

 -----
 titel
 -----
 Symbolic Z-matrix:
 Charge =  0 Multiplicity = 1

 SCF Done:  E(RB3LYP) =  -423.184221499     A.U. after   14 cycles
 Optimization completed.
    -- Stationary point found.
 Normal termination of Gaussian 09 at Mon Jan 27 13:34:48 2020.

 ----------------------------------------------------------------------
 #N Geom=AllCheck Guess=TCheck SCRF=Check GenChk RB3LYP/6-31G(2df,p) Fr
 eq
 ----------------------------------------------------------------------

 Structure from the checkpoint file:  "/scratch/puck/g09_8304720d-44da-4596-a628-66ede0c5739c/Gau-76466.chk"
 -----
 titel
 -----
 Charge =  0 Multiplicity = 1

                         Standard orientation:
 ---------------------------------------------------------------------
 Center     Atomic      Atomic             Coordinates (Angstroms)
 Number     Number       Type             X           Y           Z
 ---------------------------------------------------------------------
      1          8           0        2.298648   -1.912224   -0.041102
      2          6           0        1.969560   -0.764623   -0.186754
      3          6           0        1.044252   -0.002662    0.745863
      4          6           0        0.000098    0.818714    0.000031
      5          6           0       -1.044264   -0.002414   -0.745795
      6          6           0       -1.969705   -0.764237    0.186796
      7          8           0       -2.299126   -1.911730    0.041029
      8          6           0        0.442874    2.131566   -0.609881
      9          6           0       -0.442369    2.131725    0.609816
     10          1           0        2.350223   -0.160841   -1.043371
     11          1           0        0.592633   -0.717308    1.441908
     12          1           0        1.678927    0.674158    1.335136
     13          1           0       -1.678829    0.674579   -1.334992
     14          1           0       -0.592839   -0.717104   -1.441919
     15          1           0       -2.350120   -0.160466    1.043531
     16          1           0        1.478543    2.429653   -0.486437
     17          1           0        0.010347    2.425157   -1.560066
     18          1           0       -0.009760    2.425351    1.559956
     19          1           0       -1.477979    2.430027    0.486378
 ---------------------------------------------------------------------

 SCF Done:  E(RB3LYP) =  -423.184221499     A.U. after    1 cycles

 The electronic state is 1-A.
 Alpha  occ. eigenvalues --  -19.14459 -19.14459 -10.27646 -10.27646 -10.22690
 Alpha  occ. eigenvalues --  -10.20645 -10.20645 -10.20569 -10.20544  -1.05173
 Alpha  occ. eigenvalues --   -1.05130  -0.89230  -0.77041  -0.75074  -0.62691
 Alpha  occ. eigenvalues --   -0.60174  -0.58706  -0.55893  -0.51719  -0.49560
 Alpha  occ. eigenvalues --   -0.47202  -0.45492  -0.45010  -0.43545  -0.41651
 Alpha  occ. eigenvalues --   -0.41403  -0.39465  -0.38396  -0.37408  -0.35128
 Alpha  occ. eigenvalues --   -0.31799  -0.30895  -0.25337  -0.25245
 Alpha virt. eigenvalues --   -0.03205  -0.02502   0.07303   0.09032   0.09540
 Alpha virt. eigenvalues --    0.11459   0.12992   0.13387   0.14315   0.14716
 Alpha virt. eigenvalues --    0.15482   0.17759   0.19012   0.20808   0.22457

 Mulliken charges:
               1
     1  O   -0.232596
     2  C    0.165399
     3  C   -0.359033
     4  C    0.340036
     5  C   -0.359021
     6  C    0.165396
     7  O   -0.232599
     8  C   -0.314100
     9  C   -0.314109
    10  H    0.077675
    11  H    0.130918
    12  H    0.122512
    13  H    0.122514
    14  H    0.130919
    15  H    0.077674
    16  H    0.118827
    17  H    0.120379
    18  H    0.120379
    19  H    0.118828
 Sum of Mulliken charges =   0.00000

 Dipole moment (field-independent basis, Debye):
    X=              0.0007    Y=              4.8280    Z=              0.0002  Tot=              4.8280
 Quadrupole moment (field-independent basis, Debye-Ang):
   XX=            -58.0432   YY=            -63.6398   ZZ=            -51.0263
   XY=             -0.0008   XZ=              0.8718   YZ=             -0.0003

  Exact polarizability:  74.541   0.002  87.257  -3.928   0.001  67.038
 Approx polarizability: 101.481   0.005 134.555  -5.260   0.002 101.405

                      1                      2                      3
                      A                      A                      A
 Frequencies --     44.0502                55.2184                65.6520
 Red. masses --     11.6329                 4.0205                 2.7392
 Frc consts  --      0.0133                 0.0072                 0.0070
 IR Inten    --      0.6942                12.3698                 0.0696

                      4                      5                      6
                      A                      A                      A
 Frequencies --    115.0058               191.2266               209.0996
 Red. masses --      2.8313                 2.3753                 2.4511
 Frc consts  --      0.0221                 0.0512                 0.0631
 IR Inten    --      2.9966                 1.5620                 0.7166

                      7                      8                      9
                      A                      A                      A
 Frequencies --    305.3155               331.1513               369.8294
 Red. masses --      3.3393                 1.9412                 2.9636
 Frc consts  --      0.1834                 0.1254                 0.2388
 IR Inten    --      2.6887                 0.0626                 0.0367

                     10                     11                     12
                      A                      A                      A
 Frequencies --    457.1430               493.1671               519.8477
 Red. masses --      3.6404                 3.0822                 2.3079
 Frc consts  --      0.4482                 0.4417                 0.3675
 IR Inten    --      2.9886                31.5682                 0.1439

                     13                     14                     15
                      A                      A                      A
 Frequencies --    714.2869               762.9271               804.8018
 Red. masses --      2.0856                 1.2474                 1.2137
 Frc consts  --      0.6270                 0.4278                 0.4632
 IR Inten    --      0.0961                 1.5290                 0.7943

                     16                     17                     18
                      A                      A                      A
 Frequencies --    806.9199               892.0898               929.5739
 Red. masses --      2.1108                 3.8353                 1.2811
 Frc consts  --      0.8098                 1.7983                 0.6522
 IR Inten    --      8.0637                 0.3280                 1.5347

                     19                     20                     21
                      A                      A                      A
 Frequencies --    970.1169               976.5755              1000.7241
 Red. masses --      1.9021                 2.3626                 1.5177
 Frc consts  --      1.0547                 1.3276                 0.8955
 IR Inten    --      0.4098                 5.4152                 0.3715

                     22                     23                     24
                      A                      A                      A
 Frequencies --   1050.5678              1068.6852              1076.7809
 Red. masses --      1.3472                 2.2648                 2.1560
 Frc consts  --      0.8760                 1.5240                 1.4728
 IR Inten    --      0.3950                17.6494                28.0811

                     25                     26                     27
                      A                      A                      A
 Frequencies --   1084.3552              1092.3332              1189.4128
 Red. masses --      2.3859                 1.8803                 1.2940
 Frc consts  --      1.6529                 1.3219                 1.0786
 IR Inten    --      0.1166                31.5080                 0.0095

                     28                     29                     30
                      A                      A                      A
 Frequencies --   1199.7365              1204.6659              1290.1405
 Red. masses --      1.4412                 1.4237                 1.3926
 Frc consts  --      1.2222                 1.2173                 1.3657
 IR Inten    --      7.0086                 3.4608                 3.5371

                     31                     32                     33
                      A                      A                      A
 Frequencies --   1294.2894              1338.6682              1366.9521
 Red. masses --      1.4534                 2.4568                 2.3227
 Frc consts  --      1.4345                 2.5940                 2.5571
 IR Inten    --      0.7438                 0.8548                 3.5166

                     34                     35                     36
                      A                      A                      A
 Frequencies --   1427.5692              1428.8754              1452.3912
 Red. masses --      1.1834                 1.1858                 1.1097
 Frc consts  --      1.4209                 1.4265                 1.3791
 IR Inten    --      0.3141                11.3255                 0.1851

                     37                     38                     39
                      A                      A                      A
 Frequencies --   1453.1220              1474.7567              1506.5257
 Red. masses --      1.0915                 1.0866                 1.3223
 Frc consts  --      1.3580                 1.3923                 1.7682
 IR Inten    --     14.7665                 0.9254                 3.8564

                     40                     41                     42
                      A                      A                      A
 Frequencies --   1835.0884              1840.4121              2862.0409
 Red. masses --     10.2996                10.2018                 1.0821
 Frc consts  --     20.4355                20.3591                 5.2223
 IR Inten    --     60.3786               262.9278                31.1209

                     43                     44                     45
                      A                      A                      A
 Frequencies --   2862.8943              3016.0499              3018.3962
 Red. masses --      1.0817                 1.0629                 1.0636
 Frc consts  --      5.2237                 5.6967                 5.7094
 IR Inten    --    145.4641                17.1275                 0.0135

                     46                     47                     48
                      A                      A                      A
 Frequencies --   3084.0003              3084.9296              3132.3207
 Red. masses --      1.0977                 1.0978                 1.0508
 Frc consts  --      6.1514                 6.1557                 6.0742
 IR Inten    --     11.9675                13.3038                14.2866

                     49                     50                     51
                      A                      A                      A
 Frequencies --   3136.2055              3210.1725              3223.5067
 Red. masses --      1.0592                 1.1179                 1.1157
 Frc consts  --      6.1380                 6.7875                 6.8308
 IR Inten    --      6.3256                 0.0874                14.8926

 - Thermochemistry -
 -------------------
 Temperature   298.150 Kelvin.  Pressure   1.00000 Atm.
 Atom     1 has atomic number  8 and mass  15.99491

 Molecular mass:   126.06808 amu.
 Principal axes and moments of inertia in atomic units:
                           1         2         3
     Eigenvalues --  1113.037851262.363922100.23258
           X            1.00000   0.00002  -0.00066
           Y           -0.00002   1.00000   0.00000
           Z            0.00066   0.00000   1.00000
 This molecule is an asymmetric top.
 Rotational symmetry number  1.
 Warning -- assumption of classical behavior for rotation
           may cause significant error
 Rotational temperatures (Kelvin)      0.07782     0.06861     0.04124
 Rotational constants (GHZ):           1.62146     1.42965     0.85931
 Zero-point vibrational energy     408647.7 (Joules/Mol)
                                   97.66915 (Kcal/Mol)
 Warning -- explicit consideration of  12 degrees of freedom as
           vibrations may cause significant error
 Vibrational temperatures:     63.38    79.45    94.46   165.47   275.13
          (Kelvin)            300.85   439.28   476.45   532.10   657.73
                              709.56   747.94  1027.70  1097.68  1157.93
                             1160.98  1283.52  1337.45  1395.78  1405.07
                             1439.82  1511.53  1537.60  1549.25  1560.14
                             1571.62  1711.30  1726.15  1733.24  1856.22
                             1862.19  1926.04  1966.74  2053.95  2055.83
                             2089.66  2090.72  2121.84  2167.55  2640.28
                             2647.94  4117.83  4119.06  4339.42  4342.79
                             4437.18  4438.52  4506.71  4512.29  4618.72
                             4637.90

 Zero-point correction=                           0.155646 (Hartree/Particle)
 Thermal correction to Energy=                    0.165453
 Thermal correction to Enthalpy=                  0.166397
 Thermal correction to Gibbs Free Energy=         0.119242
 Sum of electronic and zero-point Energies=           -423.028576
 Sum of electronic and thermal Energies=              -423.018769
 Sum of electronic and thermal Enthalpies=            -423.017824
 Sum of electronic and thermal Free Energies=         -423.064979

                     E (Thermal)             CV                S
                      KCal/Mol        Cal/Mol-Kelvin    Cal/Mol-Kelvin
 Total                  103.823             34.346             99.246
 Electronic               0.000              0.000              0.000
 Translational            0.889              2.981             40.409
 Rotational               0.889              2.981             29.469
 Vibrational            102.046             28.385             29.369
 Vibration     1          0.595              1.980              5.068
 Vibration     2          0.596              1.975              4.621
 Vibration     3          0.597              1.971              4.280
 Vibration     4          0.608              1.937              3.183
 Vibration     5          0.634              1.852              2.216
 Vibration     6          0.642              1.827              2.052
 Vibration     7          0.696              1.664              1.388
 Vibration     8          0.714              1.613              1.254
 Vibration     9          0.742              1.534              1.081
 Vibration    10          0.815              1.345              0.774
 Vibration    11          0.849              1.265              0.675
 Vibration    12          0.875              1.206              0.610

 Optimization completed.
    -- Stationary point found.
 Normal termination of Gaussian 09 at Mon Jan 27 14:13:05 2020.
