 Gaussian 09, Revision D.01,
 Gaussian 09:  ES64L-G09RevD.01 24-Apr-2013

 -----------------------------
 # b3lyp 6-31G(2df,p) opt Freq
 -----------------------------

 -----
 titel
 -----
 Symbolic Z-matrix:
 Charge =  0 Multiplicity = 1

 SCF Done:  E(RB3LYP) =  -423.224888834     A.U. after   14 cycles
 Optimization completed.
    -- Stationary point found.
 Normal termination of Gaussian 09 at Mon Jan 27 16:22:39 2020.

 ----------------------------------------------------------------------
 #N Geom=AllCheck Guess=TCheck SCRF=Check GenChk RB3LYP/6-31G(2df,p) Fr
 eq
 ----------------------------------------------------------------------

 Structure from the checkpoint file:  "/scratch/puck/g09_47c3606c-b434-4928-a2ca-37c4c9252d4d/Gau-176967.chk"
 -----
 titel
 -----
 Charge =  0 Multiplicity = 1

                         Standard orientation:
 ---------------------------------------------------------------------
 Center     Atomic      Atomic             Coordinates (Angstroms)
 Number     Number       Type             X           Y           Z
 ---------------------------------------------------------------------
      1          6           0       -2.447859    0.278064   -0.822810
      2          6           0       -1.183538    0.023966    0.006646
      3          8           0       -1.541688   -0.255792    1.370176
      4          6           0       -0.357538   -1.134667   -0.582448
      5          6           0        1.015301   -1.244418    0.088005
      6          6           0        1.798516    0.054891   -0.022429
      7          8           0        3.008274    0.088845   -0.119037
      8          6           0        0.989277    1.296306    0.042746
      9          6           0       -0.346192    1.285646    0.081702
     10          1           0       -3.055323    1.059141   -0.356445
     11          1           0       -2.201416    0.588697   -1.842640
     12          1           0       -3.051476   -0.635253   -0.889905
     13          1           0       -2.226724   -0.934226    1.357064
     14          1           0       -0.920058   -2.068664   -0.464529
     15          1           0       -0.234181   -0.973923   -1.660288
     16          1           0        0.872394   -1.443424    1.157952
     17          1           0        1.620572   -2.054881   -0.324189
     18          1           0        1.554847    2.222639    0.080324
     19          1           0       -0.899119    2.216740    0.185069
 ---------------------------------------------------------------------

 SCF Done:  E(RB3LYP) =  -423.224888834     A.U. after    1 cycles

 The electronic state is 1-A.
 Alpha  occ. eigenvalues --  -19.14631 -19.11993 -10.26103 -10.25523 -10.20765
 Alpha  occ. eigenvalues --  -10.19375 -10.19310 -10.19087 -10.18609  -1.03023
 Alpha  occ. eigenvalues --   -1.02785  -0.83617  -0.76227  -0.75661  -0.67130
 Alpha  occ. eigenvalues --   -0.63022  -0.58826  -0.52176  -0.48845  -0.48323
 Alpha  occ. eigenvalues --   -0.46009  -0.45194  -0.43638  -0.41333  -0.40809
 Alpha  occ. eigenvalues --   -0.40192  -0.38932  -0.36073  -0.35655  -0.34717
 Alpha  occ. eigenvalues --   -0.32554  -0.28157  -0.27676  -0.23747
 Alpha virt. eigenvalues --   -0.05238   0.05843   0.06300   0.10644   0.11905
 Alpha virt. eigenvalues --    0.12037   0.14068   0.15512   0.16430   0.17216
 Alpha virt. eigenvalues --    0.17622   0.18828   0.19149   0.21932   0.23178

 Mulliken charges:
               1
     1  C   -0.449812
     2  C    0.316978
     3  O   -0.466849
     4  C   -0.245635
     5  C   -0.327007
     6  C    0.382730
     7  O   -0.330176
     8  C   -0.170362
     9  C   -0.024019
    10  H    0.127293
    11  H    0.128231
    12  H    0.111098
    13  H    0.278890
    14  H    0.090458
    15  H    0.106803
    16  H    0.138697
    17  H    0.116844
    18  H    0.109497
    19  H    0.106342
 Sum of Mulliken charges =   0.00000

 Dipole moment (field-independent basis, Debye):
    X=             -4.0594    Y=             -0.6614    Z=             -0.8402  Tot=              4.1979
 Quadrupole moment (field-independent basis, Debye-Ang):
   XX=            -61.0649   YY=            -48.6093   ZZ=            -54.8713
   XY=              1.6156   XZ=              1.1641   YZ=             -0.9950

  Exact polarizability: 102.667  -0.550  75.503  -0.437   0.066  57.766
 Approx polarizability: 159.789  -2.409 106.850  -5.526  -0.290  90.760

                      1                      2                      3
                      A                      A                      A
 Frequencies --     72.6173               186.0584               213.4097
 Red. masses --      5.1785                 2.9180                 2.7032
 Frc consts  --      0.0161                 0.0595                 0.0725
 IR Inten    --      2.1669                 2.2027                 1.6954

                      4                      5                      6
                      A                      A                      A
 Frequencies --    252.7964               288.8722               310.1667
 Red. masses --      1.1142                 1.0809                 2.8499
 Frc consts  --      0.0420                 0.0531                 0.1615
 IR Inten    --      0.5327                91.3903                 1.0899

                      7                      8                      9
                      A                      A                      A
 Frequencies --    330.5388               393.9076               424.3751
 Red. masses --      3.4124                 2.4369                 2.4668
 Frc consts  --      0.2197                 0.2228                 0.2618
 IR Inten    --      8.7173                 5.7029                12.6787

                     10                     11                     12
                      A                      A                      A
 Frequencies --    471.1920               483.0713               533.2071
 Red. masses --      3.2303                 3.9960                 3.3096
 Frc consts  --      0.4226                 0.5494                 0.5544
 IR Inten    --      6.1265                 3.2103                 5.6913

                     13                     14                     15
                      A                      A                      A
 Frequencies --    637.3776               711.6040               724.1273
 Red. masses --      3.2002                 3.6371                 3.0188
 Frc consts  --      0.7660                 1.0851                 0.9326
 IR Inten    --      2.4827                 2.4097                 0.9475

                     16                     17                     18
                      A                      A                      A
 Frequencies --    757.8599               835.4496               917.3189
 Red. masses --      2.5480                 1.7058                 2.3199
 Frc consts  --      0.8622                 0.7015                 1.1502
 IR Inten    --      4.5139                 6.9559                25.3772

                     19                     20                     21
                      A                      A                      A
 Frequencies --    927.3885               954.6369               994.1021
 Red. masses --      1.7503                 2.4265                 1.6997
 Frc consts  --      0.8869                 1.3029                 0.9896
 IR Inten    --      8.7439                16.8815                 4.0039

                     22                     23                     24
                      A                      A                      A
 Frequencies --   1028.8865              1034.3712              1097.5742
 Red. masses --      1.3470                 1.8098                 1.9188
 Frc consts  --      0.8402                 1.1409                 1.3619
 IR Inten    --      0.7192                 8.0193                28.6340

                     25                     26                     27
                      A                      A                      A
 Frequencies --   1119.2409              1131.5086              1205.7715
 Red. masses --      1.8976                 1.5690                 1.5725
 Frc consts  --      1.4006                 1.1836                 1.3470
 IR Inten    --     24.8884                35.0249                49.8654

                     28                     29                     30
                      A                      A                      A
 Frequencies --   1213.5919              1247.5340              1267.5959
 Red. masses --      1.7326                 1.7030                 1.6426
 Frc consts  --      1.5035                 1.5616                 1.5551
 IR Inten    --     19.4822                 5.5427                30.2981

                     31                     32                     33
                      A                      A                      A
 Frequencies --   1342.0992              1371.5179              1376.1265
 Red. masses --      1.5091                 1.6367                 1.6497
 Frc consts  --      1.6016                 1.8140                 1.8406
 IR Inten    --      8.1135                 6.2918                24.4155

                     34                     35                     36
                      A                      A                      A
 Frequencies --   1402.8851              1416.7608              1457.3266
 Red. masses --      1.3449                 1.5591                 1.0851
 Frc consts  --      1.5595                 1.8438                 1.3578
 IR Inten    --     18.3231                 8.8463                 6.6589

                     37                     38                     39
                      A                      A                      A
 Frequencies --   1482.1035              1491.7434              1495.3079
 Red. masses --      1.0914                 1.0537                 1.0911
 Frc consts  --      1.4125                 1.3815                 1.4374
 IR Inten    --      0.9546                 3.3330                 6.5609

                     40                     41                     42
                      A                      A                      A
 Frequencies --   1691.9140              1784.5746              3023.6646
 Red. masses --      7.5564                11.4482                 1.0487
 Frc consts  --     12.7445                21.4811                 5.6488
 IR Inten    --      3.9364               222.1981                 5.4397

                     43                     44                     45
                      A                      A                      A
 Frequencies --   3029.4960              3037.5609              3067.3701
 Red. masses --      1.0483                 1.0662                 1.1012
 Frc consts  --      5.6685                 5.7964                 6.1044
 IR Inten    --     41.2912                 6.8015                22.0147

                     46                     47                     48
                      A                      A                      A
 Frequencies --   3096.3730              3110.4589              3117.7757
 Red. masses --      1.0982                 1.0975                 1.1025
 Frc consts  --      6.2033                 6.2561                 6.3140
 IR Inten    --     25.2964                12.2210                19.3172

                     49                     50                     51
                      A                      A                      A
 Frequencies --   3151.5514              3184.9643              3791.9879
 Red. masses --      1.0864                 1.0958                 1.0659
 Frc consts  --      6.3575                 6.5494                 9.0298
 IR Inten    --      9.6421                11.0845                12.1365

 - Thermochemistry -
 -------------------
 Temperature   298.150 Kelvin.  Pressure   1.00000 Atm.
 Atom     1 has atomic number  6 and mass  12.00000

 Molecular mass:   126.06808 amu.
 Principal axes and moments of inertia in atomic units:
                           1         2         3
     Eigenvalues --   548.616231522.551131691.42221
           X            0.99980  -0.00499   0.01944
           Y            0.00498   0.99999   0.00025
           Z           -0.01945  -0.00016   0.99981
 This molecule is an asymmetric top.
 Rotational symmetry number  1.
 Warning -- assumption of classical behavior for rotation
           may cause significant error
 Rotational temperatures (Kelvin)      0.15788     0.05689     0.05121
 Rotational constants (GHZ):           3.28962     1.18534     1.06700
 Zero-point vibrational energy     416837.1 (Joules/Mol)
                                   99.62645 (Kcal/Mol)
 Warning -- explicit consideration of  12 degrees of freedom as
           vibrations may cause significant error
 Vibrational temperatures:    104.48   267.70   307.05   363.72   415.62
          (Kelvin)            446.26   475.57   566.74   610.58   677.94
                              695.03   767.17   917.04  1023.84  1041.86
                             1090.39  1202.02  1319.82  1334.30  1373.51
                             1430.29  1480.34  1488.23  1579.16  1610.34
                             1627.99  1734.83  1746.09  1794.92  1823.79
                             1930.98  1973.31  1979.94  2018.44  2038.40
                             2096.77  2132.41  2146.28  2151.41  2434.28
                             2567.60  4350.37  4358.76  4370.37  4413.26
                             4454.98  4475.25  4485.78  4534.37  4582.45
                             5455.82

 Zero-point correction=                           0.158765 (Hartree/Particle)
 Thermal correction to Energy=                    0.167455
 Thermal correction to Enthalpy=                  0.168399
 Thermal correction to Gibbs Free Energy=         0.125785
 Sum of electronic and zero-point Energies=           -423.066124
 Sum of electronic and thermal Energies=              -423.057434
 Sum of electronic and thermal Enthalpies=            -423.056490
 Sum of electronic and thermal Free Energies=         -423.099104

                     E (Thermal)             CV                S
                      KCal/Mol        Cal/Mol-Kelvin    Cal/Mol-Kelvin
 Total                  105.079             33.799             89.688
 Electronic               0.000              0.000              0.000
 Translational            0.889              2.981             40.409
 Rotational               0.889              2.981             28.737
 Vibrational            103.302             27.838             20.543
 Vibration     1          0.599              1.967              4.081
 Vibration     2          0.632              1.859              2.267
 Vibration     3          0.644              1.821              2.014
 Vibration     4          0.664              1.758              1.711
 Vibration     5          0.685              1.694              1.481
 Vibration     6          0.699              1.654              1.361
 Vibration     7          0.713              1.615              1.257
 Vibration     8          0.761              1.483              0.985
 Vibration     9          0.786              1.417              0.877
 Vibration    10          0.828              1.314              0.734
 Vibration    11          0.839              1.288              0.702
 Vibration    12          0.888              1.177              0.580

 Optimization completed.
    -- Stationary point found.
 Normal termination of Gaussian 09 at Mon Jan 27 17:06:17 2020.
