 Gaussian 09, Revision D.01,
 Gaussian 09:  ES64L-G09RevD.01 24-Apr-2013

 -----------------------------
 # b3lyp 6-31G(2df,p) opt Freq
 -----------------------------

 -----
 titel
 -----
 Symbolic Z-matrix:
 Charge =  0 Multiplicity = 1

 SCF Done:  E(RB3LYP) =  -423.147235623     A.U. after   14 cycles
 Optimization completed.
    -- Stationary point found.
 Normal termination of Gaussian 09 at Tue Jan 28 08:16:23 2020.

 ----------------------------------------------------------------------
 #N Geom=AllCheck Guess=TCheck SCRF=Check GenChk RB3LYP/6-31G(2df,p) Fr
 eq
 ----------------------------------------------------------------------

 Structure from the checkpoint file:  "/scratch/puck/g09_784c641a-82bc-484b-b688-d32821d2ce98/Gau-79846.chk"
 -----
 titel
 -----
 Charge =  0 Multiplicity = 1

                         Standard orientation:
 ---------------------------------------------------------------------
 Center     Atomic      Atomic             Coordinates (Angstroms)
 Number     Number       Type             X           Y           Z
 ---------------------------------------------------------------------
      1          6           0       -3.940682   -0.137336    0.647678
      2          6           0       -3.056228   -0.068758   -0.610780
      3          6           0       -1.629482   -0.084826   -0.309959
      4          6           0       -0.458377   -0.120555   -0.028631
      5          6           0        0.965959   -0.071573    0.270258
      6          8           0        1.615126   -1.196913   -0.301154
      7          6           0        2.928064   -1.391089    0.196093
      8          6           0        1.537623    1.219207   -0.350626
      9          8           0        1.943361    2.156986    0.279626
     10          1           0       -3.745385   -1.054166    1.210050
     11          1           0       -3.744665    0.712288    1.306977
     12          1           0       -4.998151   -0.121221    0.368651
     13          1           0       -3.289301   -0.911548   -1.273768
     14          1           0       -3.294241    0.838049   -1.181281
     15          1           0        1.136742   -0.023472    1.356993
     16          1           0        3.323695   -2.277561   -0.303424
     17          1           0        3.588891   -0.538592   -0.016762
     18          1           0        2.923980   -1.561366    1.282795
     19          1           0        1.549279    1.186587   -1.462208
 ---------------------------------------------------------------------

 SCF Done:  E(RB3LYP) =  -423.147235623     A.U. after    1 cycles

 The electronic state is 1-A.
 Alpha  occ. eigenvalues --  -19.15724 -19.14915 -10.27577 -10.26349 -10.23398
 Alpha  occ. eigenvalues --  -10.21510 -10.18918 -10.18817 -10.18048  -1.05993
 Alpha  occ. eigenvalues --   -1.04406  -0.80845  -0.78158  -0.71382  -0.67366
 Alpha  occ. eigenvalues --   -0.64233  -0.59449  -0.52579  -0.50735  -0.47762
 Alpha  occ. eigenvalues --   -0.47609  -0.46223  -0.44435  -0.43014  -0.41190
 Alpha  occ. eigenvalues --   -0.40295  -0.38459  -0.37582  -0.36864  -0.33939
 Alpha  occ. eigenvalues --   -0.29477  -0.27386  -0.26699  -0.24011
 Alpha virt. eigenvalues --   -0.03648   0.03304   0.05948   0.09894   0.10705
 Alpha virt. eigenvalues --    0.13247   0.14282   0.14670   0.15059   0.15538
 Alpha virt. eigenvalues --    0.16562   0.16804   0.16949   0.19689   0.20312

 Mulliken charges:
               1
     1  C   -0.367076
     2  C   -0.320176
     3  C    0.172956
     4  C   -0.026796
     5  C   -0.121760
     6  O   -0.242170
     7  C   -0.239386
     8  C    0.146905
     9  O   -0.235457
    10  H    0.132045
    11  H    0.132194
    12  H    0.118533
    13  H    0.138069
    14  H    0.135533
    15  H    0.107882
    16  H    0.136237
    17  H    0.120587
    18  H    0.116474
    19  H    0.095407
 Sum of Mulliken charges =   0.00000

 Dipole moment (field-independent basis, Debye):
    X=             -1.1938    Y=             -1.4393    Z=             -0.2334  Tot=              1.8844
 Quadrupole moment (field-independent basis, Debye-Ang):
   XX=            -43.5373   YY=            -59.2565   ZZ=            -52.5277
   XY=             -5.7684   XZ=              0.9603   YZ=             -2.7625

  Exact polarizability: 118.026   0.718  69.957   5.148   0.383  65.248
 Approx polarizability: 154.270   4.762 102.654  15.030   6.075  97.980

                      1                      2                      3
                      A                      A                      A
 Frequencies --     22.2581                50.6328                73.8069
 Red. masses --      2.5601                 5.2315                 3.0174
 Frc consts  --      0.0007                 0.0079                 0.0097
 IR Inten    --      0.1283                 4.3760                 2.3441

                      4                      5                      6
                      A                      A                      A
 Frequencies --     92.2833               117.2668               181.3032
 Red. masses --      3.1815                 2.3345                 2.4996
 Frc consts  --      0.0160                 0.0189                 0.0484
 IR Inten    --      5.3431                 1.1269                 0.5136

                      7                      8                      9
                      A                      A                      A
 Frequencies --    191.6091               214.7353               315.2110
 Red. masses --      1.3929                 1.3375                 2.4795
 Frc consts  --      0.0301                 0.0363                 0.1452
 IR Inten    --      0.8986                 0.7947                 0.9693

                     10                     11                     12
                      A                      A                      A
 Frequencies --    317.3982               354.6753               453.2533
 Red. masses --      2.9966                 3.4603                 3.9891
 Frc consts  --      0.1779                 0.2565                 0.4828
 IR Inten    --      4.0583                19.5152                17.3505

                     13                     14                     15
                      A                      A                      A
 Frequencies --    492.0506               501.3606               533.1734
 Red. masses --      6.4606                 5.4815                 4.6279
 Frc consts  --      0.9216                 0.8118                 0.7751
 IR Inten    --      7.3603                 0.7747                 0.2384

                     16                     17                     18
                      A                      A                      A
 Frequencies --    784.3537               785.8110               952.7386
 Red. masses --      1.3280                 2.5327                 2.4376
 Frc consts  --      0.4814                 0.9214                 1.3037
 IR Inten    --      1.8356                 1.6726                 4.9850

                     19                     20                     21
                      A                      A                      A
 Frequencies --    974.0934              1024.4181              1040.2641
 Red. masses --      3.3052                 2.2083                 5.5836
 Frc consts  --      1.8477                 1.3654                 3.5600
 IR Inten    --     18.1867                 5.2363                10.4771

                     22                     23                     24
                      A                      A                      A
 Frequencies --   1080.1642              1104.1378              1119.3623
 Red. masses --      1.9026                 1.4797                 6.0854
 Frc consts  --      1.3079                 1.0628                 4.4924
 IR Inten    --      6.5069                 0.3211               159.1755

                     25                     26                     27
                      A                      A                      A
 Frequencies --   1172.7125              1182.9178              1217.5608
 Red. masses --      2.0809                 1.4134                 1.4659
 Frc consts  --      1.6861                 1.1652                 1.2803
 IR Inten    --     25.1659                10.6635                20.7149

                     28                     29                     30
                      A                      A                      A
 Frequencies --   1266.7720              1285.9584              1345.9545
 Red. masses --      1.3743                 1.1488                 1.3522
 Frc consts  --      1.2994                 1.1193                 1.4433
 IR Inten    --      9.1055                 0.0499                 2.5580

                     31                     32                     33
                      A                      A                      A
 Frequencies --   1355.8687              1396.5011              1410.8376
 Red. masses --      1.5567                 1.1882                 1.2102
 Frc consts  --      1.6861                 1.3653                 1.4193
 IR Inten    --     79.7100                 3.8584                 1.1057

                     34                     35                     36
                      A                      A                      A
 Frequencies --   1471.3167              1477.7812              1489.2523
 Red. masses --      1.0738                 1.1194                 1.0595
 Frc consts  --      1.3695                 1.4404                 1.3845
 IR Inten    --      3.1676                 1.2936                 4.4492

                     37                     38                     39
                      A                      A                      A
 Frequencies --   1495.3730              1505.2613              1508.5010
 Red. masses --      1.0393                 1.0557                 1.0637
 Frc consts  --      1.3693                 1.4094                 1.4261
 IR Inten    --      5.1309                 1.4916                 9.2792

                     40                     41                     42
                      A                      A                      A
 Frequencies --   1837.4460              2361.2766              2899.2670
 Red. masses --     10.3967                11.9040                 1.0849
 Frc consts  --     20.6812                39.1053                 5.3729
 IR Inten    --    176.5775                34.4967                74.4240

                     43                     44                     45
                      A                      A                      A
 Frequencies --   2985.8374              2991.5952              3024.3617
 Red. masses --      1.0498                 1.0675                 1.0590
 Frc consts  --      5.5145                 5.6287                 5.7069
 IR Inten    --     24.8441                53.2531                18.2146

                     46                     47                     48
                      A                      A                      A
 Frequencies --   3039.3914              3047.1949              3052.8628
 Red. masses --      1.1038                 1.0343                 1.1009
 Frc consts  --      6.0077                 5.6584                 6.0451
 IR Inten    --     44.4040                28.0162                 6.7617

                     49                     50                     51
                      A                      A                      A
 Frequencies --   3121.4466              3127.2223              3128.3806
 Red. masses --      1.1023                 1.1030                 1.0975
 Frc consts  --      6.3277                 6.3557                 6.3286
 IR Inten    --     26.9822                21.1990                22.0250

 - Thermochemistry -
 -------------------
 Temperature   298.150 Kelvin.  Pressure   1.00000 Atm.
 Atom     1 has atomic number  6 and mass  12.00000

 Molecular mass:   126.06808 amu.
 Principal axes and moments of inertia in atomic units:
                           1         2         3
     Eigenvalues --   641.378522561.218953001.02598
           X            0.99983  -0.01838  -0.00155
           Y            0.01833   0.99948  -0.02660
           Z            0.00203   0.02657   0.99964
 This molecule is an asymmetric top.
 Rotational symmetry number  1.
 Warning -- assumption of classical behavior for rotation
           may cause significant error
 Rotational temperatures (Kelvin)      0.13504     0.03382     0.02886
 Rotational constants (GHZ):           2.81385     0.70464     0.60137
 Zero-point vibrational energy     406582.1 (Joules/Mol)
                                   97.17544 (Kcal/Mol)
 Warning -- explicit consideration of  15 degrees of freedom as
           vibrations may cause significant error
 Vibrational temperatures:     32.02    72.85   106.19   132.77   168.72
          (Kelvin)            260.85   275.68   308.96   453.52   456.66
                              510.30   652.13   707.95   721.35   767.12
                             1128.51  1130.61  1370.78  1401.50  1473.91
                             1496.71  1554.11  1588.61  1610.51  1687.27
                             1701.95  1751.80  1822.60  1850.21  1936.53
                             1950.79  2009.25  2029.88  2116.89  2126.19
                             2142.70  2151.51  2165.73  2170.39  2643.67
                             3397.35  4171.39  4295.95  4304.23  4351.38
                             4373.00  4384.23  4392.38  4491.06  4499.37
                             4501.04

 Zero-point correction=                           0.154859 (Hartree/Particle)
 Thermal correction to Energy=                    0.165963
 Thermal correction to Enthalpy=                  0.166907
 Thermal correction to Gibbs Free Energy=         0.116166
 Sum of electronic and zero-point Energies=           -422.992377
 Sum of electronic and thermal Energies=              -422.981273
 Sum of electronic and thermal Enthalpies=            -422.980329
 Sum of electronic and thermal Free Energies=         -423.031069

                     E (Thermal)             CV                S
                      KCal/Mol        Cal/Mol-Kelvin    Cal/Mol-Kelvin
 Total                  104.143             36.828            106.793
 Electronic               0.000              0.000              0.000
 Translational            0.889              2.981             40.409
 Rotational               0.889              2.981             29.979
 Vibrational            102.366             30.866             36.405
 Vibration     1          0.593              1.985              6.422
 Vibration     2          0.595              1.977              4.793
 Vibration     3          0.599              1.966              4.049
 Vibration     4          0.602              1.955              3.611
 Vibration     5          0.608              1.935              3.145
 Vibration     6          0.630              1.865              2.315
 Vibration     7          0.634              1.851              2.212
 Vibration     8          0.645              1.819              2.003
 Vibration     9          0.703              1.645              1.335
 Vibration    10          0.704              1.640              1.323
 Vibration    11          0.731              1.566              1.145
 Vibration    12          0.812              1.354              0.786
 Vibration    13          0.848              1.268              0.678
 Vibration    14          0.857              1.247              0.655
 Vibration    15          0.888              1.177              0.580

 Optimization completed on the basis of negligible forces.
    -- Stationary point found.
 Normal termination of Gaussian 09 at Tue Jan 28 09:03:20 2020.
