 Gaussian 09, Revision D.01,
 Gaussian 09:  ES64L-G09RevD.01 24-Apr-2013

 -----------------------------
 # b3lyp 6-31G(2df,p) opt Freq
 -----------------------------

 -----
 titel
 -----
 Symbolic Z-matrix:
 Charge =  0 Multiplicity = 1

 SCF Done:  E(RB3LYP) =  -423.193785851     A.U. after   13 cycles
 Optimization completed.
    -- Stationary point found.
 Normal termination of Gaussian 09 at Mon Jan 27 23:49:01 2020.

 ----------------------------------------------------------------------
 #N Geom=AllCheck Guess=TCheck SCRF=Check GenChk RB3LYP/6-31G(2df,p) Fr
 eq
 ----------------------------------------------------------------------

 Structure from the checkpoint file:  "/scratch/puck/g09_2387f0e4-7d31-4433-976b-47521df25c7b/Gau-78117.chk"
 -----
 titel
 -----
 Charge =  0 Multiplicity = 1

                         Standard orientation:
 ---------------------------------------------------------------------
 Center     Atomic      Atomic             Coordinates (Angstroms)
 Number     Number       Type             X           Y           Z
 ---------------------------------------------------------------------
      1          6           0        2.468739    0.383330   -0.054232
      2          6           0        1.021105    0.372414   -0.544627
      3          6           0        0.040771    1.131964    0.391907
      4          6           0       -1.316351    1.379554   -0.314206
      5          6           0       -1.639068   -0.106370   -0.054155
      6          8           0       -0.951140   -0.956446   -0.981644
      7          6           0        0.374591   -1.031457   -0.463382
      8          8           0        0.201829   -1.226176    0.931033
      9          6           0       -0.615976   -0.095539    1.137532
     10          1           0        3.111583   -0.221242   -0.703502
     11          1           0        2.868007    1.402612   -0.045674
     12          1           0        2.538911   -0.019836    0.959884
     13          1           0        0.962631    0.751519   -1.569270
     14          1           0        0.505088    1.936104    0.963404
     15          1           0       -1.971139    2.037092    0.266645
     16          1           0       -1.300672    1.705051   -1.357001
     17          1           0       -2.668331   -0.450919    0.048659
     18          1           0        0.902433   -1.869789   -0.916934
     19          1           0       -0.956889   -0.012998    2.165655
 ---------------------------------------------------------------------

 SCF Done:  E(RB3LYP) =  -423.193785851     A.U. after    1 cycles

 The electronic state is 1-A.
 Alpha  occ. eigenvalues --  -19.14938 -19.14228 -10.27288 -10.23438 -10.23170
 Alpha  occ. eigenvalues --  -10.19221 -10.18979 -10.18343 -10.17597  -1.09778
 Alpha  occ. eigenvalues --   -0.99413  -0.83852  -0.78450  -0.68815  -0.65820
 Alpha  occ. eigenvalues --   -0.60796  -0.59564  -0.55886  -0.53346  -0.48591
 Alpha  occ. eigenvalues --   -0.46134  -0.43132  -0.42596  -0.41575  -0.39473
 Alpha  occ. eigenvalues --   -0.39358  -0.38236  -0.36809  -0.33603  -0.32175
 Alpha  occ. eigenvalues --   -0.31597  -0.30114  -0.26578  -0.25240
 Alpha virt. eigenvalues --    0.08916   0.10327   0.10996   0.12888   0.13530
 Alpha virt. eigenvalues --    0.14085   0.15171   0.15744   0.16358   0.16935
 Alpha virt. eigenvalues --    0.17630   0.17991   0.19507   0.20718   0.21663

 Mulliken charges:
               1
     1  C   -0.419491
     2  C    0.009949
     3  C   -0.088245
     4  C   -0.263490
     5  C    0.074076
     6  O   -0.277628
     7  C    0.159794
     8  O   -0.240444
     9  C    0.072176
    10  H    0.113326
    11  H    0.114569
    12  H    0.132352
    13  H    0.079953
    14  H    0.067514
    15  H    0.099860
    16  H    0.105162
    17  H    0.080514
    18  H    0.089658
    19  H    0.090394
 Sum of Mulliken charges =   0.00000

 Dipole moment (field-independent basis, Debye):
    X=              0.1996    Y=              1.7067    Z=              0.3386  Tot=              1.7514
 Quadrupole moment (field-independent basis, Debye-Ang):
   XX=            -51.1859   YY=            -54.7238   ZZ=            -53.5844
   XY=             -1.7050   XZ=             -3.4129   YZ=              1.2906

  Exact polarizability:  82.040  -2.951  70.164  -2.570   1.568  66.000
 Approx polarizability: 109.622  -4.368 105.898  -1.831   2.344 105.279

                      1                      2                      3
                      A                      A                      A
 Frequencies --    196.2295               215.3651               280.2397
 Red. masses --      2.6838                 1.0859                 2.4985
 Frc consts  --      0.0609                 0.0297                 0.1156
 IR Inten    --      0.0848                 0.1410                 0.7533

                      4                      5                      6
                      A                      A                      A
 Frequencies --    352.1654               394.0561               502.1728
 Red. masses --      2.4303                 3.2905                 3.8202
 Frc consts  --      0.1776                 0.3010                 0.5676
 IR Inten    --      1.2981                 1.2385                 3.0441

                      7                      8                      9
                      A                      A                      A
 Frequencies --    596.5230               659.6848               677.5596
 Red. masses --      6.1613                 6.2375                 3.9700
 Frc consts  --      1.2918                 1.5993                 1.0738
 IR Inten    --      9.0234                 4.7860                 0.3771

                     10                     11                     12
                      A                      A                      A
 Frequencies --    764.7308               800.4832               825.7180
 Red. masses --      2.2637                 3.5620                 2.4554
 Frc consts  --      0.7800                 1.3448                 0.9864
 IR Inten    --      2.1200                 0.6844                 4.3740

                     13                     14                     15
                      A                      A                      A
 Frequencies --    852.5058               871.3879               894.6218
 Red. masses --      2.0883                 2.7073                 4.3292
 Frc consts  --      0.8942                 1.2112                 2.0414
 IR Inten    --      5.0495                14.9587                56.5483

                     16                     17                     18
                      A                      A                      A
 Frequencies --    926.7710               962.3233               966.9754
 Red. masses --      2.2986                 2.1276                 2.5769
 Frc consts  --      1.1632                 1.1608                 1.4196
 IR Inten    --     21.1661                 5.7020                12.8380

                     19                     20                     21
                      A                      A                      A
 Frequencies --   1014.3031              1020.9167              1039.7407
 Red. masses --      1.9546                 2.8155                 1.7507
 Frc consts  --      1.1848                 1.7290                 1.1151
 IR Inten    --     48.1409                17.4270                10.7001

                     22                     23                     24
                      A                      A                      A
 Frequencies --   1052.8386              1085.8165              1094.9472
 Red. masses --      2.8824                 2.1148                 1.9129
 Frc consts  --      1.8825                 1.4690                 1.3512
 IR Inten    --      8.9265                43.4763                14.4114

                     25                     26                     27
                      A                      A                      A
 Frequencies --   1124.9148              1129.4045              1165.3366
 Red. masses --      2.1482                 1.9144                 1.6652
 Frc consts  --      1.6016                 1.4387                 1.3324
 IR Inten    --     12.3183                16.4490                10.0014

                     28                     29                     30
                      A                      A                      A
 Frequencies --   1206.3535              1233.3755              1251.0264
 Red. masses --      1.4510                 1.8289                 1.3727
 Frc consts  --      1.2442                 1.6392                 1.2657
 IR Inten    --      0.5515                 0.6840                 1.6064

                     31                     32                     33
                      A                      A                      A
 Frequencies --   1276.7265              1281.7162              1285.5580
 Red. masses --      1.4045                 1.4548                 1.6696
 Frc consts  --      1.3489                 1.4081                 1.6257
 IR Inten    --      0.8248                 3.8757                 7.0592

                     34                     35                     36
                      A                      A                      A
 Frequencies --   1306.2321              1337.3536              1365.9408
 Red. masses --      1.2693                 1.3787                 1.5476
 Frc consts  --      1.2760                 1.4528                 1.7012
 IR Inten    --      4.9158                12.3127                 9.2564

                     37                     38                     39
                      A                      A                      A
 Frequencies --   1376.2784              1407.0923              1478.0557
 Red. masses --      1.5924                 1.2392                 1.1131
 Frc consts  --      1.7771                 1.4456                 1.4327
 IR Inten    --      1.7331                 2.9833                 3.0983

                     40                     41                     42
                      A                      A                      A
 Frequencies --   1494.5705              1504.9978              3033.6292
 Red. masses --      1.0443                 1.0508                 1.0361
 Frc consts  --      1.3744                 1.4023                 5.6178
 IR Inten    --      4.4117                 3.5539                28.0308

                     43                     44                     45
                      A                      A                      A
 Frequencies --   3050.7940              3065.1501              3096.8513
 Red. masses --      1.0591                 1.0850                 1.1002
 Frc consts  --      5.8079                 6.0058                 6.2170
 IR Inten    --     28.2055                14.4584                11.2334

                     46                     47                     48
                      A                      A                      A
 Frequencies --   3104.0380              3109.3011              3111.9781
 Red. masses --      1.0903                 1.0917                 1.1048
 Frc consts  --      6.1894                 6.2185                 6.3037
 IR Inten    --     46.2410                41.4940                25.8324

                     49                     50                     51
                      A                      A                      A
 Frequencies --   3118.5497              3136.8237              3167.3838
 Red. masses --      1.1006                 1.0918                 1.0927
 Frc consts  --      6.3066                 6.3294                 6.4589
 IR Inten    --     22.7020                34.6032                18.5740

 - Thermochemistry -
 -------------------
 Temperature   298.150 Kelvin.  Pressure   1.00000 Atm.
 Atom     1 has atomic number  6 and mass  12.00000

 Molecular mass:   126.06808 amu.
 Principal axes and moments of inertia in atomic units:
                           1         2         3
     Eigenvalues --   630.83116 952.101221109.21767
           X            0.99966  -0.01666  -0.02016
           Y            0.01697   0.99974   0.01521
           Z            0.01990  -0.01554   0.99968
 This molecule is an asymmetric top.
 Rotational symmetry number  1.
 Warning -- assumption of classical behavior for rotation
           may cause significant error
 Rotational temperatures (Kelvin)      0.13730     0.09097     0.07809
 Rotational constants (GHZ):           2.86089     1.89554     1.62704
 Zero-point vibrational energy     426274.4 (Joules/Mol)
                                  101.88202 (Kcal/Mol)
 Warning -- explicit consideration of   7 degrees of freedom as
           vibrations may cause significant error
 Vibrational temperatures:    282.33   309.86   403.20   506.69   566.96
          (Kelvin)            722.51   858.26   949.14   974.86  1100.28
                             1151.72  1188.02  1226.56  1253.73  1287.16
                             1333.42  1384.57  1391.26  1459.35  1468.87
                             1495.95  1514.80  1562.25  1575.38  1618.50
                             1624.96  1676.66  1735.67  1774.55  1799.95
                             1836.92  1844.10  1849.63  1879.37  1924.15
                             1965.28  1980.16  2024.49  2126.59  2150.35
                             2165.35  4364.71  4389.41  4410.06  4455.67
                             4466.01  4473.59  4477.44  4486.89  4513.18
                             4557.15

 Zero-point correction=                           0.162359 (Hartree/Particle)
 Thermal correction to Energy=                    0.168990
 Thermal correction to Enthalpy=                  0.169934
 Thermal correction to Gibbs Free Energy=         0.131715
 Sum of electronic and zero-point Energies=           -423.031427
 Sum of electronic and thermal Energies=              -423.024796
 Sum of electronic and thermal Enthalpies=            -423.023852
 Sum of electronic and thermal Free Energies=         -423.062071

                     E (Thermal)             CV                S
                      KCal/Mol        Cal/Mol-Kelvin    Cal/Mol-Kelvin
 Total                  106.043             27.910             80.440
 Electronic               0.000              0.000              0.000
 Translational            0.889              2.981             40.409
 Rotational               0.889              2.981             27.990
 Vibrational            104.265             21.949             12.042
 Vibration     1          0.636              1.845              2.168
 Vibration     2          0.645              1.818              1.998
 Vibration     3          0.680              1.710              1.532
 Vibration     4          0.729              1.571              1.156
 Vibration     5          0.761              1.483              0.985
 Vibration     6          0.858              1.245              0.653
 Vibration     7          0.954              1.039              0.456

 Normal termination of Gaussian 09 at Tue Jan 28 00:37:33 2020.
