 Gaussian 09, Revision D.01,
 Gaussian 09:  ES64L-G09RevD.01 24-Apr-2013

 -----------------------------
 # b3lyp 6-31G(2df,p) opt Freq
 -----------------------------

 -----
 titel
 -----
 Symbolic Z-matrix:
 Charge =  0 Multiplicity = 1

 SCF Done:  E(RB3LYP) =  -423.166774775     A.U. after   14 cycles
 Optimization completed.
    -- Stationary point found.
 Normal termination of Gaussian 09 at Tue Jan 28 12:40:21 2020.

 ----------------------------------------------------------------------
 #N Geom=AllCheck Guess=TCheck SCRF=Check GenChk RB3LYP/6-31G(2df,p) Fr
 eq
 ----------------------------------------------------------------------

 Structure from the checkpoint file:  "/scratch/puck/g09_f416b563-4b22-45ce-a536-67c0a2f8927c/Gau-116066.chk"
 -----
 titel
 -----
 Charge =  0 Multiplicity = 1

                         Standard orientation:
 ---------------------------------------------------------------------
 Center     Atomic      Atomic             Coordinates (Angstroms)
 Number     Number       Type             X           Y           Z
 ---------------------------------------------------------------------
      1          8           0        2.967996   -0.394368    0.516879
      2          6           0        2.234539    0.386779   -0.425764
      3          6           0        0.749238    0.255377   -0.245580
      4          6           0       -0.066511    1.284694    0.001265
      5          6           0       -1.540236    0.963269    0.140335
      6          6           0       -1.717021   -0.190093    1.158038
      7          6           0       -1.381106   -1.032260   -0.093644
      8          6           0        0.130794   -1.130498   -0.342356
      9          8           0       -1.913609    0.038070   -0.928863
     10          1           0        2.733817   -0.071865    1.393774
     11          1           0        2.526217    1.446906   -0.384547
     12          1           0        2.536885   -0.000110   -1.406760
     13          1           0        0.292479    2.305350    0.096763
     14          1           0       -2.194022    1.836368    0.180533
     15          1           0       -1.051281   -0.226162    2.022529
     16          1           0       -2.758048   -0.320809    1.457868
     17          1           0       -1.902715   -1.979617   -0.252758
     18          1           0        0.607360   -1.810596    0.374068
     19          1           0        0.316033   -1.552694   -1.339359
 ---------------------------------------------------------------------

 SCF Done:  E(RB3LYP) =  -423.166774775     A.U. after    1 cycles

 The electronic state is 1-A.
 Alpha  occ. eigenvalues --  -19.13806 -19.12700 -10.23754 -10.23599 -10.23062
 Alpha  occ. eigenvalues --  -10.19049 -10.18767 -10.18574 -10.18202  -1.03754
 Alpha  occ. eigenvalues --   -1.01698  -0.81568  -0.74182  -0.73867  -0.68034
 Alpha  occ. eigenvalues --   -0.61975  -0.57832  -0.52661  -0.50662  -0.48386
 Alpha  occ. eigenvalues --   -0.45551  -0.45108  -0.43950  -0.42878  -0.40002
 Alpha  occ. eigenvalues --   -0.39287  -0.38541  -0.35535  -0.33398  -0.31669
 Alpha  occ. eigenvalues --   -0.30697  -0.27582  -0.24853  -0.23660
 Alpha virt. eigenvalues --   -0.00236   0.08288   0.09695   0.11311   0.12171
 Alpha virt. eigenvalues --    0.12948   0.13978   0.14851   0.15643   0.17413
 Alpha virt. eigenvalues --    0.17521   0.19130   0.19444   0.20900   0.22502

 Mulliken charges:
               1
     1  O   -0.412173
     2  C   -0.162413
     3  C    0.287916
     4  C   -0.176895
     5  C    0.052618
     6  C   -0.239308
     7  C    0.080943
     8  C   -0.295133
     9  O   -0.293774
    10  H    0.280422
    11  H    0.091226
    12  H    0.114917
    13  H    0.086954
    14  H    0.075180
    15  H    0.094348
    16  H    0.108973
    17  H    0.076254
    18  H    0.115405
    19  H    0.114542
 Sum of Mulliken charges =   0.00000

 Dipole moment (field-independent basis, Debye):
    X=             -0.1576    Y=              0.6402    Z=              1.8327  Tot=              1.9477
 Quadrupole moment (field-independent basis, Debye-Ang):
   XX=            -59.7777   YY=            -50.0933   ZZ=            -52.2988
   XY=              3.0776   XZ=             -2.6733   YZ=              1.2336

  Exact polarizability:  88.327  -3.640  78.220  -4.517   2.381  62.778
 Approx polarizability: 119.837 -14.460 122.724  -2.397   4.918  98.808

                      1                      2                      3
                      A                      A                      A
 Frequencies --     75.1525               129.7905               243.2454
 Red. masses --      3.7359                 3.4990                 3.4161
 Frc consts  --      0.0124                 0.0347                 0.1191
 IR Inten    --      2.1651                 1.7455                 1.6983

                      4                      5                      6
                      A                      A                      A
 Frequencies --    312.1294               323.0129               384.4638
 Red. masses --      1.5651                 2.3136                 2.2783
 Frc consts  --      0.0898                 0.1422                 0.1984
 IR Inten    --     51.9098                 3.6752                21.5777

                      7                      8                      9
                      A                      A                      A
 Frequencies --    402.3427               498.4762               543.4047
 Red. masses --      1.8060                 2.0437                 5.0709
 Frc consts  --      0.1722                 0.2992                 0.8822
 IR Inten    --     54.4163                 1.5082                15.2486

                     10                     11                     12
                      A                      A                      A
 Frequencies --    570.3373               646.3718               795.2803
 Red. masses --      4.9752                 2.8102                 4.3704
 Frc consts  --      0.9535                 0.6918                 1.6286
 IR Inten    --      6.8750                 2.6804                 3.9140

                     13                     14                     15
                      A                      A                      A
 Frequencies --    830.8168               853.5183               863.7930
 Red. masses --      2.2627                 2.0464                 2.0262
 Frc consts  --      0.9202                 0.8784                 0.8907
 IR Inten    --      1.5377                 2.5507                28.4183

                     16                     17                     18
                      A                      A                      A
 Frequencies --    878.0387               920.5833               942.3588
 Red. masses --      2.2217                 4.4036                 2.2532
 Frc consts  --      1.0092                 2.1988                 1.1789
 IR Inten    --      7.4797                34.4178                13.0062

                     19                     20                     21
                      A                      A                      A
 Frequencies --    962.7074               994.1688              1005.2432
 Red. masses --      2.3626                 2.4855                 1.8792
 Frc consts  --      1.2901                 1.4474                 1.1189
 IR Inten    --      8.4036                32.6692                13.9244

                     22                     23                     24
                      A                      A                      A
 Frequencies --   1049.2856              1069.8450              1081.5814
 Red. masses --      3.5504                 1.6446                 3.1281
 Frc consts  --      2.3031                 1.1091                 2.1560
 IR Inten    --     32.6706                 9.4047                21.8800

                     25                     26                     27
                      A                      A                      A
 Frequencies --   1099.6776              1165.6473              1189.7757
 Red. masses --      1.1646                 1.0901                 1.9726
 Frc consts  --      0.8298                 0.8727                 1.6452
 IR Inten    --      0.2620                10.0112                34.0089

                     28                     29                     30
                      A                      A                      A
 Frequencies --   1206.1491              1218.6598              1247.7912
 Red. masses --      1.4038                 1.5295                 1.3372
 Frc consts  --      1.2033                 1.3384                 1.2267
 IR Inten    --      3.1692                 5.1227                 2.2441

                     31                     32                     33
                      A                      A                      A
 Frequencies --   1305.7032              1315.8252              1325.0259
 Red. masses --      1.3262                 1.6964                 1.5337
 Frc consts  --      1.3321                 1.7305                 1.5865
 IR Inten    --      3.5715                 2.8106                 2.8419

                     34                     35                     36
                      A                      A                      A
 Frequencies --   1352.3130              1365.4806              1391.0024
 Red. masses --      1.7163                 1.3619                 1.5086
 Frc consts  --      1.8492                 1.4961                 1.7198
 IR Inten    --     15.4108                 0.8246                 0.4155

                     37                     38                     39
                      A                      A                      A
 Frequencies --   1414.1339              1464.2467              1486.0950
 Red. masses --      1.2326                 1.0966                 1.1276
 Frc consts  --      1.4523                 1.3853                 1.4672
 IR Inten    --     65.0765                 2.8032                 2.1682

                     40                     41                     42
                      A                      A                      A
 Frequencies --   1496.3248              1713.2215              2991.8171
 Red. masses --      1.0896                 7.2315                 1.0648
 Frc consts  --      1.4374                12.5057                 5.6153
 IR Inten    --      1.3212                 3.4114                57.1662

                     43                     44                     45
                      A                      A                      A
 Frequencies --   3019.5020              3052.3057              3059.9119
 Red. masses --      1.0634                 1.0972                 1.0972
 Frc consts  --      5.7122                 6.0228                 6.0526
 IR Inten    --     19.0455                27.8539                11.5114

                     46                     47                     48
                      A                      A                      A
 Frequencies --   3069.1567              3079.3420              3096.7326
 Red. masses --      1.0628                 1.0828                 1.0895
 Frc consts  --      5.8986                 6.0492                 6.1560
 IR Inten    --     32.3007                64.3519                44.6989

                     49                     50                     51
                      A                      A                      A
 Frequencies --   3136.9200              3169.9109              3806.6615
 Red. masses --      1.1099                 1.0923                 1.0662
 Frc consts  --      6.4347                 6.4665                 9.1026
 IR Inten    --     28.8602                18.1155                13.3483

 - Thermochemistry -
 -------------------
 Temperature   298.150 Kelvin.  Pressure   1.00000 Atm.
 Atom     1 has atomic number  8 and mass  15.99491

 Molecular mass:   126.06808 amu.
 Principal axes and moments of inertia in atomic units:
                           1         2         3
     Eigenvalues --   486.791191580.611041702.85446
           X            0.99973   0.01151  -0.01995
           Y           -0.01104   0.99967   0.02318
           Z            0.02021  -0.02295   0.99953
 This molecule is an asymmetric top.
 Rotational symmetry number  1.
 Warning -- assumption of classical behavior for rotation
           may cause significant error
 Rotational temperatures (Kelvin)      0.17793     0.05480     0.05086
 Rotational constants (GHZ):           3.70742     1.14180     1.05983
 Zero-point vibrational energy     422373.2 (Joules/Mol)
                                  100.94961 (Kcal/Mol)
 Warning -- explicit consideration of  10 degrees of freedom as
           vibrations may cause significant error
 Vibrational temperatures:    108.13   186.74   349.98   449.08   464.74
          (Kelvin)            553.16   578.88   717.20   781.84   820.59
                              929.98  1144.23  1195.36  1228.02  1242.80
                             1263.30  1324.51  1355.84  1385.12  1430.39
                             1446.32  1509.69  1539.27  1556.15  1582.19
                             1677.10  1711.82  1735.38  1753.38  1795.29
                             1878.61  1893.18  1906.41  1945.67  1964.62
                             2001.34  2034.62  2106.72  2138.16  2152.87
                             2464.94  4304.55  4344.38  4391.58  4402.53
                             4415.83  4430.48  4455.50  4513.32  4560.79
                             5476.93

 Zero-point correction=                           0.160873 (Hartree/Particle)
 Thermal correction to Energy=                    0.168647
 Thermal correction to Enthalpy=                  0.169592
 Thermal correction to Gibbs Free Energy=         0.128430
 Sum of electronic and zero-point Energies=           -423.005901
 Sum of electronic and thermal Energies=              -422.998127
 Sum of electronic and thermal Enthalpies=            -422.997183
 Sum of electronic and thermal Free Energies=         -423.038344

                     E (Thermal)             CV                S
                      KCal/Mol        Cal/Mol-Kelvin    Cal/Mol-Kelvin
 Total                  105.828             30.682             86.631
 Electronic               0.000              0.000              0.000
 Translational            0.889              2.981             40.409
 Rotational               0.889              2.981             28.662
 Vibrational            104.050             24.720             17.560
 Vibration     1          0.599              1.966              4.014
 Vibration     2          0.612              1.923              2.949
 Vibration     3          0.659              1.774              1.779
 Vibration     4          0.700              1.651              1.351
 Vibration     5          0.708              1.629              1.295
 Vibration     6          0.753              1.503              1.022
 Vibration     7          0.768              1.465              0.954
 Vibration     8          0.854              1.253              0.662
 Vibration     9          0.899              1.154              0.558
 Vibration    10          0.926              1.095              0.504

 Optimization completed.
    -- Stationary point found.
 Normal termination of Gaussian 09 at Tue Jan 28 13:23:30 2020.
