 Gaussian 09, Revision D.01,
 Gaussian 09:  ES64L-G09RevD.01 24-Apr-2013

 -----------------------------
 # b3lyp 6-31G(2df,p) opt Freq
 -----------------------------

 -----
 titel
 -----
 Symbolic Z-matrix:
 Charge =  0 Multiplicity = 1

 SCF Done:  E(RB3LYP) =  -423.142075135     A.U. after   13 cycles
 Optimization completed.
    -- Stationary point found.
 Normal termination of Gaussian 09 at Tue Jan 28 12:11:31 2020.

 ----------------------------------------------------------------------
 #N Geom=AllCheck Guess=TCheck SCRF=Check GenChk RB3LYP/6-31G(2df,p) Fr
 eq
 ----------------------------------------------------------------------

 Structure from the checkpoint file:  "/scratch/puck/g09_147f00b1-61f2-4e2e-8b82-fce2d05bf29b/Gau-115428.chk"
 -----
 titel
 -----
 Charge =  0 Multiplicity = 1

                         Standard orientation:
 ---------------------------------------------------------------------
 Center     Atomic      Atomic             Coordinates (Angstroms)
 Number     Number       Type             X           Y           Z
 ---------------------------------------------------------------------
      1          6           0        2.844302    0.140866    0.229405
      2          6           0        1.729046   -0.491032   -0.610862
      3          6           0        0.356081   -0.035350   -0.216175
      4          8           0        0.101597    1.375729   -0.214645
      5          6           0       -1.122246    1.051423    0.508941
      6          6           0       -1.962911    0.393022   -0.600114
      7          6           0       -0.977193   -0.780270   -0.725937
      8          8           0       -1.110887   -1.412261    0.583031
      9          6           0       -0.427638   -0.265995    1.086452
     10          1           0        3.827091   -0.195636   -0.112746
     11          1           0        2.809533    1.231090    0.161058
     12          1           0        2.745526   -0.132252    1.285173
     13          1           0        1.878699   -0.255173   -1.672580
     14          1           0        1.754346   -1.584085   -0.527080
     15          1           0       -1.513910    1.869941    1.108680
     16          1           0       -2.950367    0.042444   -0.293907
     17          1           0       -2.028172    1.043442   -1.474135
     18          1           0       -1.023855   -1.476418   -1.561383
     19          1           0       -0.061211   -0.327076    2.109579
 ---------------------------------------------------------------------

 SCF Done:  E(RB3LYP) =  -423.142075135     A.U. after    1 cycles

 The electronic state is 1-A.
 Alpha  occ. eigenvalues --  -19.14131 -19.13914 -10.24086 -10.23904 -10.23771
 Alpha  occ. eigenvalues --  -10.23683 -10.19017 -10.18498 -10.17611  -1.08273
 Alpha  occ. eigenvalues --   -1.02139  -0.78489  -0.76913  -0.70264  -0.69156
 Alpha  occ. eigenvalues --   -0.62078  -0.58055  -0.53886  -0.50081  -0.49501
 Alpha  occ. eigenvalues --   -0.46944  -0.43948  -0.43126  -0.41298  -0.39098
 Alpha  occ. eigenvalues --   -0.38244  -0.36797  -0.36059  -0.35078  -0.33846
 Alpha  occ. eigenvalues --   -0.31280  -0.30431  -0.25572  -0.24131
 Alpha virt. eigenvalues --    0.07485   0.09795   0.10623   0.12187   0.12838
 Alpha virt. eigenvalues --    0.13321   0.14089   0.15396   0.16124   0.16558
 Alpha virt. eigenvalues --    0.17272   0.17741   0.18734   0.19763   0.20527

 Mulliken charges:
               1
     1  C   -0.383076
     2  C   -0.320892
     3  C    0.444028
     4  O   -0.331066
     5  C    0.027101
     6  C   -0.213495
     7  C   -0.015244
     8  O   -0.294735
     9  C    0.007234
    10  H    0.113189
    11  H    0.138037
    12  H    0.116559
    13  H    0.111402
    14  H    0.117415
    15  H    0.085370
    16  H    0.111151
    17  H    0.111121
    18  H    0.083219
    19  H    0.092682
 Sum of Mulliken charges =   0.00000

 Dipole moment (field-independent basis, Debye):
    X=              0.1732    Y=              0.0514    Z=             -0.2294  Tot=              0.2920
 Quadrupole moment (field-independent basis, Debye-Ang):
   XX=            -51.3324   YY=            -57.4589   ZZ=            -50.3838
   XY=             -3.7871   XZ=              0.7401   YZ=              3.0826

  Exact polarizability:  84.070  -2.674  68.206   1.568   2.935  69.405
 Approx polarizability: 108.566   0.311 109.948  -0.085   1.501 106.960

                      1                      2                      3
                      A                      A                      A
 Frequencies --     85.8915               165.0856               185.2876
 Red. masses --      2.3525                 2.8697                 1.3756
 Frc consts  --      0.0102                 0.0461                 0.0278
 IR Inten    --      0.0121                 0.2905                 0.2302

                      4                      5                      6
                      A                      A                      A
 Frequencies --    272.7968               340.2034               460.8195
 Red. masses --      1.7380                 3.2885                 1.9702
 Frc consts  --      0.0762                 0.2242                 0.2465
 IR Inten    --      1.1858                 1.9886                 1.6052

                      7                      8                      9
                      A                      A                      A
 Frequencies --    525.0486               535.2829               637.8301
 Red. masses --      4.1451                 4.6833                 3.2602
 Frc consts  --      0.6733                 0.7906                 0.7815
 IR Inten    --      6.7339                11.4879                 1.0067

                     10                     11                     12
                      A                      A                      A
 Frequencies --    707.5864               760.7232               781.5232
 Red. masses --      3.4852                 2.0195                 2.2775
 Frc consts  --      1.0281                 0.6886                 0.8196
 IR Inten    --      1.7471                 0.0140                11.9159

                     13                     14                     15
                      A                      A                      A
 Frequencies --    806.5094               849.7367               889.0495
 Red. masses --      3.7054                 3.2984                 2.7317
 Frc consts  --      1.4200                 1.4032                 1.2721
 IR Inten    --     10.4823                 5.7901                 6.5791

                     16                     17                     18
                      A                      A                      A
 Frequencies --    916.9261               925.3678               941.8033
 Red. masses --      2.5356                 2.1020                 3.8798
 Frc consts  --      1.2561                 1.0605                 2.0276
 IR Inten    --     35.3965                11.1119                14.6003

                     19                     20                     21
                      A                      A                      A
 Frequencies --    963.0730               980.6960               989.3666
 Red. masses --      2.0620                 2.3846                 2.0441
 Frc consts  --      1.1268                 1.3512                 1.1789
 IR Inten    --      5.3683                17.8234                10.5718

                     22                     23                     24
                      A                      A                      A
 Frequencies --   1000.6664              1033.1219              1098.5028
 Red. masses --      2.0717                 2.6206                 1.5960
 Frc consts  --      1.2222                 1.6480                 1.1347
 IR Inten    --     24.8816                28.6922                 7.5226

                     25                     26                     27
                      A                      A                      A
 Frequencies --   1105.9267              1129.8985              1151.6569
 Red. masses --      1.9343                 1.7676                 1.8093
 Frc consts  --      1.3939                 1.3295                 1.4138
 IR Inten    --      6.4970                 3.5029                 7.7988

                     28                     29                     30
                      A                      A                      A
 Frequencies --   1176.2054              1221.6242              1237.7724
 Red. masses --      1.8725                 1.2894                 1.7744
 Frc consts  --      1.5263                 1.1337                 1.6017
 IR Inten    --      2.5904                 2.1058                 8.7429

                     31                     32                     33
                      A                      A                      A
 Frequencies --   1256.1205              1275.9721              1316.4606
 Red. masses --      1.5006                 1.4350                 1.4833
 Frc consts  --      1.3950                 1.3766                 1.5146
 IR Inten    --     15.5263                 4.3368                 9.8758

                     34                     35                     36
                      A                      A                      A
 Frequencies --   1320.7897              1352.3646              1404.7012
 Red. masses --      1.6118                 1.5284                 2.0391
 Frc consts  --      1.6566                 1.6470                 2.3706
 IR Inten    --      2.8840                 4.9828                 2.8518

                     37                     38                     39
                      A                      A                      A
 Frequencies --   1413.0707              1462.1357              1468.7941
 Red. masses --      1.5840                 1.1220                 1.0759
 Frc consts  --      1.8635                 1.4133                 1.3675
 IR Inten    --      3.6834                 4.5787                 2.0677

                     40                     41                     42
                      A                      A                      A
 Frequencies --   1496.6893              1507.3844              3025.5359
 Red. masses --      1.0390                 1.0708                 1.0617
 Frc consts  --      1.3713                 1.4335                 5.7262
 IR Inten    --      5.4803                 5.5967                16.7959

                     43                     44                     45
                      A                      A                      A
 Frequencies --   3042.2374              3065.0722              3080.0150
 Red. masses --      1.0361                 1.0985                 1.0574
 Frc consts  --      5.6500                 6.0802                 5.9101
 IR Inten    --     23.6712                 8.8700                16.0168

                     46                     47                     48
                      A                      A                      A
 Frequencies --   3108.5445              3126.1674              3138.7416
 Red. masses --      1.1012                 1.1017                 1.0909
 Frc consts  --      6.2694                 6.3439                 6.3321
 IR Inten    --     31.7237                19.2148                31.0753

                     49                     50                     51
                      A                      A                      A
 Frequencies --   3141.9135              3144.6222              3153.7547
 Red. masses --      1.0989                 1.1016                 1.0941
 Frc consts  --      6.3914                 6.4180                 6.4118
 IR Inten    --     21.2117                18.2804                29.0825

 - Thermochemistry -
 -------------------
 Temperature   298.150 Kelvin.  Pressure   1.00000 Atm.
 Atom     1 has atomic number  6 and mass  12.00000

 Molecular mass:   126.06808 amu.
 Principal axes and moments of inertia in atomic units:
                           1         2         3
     Eigenvalues --   551.969661204.476221365.60088
           X            0.99961  -0.02527   0.01197
           Y            0.02431   0.99692   0.07455
           Z           -0.01381  -0.07423   0.99715
 This molecule is an asymmetric top.
 Rotational symmetry number  1.
 Warning -- assumption of classical behavior for rotation
           may cause significant error
 Rotational temperatures (Kelvin)      0.15692     0.07191     0.06343
 Rotational constants (GHZ):           3.26964     1.49836     1.32157
 Zero-point vibrational energy     419752.1 (Joules/Mol)
                                  100.32316 (Kcal/Mol)
 Warning -- explicit consideration of   8 degrees of freedom as
           vibrations may cause significant error
 Vibrational temperatures:    123.58   237.52   266.59   392.49   489.48
          (Kelvin)            663.02   755.43   770.15   917.69  1018.06
                             1094.51  1124.44  1160.39  1222.58  1279.14
                             1319.25  1331.40  1355.04  1385.65  1411.00
                             1423.48  1439.73  1486.43  1580.50  1591.18
                             1625.67  1656.98  1692.30  1757.64  1780.88
                             1807.28  1835.84  1894.09  1900.32  1945.75
                             2021.05  2033.09  2103.68  2113.26  2153.40
                             2168.79  4353.07  4377.10  4409.95  4431.45
                             4472.50  4497.85  4515.94  4520.51  4524.40
                             4537.54

 Zero-point correction=                           0.159875 (Hartree/Particle)
 Thermal correction to Energy=                    0.167348
 Thermal correction to Enthalpy=                  0.168292
 Thermal correction to Gibbs Free Energy=         0.127884
 Sum of electronic and zero-point Energies=           -422.982200
 Sum of electronic and thermal Energies=              -422.974727
 Sum of electronic and thermal Enthalpies=            -422.973783
 Sum of electronic and thermal Free Energies=         -423.014191

                     E (Thermal)             CV                S
                      KCal/Mol        Cal/Mol-Kelvin    Cal/Mol-Kelvin
 Total                  105.013             29.800             85.045
 Electronic               0.000              0.000              0.000
 Translational            0.889              2.981             40.409
 Rotational               0.889              2.981             28.298
 Vibrational            103.235             23.838             16.339
 Vibration     1          0.601              1.959              3.752
 Vibration     2          0.623              1.885              2.491
 Vibration     3          0.631              1.860              2.274
 Vibration     4          0.676              1.723              1.578
 Vibration     5          0.720              1.595              1.211
 Vibration     6          0.819              1.337              0.764
 Vibration     7          0.880              1.195              0.598
 Vibration     8          0.890              1.172              0.576

 Optimization completed.
    -- Stationary point found.
 Normal termination of Gaussian 09 at Tue Jan 28 12:54:35 2020.
