 Gaussian 09, Revision D.01,
 Gaussian 09:  ES64L-G09RevD.01 24-Apr-2013

 -----------------------------
 # b3lyp 6-31G(2df,p) opt Freq
 -----------------------------

 -----
 titel
 -----
 Symbolic Z-matrix:
 Charge =  0 Multiplicity = 1

 SCF Done:  E(RB3LYP) =  -423.175062787     A.U. after   14 cycles
 SCF Done:  E(RB3LYP) =  -423.175062916     A.U. after    7 cycles
 Optimization completed.
    -- Stationary point found.
 Normal termination of Gaussian 09 at Tue Jan 28 04:07:24 2020.

 ----------------------------------------------------------------------
 #N Geom=AllCheck Guess=TCheck SCRF=Check GenChk RB3LYP/6-31G(2df,p) Fr
 eq
 ----------------------------------------------------------------------

 Structure from the checkpoint file:  "/scratch/puck/g09_ae025e8c-9cb3-423e-bb20-7a3ddee36fe0/Gau-92568.chk"
 -----
 titel
 -----
 Charge =  0 Multiplicity = 1

                         Standard orientation:
 ---------------------------------------------------------------------
 Center     Atomic      Atomic             Coordinates (Angstroms)
 Number     Number       Type             X           Y           Z
 ---------------------------------------------------------------------
      1          8           0        0.488431    1.869548    0.530628
      2          6           0        0.802418    0.817387   -0.331137
      3          6           0        2.254644    0.286392   -0.262755
      4          6           0        1.701807   -1.167200   -0.395120
      5          6           0        0.342942   -0.606710    0.032616
      6          6           0       -0.399073   -0.929279    1.263402
      7          6           0       -1.067025   -1.180446   -0.097681
      8          6           0       -2.140197   -0.261267   -0.513997
      9          8           0       -2.168998    0.930424   -0.271508
     10          1           0       -0.467391    1.997773    0.442007
     11          1           0        0.525607    1.048317   -1.371004
     12          1           0        2.956512    0.637181   -1.020980
     13          1           0        2.667513    0.467536    0.732291
     14          1           0        1.707940   -1.522273   -1.429740
     15          1           0        2.144785   -1.933366    0.244791
     16          1           0       -0.128711   -1.812866    1.832190
     17          1           0       -0.795031   -0.099401    1.839963
     18          1           0       -1.173663   -2.211136   -0.420157
     19          1           0       -2.966117   -0.724799   -1.094279
 ---------------------------------------------------------------------

 SCF Done:  E(RB3LYP) =  -423.175062916     A.U. after    1 cycles

 The electronic state is 1-A.
 Alpha  occ. eigenvalues --  -19.14369 -19.12335 -10.27709 -10.22972 -10.20801
 Alpha  occ. eigenvalues --  -10.20619 -10.20272 -10.19312 -10.18337  -1.04900
 Alpha  occ. eigenvalues --   -1.01121  -0.88497  -0.80922  -0.68223  -0.65298
 Alpha  occ. eigenvalues --   -0.61970  -0.56703  -0.53148  -0.52031  -0.50644
 Alpha  occ. eigenvalues --   -0.48863  -0.44834  -0.43696  -0.41092  -0.40179
 Alpha  occ. eigenvalues --   -0.38120  -0.36922  -0.36220  -0.34359  -0.32486
 Alpha  occ. eigenvalues --   -0.30301  -0.27792  -0.26524  -0.25038
 Alpha virt. eigenvalues --   -0.03299   0.08523   0.08886   0.10436   0.11755
 Alpha virt. eigenvalues --    0.12819   0.14971   0.16032   0.16645   0.17716
 Alpha virt. eigenvalues --    0.18297   0.18539   0.19093   0.21573   0.23240

 Mulliken charges:
               1
     1  O   -0.441627
     2  C    0.104273
     3  C   -0.240872
     4  C   -0.318103
     5  C    0.331778
     6  C   -0.322041
     7  C   -0.211111
     8  C    0.144527
     9  O   -0.292333
    10  H    0.297022
    11  H    0.068711
    12  H    0.102090
    13  H    0.119787
    14  H    0.108830
    15  H    0.107616
    16  H    0.121834
    17  H    0.138051
    18  H    0.093809
    19  H    0.087760
 Sum of Mulliken charges =   0.00000

 Dipole moment (field-independent basis, Debye):
    X=              0.1091    Y=             -3.1487    Z=             -0.6887  Tot=              3.2249
 Quadrupole moment (field-independent basis, Debye-Ang):
   XX=            -53.5924   YY=            -55.1988   ZZ=            -51.6949
   XY=              1.4839   XZ=             -0.4636   YZ=             -0.9812

  Exact polarizability:  89.728  -0.208  75.921   2.646   0.254  66.797
 Approx polarizability: 119.828  -3.483 118.485   5.193   2.634 103.300

                      1                      2                      3
                      A                      A                      A
 Frequencies --    117.4189               138.9095               171.4714
 Red. masses --      3.2576                 3.3758                 5.8934
 Frc consts  --      0.0265                 0.0384                 0.1021
 IR Inten    --      1.2275                 3.2731                 6.1136

                      4                      5                      6
                      A                      A                      A
 Frequencies --    215.2513               239.6249               286.2517
 Red. masses --      2.1785                 3.7897                 4.4326
 Frc consts  --      0.0595                 0.1282                 0.2140
 IR Inten    --      7.8060                 1.1285                 5.5461

                      7                      8                      9
                      A                      A                      A
 Frequencies --    372.7115               401.6999               514.0382
 Red. masses --      2.4646                 2.5992                 3.1728
 Frc consts  --      0.2017                 0.2471                 0.4940
 IR Inten    --      4.6545                 7.9050                 2.5319

                     10                     11                     12
                      A                      A                      A
 Frequencies --    532.3091               591.7471               701.6091
 Red. masses --      1.5428                 1.8787                 3.0493
 Frc consts  --      0.2576                 0.3876                 0.8844
 IR Inten    --     50.4401                74.4579                 4.3634

                     13                     14                     15
                      A                      A                      A
 Frequencies --    727.7760               794.2071               811.6684
 Red. masses --      2.1390                 1.8015                 1.6895
 Frc consts  --      0.6675                 0.6695                 0.6558
 IR Inten    --      6.6685                 3.0019                 0.9721

                     16                     17                     18
                      A                      A                      A
 Frequencies --    873.1613               885.9273               917.2027
 Red. masses --      4.0231                 1.8648                 1.6722
 Frc consts  --      1.8072                 0.8624                 0.8288
 IR Inten    --     28.3419                 7.0042                10.7703

                     19                     20                     21
                      A                      A                      A
 Frequencies --    929.7664               967.4999              1035.0794
 Red. masses --      2.1457                 2.4037                 2.1747
 Frc consts  --      1.0928                 1.3256                 1.3728
 IR Inten    --      1.0770                 6.8462                49.6811

                     22                     23                     24
                      A                      A                      A
 Frequencies --   1045.7825              1062.5102              1080.4528
 Red. masses --      1.6424                 1.9463                 1.4850
 Frc consts  --      1.0583                 1.2946                 1.0214
 IR Inten    --     22.8790                19.7590                30.0104

                     25                     26                     27
                      A                      A                      A
 Frequencies --   1101.7114              1107.3461              1170.8982
 Red. masses --      1.3558                 1.4443                 2.7065
 Frc consts  --      0.9696                 1.0434                 2.1862
 IR Inten    --     15.5910                16.0774                32.4220

                     28                     29                     30
                      A                      A                      A
 Frequencies --   1178.6759              1213.9497              1245.6478
 Red. masses --      1.7734                 1.5374                 1.2375
 Frc consts  --      1.4516                 1.3349                 1.1313
 IR Inten    --     11.5002                 2.5211                 4.5766

                     31                     32                     33
                      A                      A                      A
 Frequencies --   1263.9370              1274.7558              1319.1663
 Red. masses --      1.3845                 1.4567                 1.6072
 Frc consts  --      1.3032                 1.3947                 1.6478
 IR Inten    --      6.7680                29.1965                15.0436

                     34                     35                     36
                      A                      A                      A
 Frequencies --   1348.6887              1414.1541              1429.7039
 Red. masses --      1.4373                 1.7563                 1.3271
 Frc consts  --      1.5403                 2.0694                 1.5982
 IR Inten    --     89.3813                23.0076                 9.3244

                     37                     38                     39
                      A                      A                      A
 Frequencies --   1440.5690              1473.2888              1482.9294
 Red. masses --      1.3821                 1.3335                 1.2759
 Frc consts  --      1.6899                 1.7054                 1.6531
 IR Inten    --     23.5010                 8.6337                 8.7744

                     40                     41                     42
                      A                      A                      A
 Frequencies --   1498.7862              1771.6873              2905.5530
 Red. masses --      1.1880                 8.8977                 1.0837
 Frc consts  --      1.5723                16.4551                 5.3906
 IR Inten    --      4.3786               135.3812               143.4039

                     43                     44                     45
                      A                      A                      A
 Frequencies --   2982.6834              3058.0084              3074.5541
 Red. masses --      1.0832                 1.0586                 1.0584
 Frc consts  --      5.6778                 5.8328                 5.8945
 IR Inten    --     46.2959                33.1782                29.9725

                     46                     47                     48
                      A                      A                      A
 Frequencies --   3109.4695              3127.2391              3136.1218
 Red. masses --      1.1073                 1.0526                 1.1090
 Frc consts  --      6.3078                 6.0651                 6.4264
 IR Inten    --     14.4700                 9.8483                30.5189

                     49                     50                     51
                      A                      A                      A
 Frequencies --   3165.4102              3221.3885              3734.5559
 Red. masses --      1.0896                 1.1173                 1.0648
 Frc consts  --      6.4324                 6.8313                 8.7497
 IR Inten    --     12.2101                 2.1493                81.1485

 - Thermochemistry -
 -------------------
 Temperature   298.150 Kelvin.  Pressure   1.00000 Atm.
 Atom     1 has atomic number  8 and mass  15.99491

 Molecular mass:   126.06808 amu.
 Principal axes and moments of inertia in atomic units:
                           1         2         3
     Eigenvalues --   692.945121197.864931561.47375
           X            0.99995   0.00625  -0.00768
           Y           -0.00632   0.99994  -0.00913
           Z            0.00762   0.00918   0.99993
 This molecule is an asymmetric top.
 Rotational symmetry number  1.
 Warning -- assumption of classical behavior for rotation
           may cause significant error
 Rotational temperatures (Kelvin)      0.12499     0.07231     0.05547
 Rotational constants (GHZ):           2.60445     1.50663     1.15579
 Zero-point vibrational energy     416689.0 (Joules/Mol)
                                   99.59105 (Kcal/Mol)
 Warning -- explicit consideration of  11 degrees of freedom as
           vibrations may cause significant error
 Vibrational temperatures:    168.94   199.86   246.71   309.70   344.77
          (Kelvin)            411.85   536.25   577.96   739.59   765.87
                              851.39  1009.46  1047.11  1142.69  1167.81
                             1256.28  1274.65  1319.65  1337.72  1392.01
                             1489.25  1504.65  1528.71  1554.53  1585.11
                             1593.22  1684.66  1695.85  1746.60  1792.21
                             1818.52  1834.09  1897.98  1940.46  2034.65
                             2057.02  2072.65  2119.73  2133.60  2156.42
                             2549.06  4180.44  4291.41  4399.79  4423.59
                             4473.83  4499.39  4512.17  4554.31  4634.85
                             5373.19

 Zero-point correction=                           0.158708 (Hartree/Particle)
 Thermal correction to Energy=                    0.167156
 Thermal correction to Enthalpy=                  0.168100
 Thermal correction to Gibbs Free Energy=         0.125873
 Sum of electronic and zero-point Energies=           -423.016354
 Sum of electronic and thermal Energies=              -423.007907
 Sum of electronic and thermal Enthalpies=            -423.006963
 Sum of electronic and thermal Free Energies=         -423.049190

                     E (Thermal)             CV                S
                      KCal/Mol        Cal/Mol-Kelvin    Cal/Mol-Kelvin
 Total                  104.892             32.528             88.874
 Electronic               0.000              0.000              0.000
 Translational            0.889              2.981             40.409
 Rotational               0.889              2.981             28.651
 Vibrational            103.115             26.567             19.815
 Vibration     1          0.608              1.935              3.142
 Vibration     2          0.615              1.914              2.819
 Vibration     3          0.626              1.878              2.419
 Vibration     4          0.645              1.818              1.999
 Vibration     5          0.657              1.780              1.806
 Vibration     6          0.684              1.699              1.496
 Vibration     7          0.744              1.528              1.069
 Vibration     8          0.767              1.466              0.956
 Vibration     9          0.869              1.219              0.624
 Vibration    10          0.887              1.179              0.582
 Vibration    11          0.949              1.049              0.464

 Optimization completed.
    -- Stationary point found.
 Normal termination of Gaussian 09 at Tue Jan 28 04:56:50 2020.
