 Gaussian 09, Revision D.01,
 Gaussian 09:  ES64L-G09RevD.01 24-Apr-2013

 -----------------------------
 # b3lyp 6-31G(2df,p) opt Freq
 -----------------------------

 -----
 titel
 -----
 Symbolic Z-matrix:
 Charge =  0 Multiplicity = 1

 SCF Done:  E(RB3LYP) =  -423.217099181     A.U. after   14 cycles
 Optimization completed.
    -- Stationary point found.
 Normal termination of Gaussian 09 at Tue Jan 28 13:26:13 2020.

 ----------------------------------------------------------------------
 #N Geom=AllCheck Guess=TCheck SCRF=Check GenChk RB3LYP/6-31G(2df,p) Fr
 eq
 ----------------------------------------------------------------------

 Structure from the checkpoint file:  "/scratch/puck/g09_1bfa2d73-d6b0-44da-bd69-77d162487683/Gau-108882.chk"
 -----
 titel
 -----
 Charge =  0 Multiplicity = 1

                         Standard orientation:
 ---------------------------------------------------------------------
 Center     Atomic      Atomic             Coordinates (Angstroms)
 Number     Number       Type             X           Y           Z
 ---------------------------------------------------------------------
      1          6           0       -2.929898   -0.559023   -0.086485
      2          8           0       -1.611779   -0.963396   -0.420815
      3          6           0       -0.610573   -0.426483    0.412369
      4          6           0        0.714471   -1.173230    0.195203
      5          6           0        1.747801   -0.087497   -0.014833
      6          6           0        3.195635   -0.424172   -0.142464
      7          6           0        1.189528    1.133828   -0.078328
      8          6           0       -0.268577    1.056230    0.095086
      9          8           0       -1.076629    1.955469    0.008770
     10          1           0       -3.064098    0.521320   -0.192565
     11          1           0       -3.599865   -1.084598   -0.771366
     12          1           0       -3.179554   -0.848054    0.947013
     13          1           0       -0.923946   -0.478561    1.468917
     14          1           0        0.982851   -1.832038    1.028800
     15          1           0        0.630294   -1.808238   -0.694741
     16          1           0        3.551764   -0.939875    0.758324
     17          1           0        3.358725   -1.116585   -0.977803
     18          1           0        3.811432    0.463965   -0.300912
     19          1           0        1.709332    2.068169   -0.252598
 ---------------------------------------------------------------------

 SCF Done:  E(RB3LYP) =  -423.217099181     A.U. after    1 cycles

 The electronic state is 1-A.
 Alpha  occ. eigenvalues --  -19.14080 -19.11937 -10.25524 -10.23577 -10.22323
 Alpha  occ. eigenvalues --  -10.21432 -10.20132 -10.19728 -10.18675  -1.03931
 Alpha  occ. eigenvalues --   -1.01925  -0.85706  -0.75729  -0.72023  -0.67875
 Alpha  occ. eigenvalues --   -0.63711  -0.55596  -0.53944  -0.49965  -0.47507
 Alpha  occ. eigenvalues --   -0.45533  -0.44263  -0.43839  -0.42707  -0.40440
 Alpha  occ. eigenvalues --   -0.39397  -0.38348  -0.37972  -0.37225  -0.35204
 Alpha  occ. eigenvalues --   -0.31693  -0.28114  -0.26571  -0.21833
 Alpha virt. eigenvalues --   -0.04427   0.05167   0.08834   0.11204   0.12581
 Alpha virt. eigenvalues --    0.13349   0.14608   0.15364   0.15883   0.16491
 Alpha virt. eigenvalues --    0.17240   0.18144   0.19289   0.19750   0.22647

 Mulliken charges:
               1
     1  C   -0.244470
     2  O   -0.246986
     3  C    0.015989
     4  C   -0.342475
     5  C    0.315725
     6  C   -0.485579
     7  C   -0.274111
     8  C    0.376076
     9  O   -0.343642
    10  H    0.146411
    11  H    0.121243
    12  H    0.098746
    13  H    0.083932
    14  H    0.113765
    15  H    0.138552
    16  H    0.139527
    17  H    0.142149
    18  H    0.135547
    19  H    0.109602
 Sum of Mulliken charges =   0.00000

 Dipole moment (field-independent basis, Debye):
    X=              2.6326    Y=             -2.0678    Z=              0.8506  Tot=              3.4539
 Quadrupole moment (field-independent basis, Debye-Ang):
   XX=            -46.5745   YY=            -58.1431   ZZ=            -52.7851
   XY=              2.2232   XZ=             -1.1868   YZ=             -0.9095

  Exact polarizability: 104.848  -8.142  82.594  -1.113  -1.943  55.740
 Approx polarizability: 137.703 -26.567 137.786  -0.063  -2.134  87.894

                      1                      2                      3
                      A                      A                      A
 Frequencies --     44.0288               115.4405               138.0545
 Red. masses --      2.9851                 1.8178                 2.0368
 Frc consts  --      0.0034                 0.0143                 0.0229
 IR Inten    --      1.1773                 3.8995                 0.3702

                      4                      5                      6
                      A                      A                      A
 Frequencies --    177.6805               184.8609               246.0014
 Red. masses --      1.4435                 1.4584                 3.1754
 Frc consts  --      0.0269                 0.0294                 0.1132
 IR Inten    --      1.6102                 3.9274                 3.6795

                      7                      8                      9
                      A                      A                      A
 Frequencies --    284.2035               328.6938               401.7028
 Red. masses --      3.3094                 3.2317                 4.0224
 Frc consts  --      0.1575                 0.2057                 0.3824
 IR Inten    --      2.6945                 1.3781                 2.4939

                     10                     11                     12
                      A                      A                      A
 Frequencies --    445.4549               507.0609               573.2633
 Red. masses --      2.0951                 3.6089                 4.8730
 Frc consts  --      0.2449                 0.5467                 0.9435
 IR Inten    --      4.4146                 6.4582                 0.6892

                     13                     14                     15
                      A                      A                      A
 Frequencies --    635.0188               707.1577               824.4150
 Red. masses --      4.0279                 3.7139                 2.7235
 Frc consts  --      0.9570                 1.0943                 1.0906
 IR Inten    --      9.6265                 5.5186                 2.6394

                     16                     17                     18
                      A                      A                      A
 Frequencies --    865.6782               882.6770               941.7823
 Red. masses --      1.6081                 2.7324                 2.3098
 Frc consts  --      0.7100                 1.2543                 1.2070
 IR Inten    --      5.7840                 4.3941                15.7197

                     19                     20                     21
                      A                      A                      A
 Frequencies --   1004.2579              1013.1814              1046.8821
 Red. masses --      1.6599                 1.9232                 2.0350
 Frc consts  --      0.9863                 1.1632                 1.3140
 IR Inten    --      0.3733                 5.9318                14.3864

                     22                     23                     24
                      A                      A                      A
 Frequencies --   1080.8585              1149.6205              1157.0518
 Red. masses --      2.0953                 3.2241                 3.6806
 Frc consts  --      1.4422                 2.5105                 2.9032
 IR Inten    --      4.9917               124.4590                77.2141

                     25                     26                     27
                      A                      A                      A
 Frequencies --   1182.4236              1183.6786              1191.5942
 Red. masses --      1.2433                 1.2784                 1.8175
 Frc consts  --      1.0242                 1.0553                 1.5205
 IR Inten    --      7.1815                 2.0947                21.3040

                     28                     29                     30
                      A                      A                      A
 Frequencies --   1240.6546              1271.8101              1292.6480
 Red. masses --      1.7356                 1.5324                 1.6892
 Frc consts  --      1.5740                 1.4604                 1.6630
 IR Inten    --     24.5875                 3.4360                16.5152

                     31                     32                     33
                      A                      A                      A
 Frequencies --   1349.5910              1371.9183              1410.4860
 Red. masses --      2.2748                 1.4834                 1.3164
 Frc consts  --      2.4412                 1.6450                 1.5430
 IR Inten    --      8.8817                16.2313                 3.3648

                     34                     35                     36
                      A                      A                      A
 Frequencies --   1468.0803              1475.2802              1476.5730
 Red. masses --      1.0965                 1.1191                 1.0550
 Frc consts  --      1.3924                 1.4350                 1.3552
 IR Inten    --      4.6789                 4.8632                 5.5913

                     37                     38                     39
                      A                      A                      A
 Frequencies --   1478.4431              1481.0537              1518.7560
 Red. masses --      1.0734                 1.0760                 1.0512
 Frc consts  --      1.3823                 1.3906                 1.4286
 IR Inten    --     17.2201                 8.4982                 7.4695

                     40                     41                     42
                      A                      A                      A
 Frequencies --   1677.1837              1802.8844              2958.9348
 Red. masses --      6.4941                12.2410                 1.0814
 Frc consts  --     10.7629                23.4425                 5.5781
 IR Inten    --     82.4093               265.7011                24.7990

                     43                     44                     45
                      A                      A                      A
 Frequencies --   2980.3405              3022.8997              3038.6223
 Red. masses --      1.0496                 1.0387                 1.0593
 Frc consts  --      5.4927                 5.5922                 5.7627
 IR Inten    --     73.3642                11.8004                21.5002

                     46                     47                     48
                      A                      A                      A
 Frequencies --   3070.8660              3074.2311              3081.7167
 Red. masses --      1.0992                 1.1009                 1.0812
 Frc consts  --      6.1073                 6.1303                 6.0497
 IR Inten    --      1.7597                21.7303                32.4946

                     49                     50                     51
                      A                      A                      A
 Frequencies --   3124.6337              3126.2424              3210.1193
 Red. masses --      1.0998                 1.1057                 1.0955
 Frc consts  --      6.3264                 6.3669                 6.6515
 IR Inten    --     14.6876                18.7536                 5.7349

 - Thermochemistry -
 -------------------
 Temperature   298.150 Kelvin.  Pressure   1.00000 Atm.
 Atom     1 has atomic number  6 and mass  12.00000

 Molecular mass:   126.06808 amu.
 Principal axes and moments of inertia in atomic units:
                           1         2         3
     Eigenvalues --   563.813441571.518222044.11811
           X            0.99998   0.00195  -0.00616
           Y           -0.00203   0.99991  -0.01292
           Z            0.00614   0.01293   0.99990
 This molecule is an asymmetric top.
 Rotational symmetry number  1.
 Warning -- assumption of classical behavior for rotation
           may cause significant error
 Rotational temperatures (Kelvin)      0.15362     0.05511     0.04237
 Rotational constants (GHZ):           3.20095     1.14841     0.88289
 Zero-point vibrational energy     414605.9 (Joules/Mol)
                                   99.09319 (Kcal/Mol)
 Warning -- explicit consideration of  12 degrees of freedom as
           vibrations may cause significant error
 Vibrational temperatures:     63.35   166.09   198.63   255.64   265.97
          (Kelvin)            353.94   408.90   472.92   577.96   640.91
                              729.55   824.80   913.65  1017.44  1186.15
                             1245.52  1269.97  1355.01  1444.90  1457.74
                             1506.23  1555.11  1654.05  1664.74  1701.24
                             1703.05  1714.44  1785.02  1829.85  1859.83
                             1941.76  1973.88  2029.37  2112.24  2122.60
                             2124.46  2127.15  2130.90  2185.15  2413.09
                             2593.95  4257.24  4288.04  4349.27  4371.89
                             4418.29  4423.13  4433.90  4495.65  4497.96
                             4618.64

 Zero-point correction=                           0.157915 (Hartree/Particle)
 Thermal correction to Energy=                    0.167243
 Thermal correction to Enthalpy=                  0.168187
 Thermal correction to Gibbs Free Energy=         0.123221
 Sum of electronic and zero-point Energies=           -423.059184
 Sum of electronic and thermal Energies=              -423.049856
 Sum of electronic and thermal Enthalpies=            -423.048912
 Sum of electronic and thermal Free Energies=         -423.093879

                     E (Thermal)             CV                S
                      KCal/Mol        Cal/Mol-Kelvin    Cal/Mol-Kelvin
 Total                  104.946             33.539             94.640
 Electronic               0.000              0.000              0.000
 Translational            0.889              2.981             40.409
 Rotational               0.889              2.981             28.984
 Vibrational            103.169             27.578             25.248
 Vibration     1          0.595              1.980              5.069
 Vibration     2          0.608              1.937              3.175
 Vibration     3          0.614              1.915              2.831
 Vibration     4          0.628              1.870              2.353
 Vibration     5          0.631              1.861              2.279
 Vibration     6          0.660              1.769              1.759
 Vibration     7          0.683              1.703              1.508
 Vibration     8          0.712              1.618              1.266
 Vibration     9          0.767              1.466              0.956
 Vibration    10          0.805              1.371              0.810
 Vibration    11          0.862              1.234              0.641
 Vibration    12          0.930              1.089              0.498

 Normal termination of Gaussian 09 at Tue Jan 28 14:05:32 2020.
