 Gaussian 09, Revision D.01,
 Gaussian 09:  ES64L-G09RevD.01 24-Apr-2013

 -----------------------------
 # b3lyp 6-31G(2df,p) opt Freq
 -----------------------------

 -----
 titel
 -----
 Symbolic Z-matrix:
 Charge =  0 Multiplicity = 1

 SCF Done:  E(RB3LYP) =  -423.159851334     A.U. after   14 cycles
 Optimization completed.
    -- Stationary point found.
 Normal termination of Gaussian 09 at Tue Jan 28 02:54:58 2020.

 ----------------------------------------------------------------------
 #N Geom=AllCheck Guess=TCheck SCRF=Check GenChk RB3LYP/6-31G(2df,p) Fr
 eq
 ----------------------------------------------------------------------

 Structure from the checkpoint file:  "/scratch/puck/g09_59b487f4-d6cf-43fc-b5c3-559691202bbb/Gau-11412.chk"
 -----
 titel
 -----
 Charge =  0 Multiplicity = 1

                         Standard orientation:
 ---------------------------------------------------------------------
 Center     Atomic      Atomic             Coordinates (Angstroms)
 Number     Number       Type             X           Y           Z
 ---------------------------------------------------------------------
      1          6           0       -2.776598   -0.652833   -0.419653
      2          6           0       -1.884598    0.286008    0.377019
      3          6           0       -1.082072    1.396187   -0.383014
      4          6           0        0.236519    0.898544    0.270094
      5          6           0        0.939913   -0.215159   -0.516847
      6          8           0        0.090122   -1.237718    0.053217
      7          6           0       -0.548308   -0.272963    0.929273
      8          6           0        2.390635   -0.479926   -0.158736
      9          8           0        3.210748    0.382858    0.018503
     10          1           0       -3.230060   -1.413075    0.225567
     11          1           0       -3.586639   -0.100143   -0.907066
     12          1           0       -2.200128   -1.172108   -1.190333
     13          1           0       -2.448662    0.734051    1.202909
     14          1           0       -1.100628    1.318063   -1.474454
     15          1           0       -1.361203    2.415783   -0.109773
     16          1           0        0.873246    1.608901    0.793004
     17          1           0        0.856247   -0.164662   -1.614064
     18          1           0       -0.493393   -0.584103    1.975801
     19          1           0        2.631308   -1.562970   -0.064165
 ---------------------------------------------------------------------

 SCF Done:  E(RB3LYP) =  -423.159851334     A.U. after    1 cycles

 The electronic state is 1-A.
 Alpha  occ. eigenvalues --  -19.14821 -19.14811 -10.27410 -10.24734 -10.23866
 Alpha  occ. eigenvalues --  -10.20020 -10.19423 -10.19037 -10.17610  -1.06014
 Alpha  occ. eigenvalues --   -1.04692  -0.83624  -0.75431  -0.71430  -0.65500
 Alpha  occ. eigenvalues --   -0.62858  -0.57191  -0.52565  -0.52079  -0.48525
 Alpha  occ. eigenvalues --   -0.47526  -0.45376  -0.44024  -0.41766  -0.41506
 Alpha  occ. eigenvalues --   -0.39346  -0.38406  -0.35652  -0.34193  -0.33204
 Alpha  occ. eigenvalues --   -0.30969  -0.29013  -0.28129  -0.24230
 Alpha virt. eigenvalues --   -0.03168   0.06231   0.09202   0.10354   0.11247
 Alpha virt. eigenvalues --    0.12310   0.13116   0.15174   0.15799   0.16628
 Alpha virt. eigenvalues --    0.17040   0.17654   0.19026   0.20358   0.20902

 Mulliken charges:
               1
     1  C   -0.403871
     2  C    0.021530
     3  C   -0.274990
     4  C   -0.080714
     5  C    0.041955
     6  O   -0.310984
     7  C    0.102590
     8  C    0.127813
     9  O   -0.240737
    10  H    0.117263
    11  H    0.114153
    12  H    0.128490
    13  H    0.076786
    14  H    0.100527
    15  H    0.107936
    16  H    0.097881
    17  H    0.103862
    18  H    0.078552
    19  H    0.091958
 Sum of Mulliken charges =   0.00000

 Dipole moment (field-independent basis, Debye):
    X=             -2.1611    Y=              0.3527    Z=             -0.0577  Tot=              2.1904
 Quadrupole moment (field-independent basis, Debye-Ang):
   XX=            -60.6570   YY=            -54.7804   ZZ=            -50.4497
   XY=             -4.2880   XZ=             -1.8729   YZ=              0.2980

  Exact polarizability:  90.770  -0.074  71.753  -0.470  -0.560  64.464
 Approx polarizability: 115.803   5.082 110.795  -1.573   0.304  99.353

                      1                      2                      3
                      A                      A                      A
 Frequencies --     45.8744                82.5706               149.2915
 Red. masses --      4.7375                 3.0479                 4.7108
 Frc consts  --      0.0059                 0.0122                 0.0619
 IR Inten    --      4.9346                 5.4364                 3.8813

                      4                      5                      6
                      A                      A                      A
 Frequencies --    201.6056               224.9866               277.8831
 Red. masses --      2.1713                 1.1943                 2.8059
 Frc consts  --      0.0520                 0.0356                 0.1277
 IR Inten    --      2.4529                 1.9099                 3.4569

                      7                      8                      9
                      A                      A                      A
 Frequencies --    347.5897               403.2145               515.9046
 Red. masses --      2.1022                 3.7284                 3.3917
 Frc consts  --      0.1496                 0.3571                 0.5319
 IR Inten    --      1.0353                 6.0726                 7.7094

                     10                     11                     12
                      A                      A                      A
 Frequencies --    602.2079               656.7180               770.7068
 Red. masses --      4.9746                 3.3566                 1.9994
 Frc consts  --      1.0629                 0.8529                 0.6997
 IR Inten    --      6.2312                 1.4504                 6.0312

                     13                     14                     15
                      A                      A                      A
 Frequencies --    781.2510               836.0921               878.4698
 Red. masses --      2.6777                 1.7251                 3.1280
 Frc consts  --      0.9629                 0.7105                 1.4222
 IR Inten    --      6.9263                 4.3635                 3.0355

                     16                     17                     18
                      A                      A                      A
 Frequencies --    883.7415               931.0632               960.3877
 Red. masses --      2.0431                 1.7889                 2.0798
 Frc consts  --      0.9401                 0.9137                 1.1302
 IR Inten    --      3.9648                 6.6189                35.9316

                     19                     20                     21
                      A                      A                      A
 Frequencies --    979.2726              1014.1516              1035.3425
 Red. masses --      1.9441                 2.6132                 2.6186
 Frc consts  --      1.0984                 1.5836                 1.6538
 IR Inten    --     20.4563                19.2079                46.9083

                     22                     23                     24
                      A                      A                      A
 Frequencies --   1066.0355              1086.8179              1110.5358
 Red. masses --      2.0115                 2.2063                 1.7454
 Frc consts  --      1.3469                 1.5354                 1.2682
 IR Inten    --      7.0840                16.0588                 0.6044

                     25                     26                     27
                      A                      A                      A
 Frequencies --   1131.1702              1168.2091              1196.2938
 Red. masses --      1.9767                 1.9352                 1.8163
 Frc consts  --      1.4902                 1.5561                 1.5315
 IR Inten    --      4.4206                 4.2353                 1.2820

                     28                     29                     30
                      A                      A                      A
 Frequencies --   1217.2759              1237.7737              1267.2207
 Red. masses --      1.4012                 1.4966                 1.4781
 Frc consts  --      1.2233                 1.3510                 1.3985
 IR Inten    --      1.7266                 8.8351                 1.4810

                     31                     32                     33
                      A                      A                      A
 Frequencies --   1288.6556              1292.5311              1324.5887
 Red. masses --      1.4552                 1.4739                 1.4330
 Frc consts  --      1.4238                 1.4508                 1.4813
 IR Inten    --      8.5435                 4.2404                 2.2034

                     34                     35                     36
                      A                      A                      A
 Frequencies --   1349.0946              1362.0140              1397.2118
 Red. masses --      1.4836                 1.7033                 1.2381
 Frc consts  --      1.5909                 1.8617                 1.4240
 IR Inten    --      1.7904                 2.6687                 7.0967

                     37                     38                     39
                      A                      A                      A
 Frequencies --   1408.5730              1485.1150              1492.3558
 Red. masses --      1.2584                 1.0979                 1.0439
 Frc consts  --      1.4710                 1.4267                 1.3698
 IR Inten    --      3.0033                 2.8213                 3.1231

                     40                     41                     42
                      A                      A                      A
 Frequencies --   1499.5697              1831.2927              2885.9575
 Red. masses --      1.0501                10.8539                 1.0841
 Frc consts  --      1.3913                21.4462                 5.3196
 IR Inten    --      4.2320               146.1326                99.3553

                     43                     44                     45
                      A                      A                      A
 Frequencies --   2983.7179              3033.2801              3039.8882
 Red. masses --      1.0821                 1.0405                 1.0796
 Frc consts  --      5.6759                 5.6406                 5.8781
 IR Inten    --     36.7559                23.6153                15.3004

                     46                     47                     48
                      A                      A                      A
 Frequencies --   3054.4314              3074.7251              3097.5403
 Red. masses --      1.0611                 1.0891                 1.1011
 Frc consts  --      5.8325                 6.0664                 6.2249
 IR Inten    --     37.2112                48.8907                24.8949

                     49                     50                     51
                      A                      A                      A
 Frequencies --   3110.7034              3116.6244              3141.3052
 Red. masses --      1.1047                 1.1007                 1.0904
 Frc consts  --      6.2984                 6.2993                 6.3396
 IR Inten    --     10.0859                32.4643                16.8638

 - Thermochemistry -
 -------------------
 Temperature   298.150 Kelvin.  Pressure   1.00000 Atm.
 Atom     1 has atomic number  6 and mass  12.00000

 Molecular mass:   126.06808 amu.
 Principal axes and moments of inertia in atomic units:
                           1         2         3
     Eigenvalues --   431.267821702.106771893.97279
           X            0.99997  -0.00470   0.00538
           Y            0.00467   0.99997   0.00573
           Z           -0.00540  -0.00571   0.99997
 This molecule is an asymmetric top.
 Rotational symmetry number  1.
 Rotational temperatures (Kelvin)      0.20084     0.05089     0.04573
 Rotational constants (GHZ):           4.18473     1.06030     0.95289
 Zero-point vibrational energy     414678.5 (Joules/Mol)
                                   99.11054 (Kcal/Mol)
 Warning -- explicit consideration of  10 degrees of freedom as
           vibrations may cause significant error
 Vibrational temperatures:     66.00   118.80   214.80   290.07   323.71
          (Kelvin)            399.81   500.10   580.14   742.27   866.44
                              944.87  1108.87  1124.04  1202.95  1263.92
                             1271.51  1339.59  1381.78  1408.95  1459.14
                             1489.63  1533.79  1563.69  1597.81  1627.50
                             1680.79  1721.20  1751.39  1780.88  1823.25
                             1854.09  1859.66  1905.79  1941.04  1959.63
                             2010.27  2026.62  2136.75  2147.16  2157.54
                             2634.82  4152.24  4292.90  4364.21  4373.72
                             4394.64  4423.84  4456.66  4475.60  4484.12
                             4519.63

 Zero-point correction=                           0.157943 (Hartree/Particle)
 Thermal correction to Energy=                    0.166550
 Thermal correction to Enthalpy=                  0.167494
 Thermal correction to Gibbs Free Energy=         0.123852
 Sum of electronic and zero-point Energies=           -423.001909
 Sum of electronic and thermal Energies=              -422.993302
 Sum of electronic and thermal Enthalpies=            -422.992357
 Sum of electronic and thermal Free Energies=         -423.036000

                     E (Thermal)             CV                S
                      KCal/Mol        Cal/Mol-Kelvin    Cal/Mol-Kelvin
 Total                  104.512             31.626             91.853
 Electronic               0.000              0.000              0.000
 Translational            0.889              2.981             40.409
 Rotational               0.889              2.981             28.721
 Vibrational            102.734             25.665             22.723
 Vibration     1          0.595              1.979              4.988
 Vibration     2          0.600              1.961              3.829
 Vibration     3          0.618              1.903              2.681
 Vibration     4          0.638              1.838              2.118
 Vibration     5          0.650              1.803              1.919
 Vibration     6          0.679              1.714              1.547
 Vibration     7          0.725              1.580              1.177
 Vibration     8          0.769              1.463              0.951
 Vibration     9          0.871              1.215              0.620
 Vibration    10          0.961              1.027              0.446

 Optimization completed.
    -- Stationary point found.
 Normal termination of Gaussian 09 at Tue Jan 28 03:42:40 2020.
