 Gaussian 09, Revision D.01,
 Gaussian 09:  ES64L-G09RevD.01 24-Apr-2013

 -----------------------------
 # b3lyp 6-31G(2df,p) opt Freq
 -----------------------------

 -----
 titel
 -----
 Symbolic Z-matrix:
 Charge =  0 Multiplicity = 1

 SCF Done:  E(RB3LYP) =  -423.224485831     A.U. after   13 cycles
 Optimization completed.
    -- Stationary point found.
 Normal termination of Gaussian 09 at Mon Jan 27 13:11:55 2020.

 ----------------------------------------------------------------------
 #N Geom=AllCheck Guess=TCheck SCRF=Check GenChk RB3LYP/6-31G(2df,p) Fr
 eq
 ----------------------------------------------------------------------

 Structure from the checkpoint file:  "/scratch/puck/g09_e39e6a65-1001-49ac-81ff-9e67c17e63b5/Gau-48128.chk"
 -----
 titel
 -----
 Charge =  0 Multiplicity = 1

                         Standard orientation:
 ---------------------------------------------------------------------
 Center     Atomic      Atomic             Coordinates (Angstroms)
 Number     Number       Type             X           Y           Z
 ---------------------------------------------------------------------
      1          8           0       -2.030983    1.364609   -0.373204
      2          6           0       -1.055619    0.776438    0.025816
      3          6           0        0.170495    1.496722    0.562593
      4          6           0        1.418691    1.267256   -0.321956
      5          6           0        2.232453   -0.000213   -0.000210
      6          6           0        1.418463   -1.267367    0.322071
      7          6           0        0.170187   -1.496878   -0.562338
      8          6           0       -1.055847   -0.776308   -0.025765
      9          8           0       -2.031467   -1.364208    0.373009
     10          1           0       -0.091637    2.557118    0.594539
     11          1           0        0.370151    1.168625    1.591415
     12          1           0        1.106085    1.259508   -1.373203
     13          1           0        2.077278    2.135521   -0.221731
     14          1           0        2.891807   -0.203666   -0.852268
     15          1           0        2.892436    0.203002    0.851414
     16          1           0        2.076867   -2.135806    0.222134
     17          1           0        1.105929   -1.259169    1.373339
     18          1           0        0.369834   -1.168995   -1.591237
     19          1           0       -0.092080   -2.557247   -0.594108
 ---------------------------------------------------------------------

 SCF Done:  E(RB3LYP) =  -423.224485831     A.U. after    1 cycles

 The electronic state is 1-A.
 Alpha  occ. eigenvalues --  -19.14407 -19.14407 -10.27709 -10.27690 -10.20575
 Alpha  occ. eigenvalues --  -10.20575 -10.20304 -10.20304 -10.20019  -1.06464
 Alpha  occ. eigenvalues --   -1.03933  -0.83566  -0.77889  -0.74186  -0.65897
 Alpha  occ. eigenvalues --   -0.63861  -0.57465  -0.52223  -0.48800  -0.48563
 Alpha  occ. eigenvalues --   -0.46617  -0.45472  -0.43502  -0.43174  -0.41122
 Alpha  occ. eigenvalues --   -0.40153  -0.38871  -0.38000  -0.36327  -0.34168
 Alpha  occ. eigenvalues --   -0.33982  -0.33566  -0.29017  -0.23052
 Alpha virt. eigenvalues --   -0.06045   0.01000   0.07539   0.08990   0.10407
 Alpha virt. eigenvalues --    0.11907   0.12757   0.13284   0.15675   0.16343
 Alpha virt. eigenvalues --    0.17030   0.18537   0.19586   0.21921   0.22363

 Mulliken charges:
               1
     1  O   -0.280158
     2  C    0.309993
     3  C   -0.305834
     4  C   -0.210790
     5  C   -0.189421
     6  C   -0.210792
     7  C   -0.305828
     8  C    0.309991
     9  O   -0.280158
    10  H    0.128291
    11  H    0.119659
    12  H    0.112526
    13  H    0.114712
    14  H    0.106315
    15  H    0.106311
    16  H    0.114707
    17  H    0.112516
    18  H    0.119667
    19  H    0.128292
 Sum of Mulliken charges =   0.00000

 Dipole moment (field-independent basis, Debye):
    X=              4.7904    Y=             -0.0006    Z=              0.0004  Tot=              4.7904
 Quadrupole moment (field-independent basis, Debye-Ang):
   XX=            -62.5249   YY=            -54.4290   ZZ=            -51.4126
   XY=              0.0005   XZ=             -0.0004   YZ=              2.4687

  Exact polarizability:  86.005   0.000  80.019   0.001  -0.128  60.724
 Approx polarizability: 126.069  -0.001 111.951   0.002  -4.439  98.147

                      1                      2                      3
                      A                      A                      A
 Frequencies --     43.8098                85.8985               203.9113
 Red. masses --      6.0510                 3.0262                 1.8838
 Frc consts  --      0.0068                 0.0132                 0.0461
 IR Inten    --      0.3197                 2.5713                 0.5372

                      4                      5                      6
                      A                      A                      A
 Frequencies --    231.7721               260.9993               287.9308
 Red. masses --      2.4244                 4.2169                 4.5240
 Frc consts  --      0.0767                 0.1692                 0.2210
 IR Inten    --      0.3578                 2.9951                 0.1687

                      7                      8                      9
                      A                      A                      A
 Frequencies --    323.9929               373.7321               503.2396
 Red. masses --      2.7928                 5.8200                 2.0167
 Frc consts  --      0.1727                 0.4790                 0.3009
 IR Inten    --      5.3473                 4.7143                 0.8168

                     10                     11                     12
                      A                      A                      A
 Frequencies --    516.4539               630.0234               676.6567
 Red. masses --      2.8124                 3.3541                 2.1041
 Frc consts  --      0.4420                 0.7844                 0.5676
 IR Inten    --     13.8173                 0.4019                 3.3708

                     13                     14                     15
                      A                      A                      A
 Frequencies --    721.2943               804.9903               807.7371
 Red. masses --      3.2235                 1.6686                 2.8511
 Frc consts  --      0.9881                 0.6370                 1.0960
 IR Inten    --      0.0688                 2.2432                 0.1758

                     16                     17                     18
                      A                      A                      A
 Frequencies --    885.8887               903.0008               930.2700
 Red. masses --      2.5503                 2.5070                 2.1949
 Frc consts  --      1.1792                 1.2044                 1.1191
 IR Inten    --     16.1788                 7.7513                19.8316

                     19                     20                     21
                      A                      A                      A
 Frequencies --    989.8093              1010.8079              1024.8270
 Red. masses --      1.7237                 1.7616                 2.3615
 Frc consts  --      0.9950                 1.0605                 1.4613
 IR Inten    --      0.5432                16.5833                 0.2093

                     22                     23                     24
                      A                      A                      A
 Frequencies --   1096.7264              1117.7277              1132.2443
 Red. masses --      2.2974                 2.5028                 1.5964
 Frc consts  --      1.6281                 1.8422                 1.2058
 IR Inten    --     34.8722                 0.3272                 2.1279

                     25                     26                     27
                      A                      A                      A
 Frequencies --   1201.9531              1205.0080              1229.8634
 Red. masses --      1.3336                 1.7529                 1.2810
 Frc consts  --      1.1351                 1.4996                 1.1416
 IR Inten    --      0.4355                20.4155                 4.1964

                     28                     29                     30
                      A                      A                      A
 Frequencies --   1291.3724              1305.6087              1336.5003
 Red. masses --      1.3695                 1.4193                 1.4677
 Frc consts  --      1.3456                 1.4254                 1.5447
 IR Inten    --      4.4037                17.3579                 3.5287

                     31                     32                     33
                      A                      A                      A
 Frequencies --   1337.6221              1363.0733              1387.5806
 Red. masses --      1.3014                 1.3328                 1.3643
 Frc consts  --      1.3719                 1.4590                 1.5477
 IR Inten    --      5.1142                 2.0282                 1.6165

                     34                     35                     36
                      A                      A                      A
 Frequencies --   1391.2349              1468.4070              1469.3445
 Red. masses --      1.3549                 1.0921                 1.0972
 Frc consts  --      1.5451                 1.3875                 1.3957
 IR Inten    --     10.0716                 0.2098                18.2902

                     37                     38                     39
                      A                      A                      A
 Frequencies --   1487.6582              1504.2379              1507.3971
 Red. masses --      1.0728                 1.0752                 1.0908
 Frc consts  --      1.3989                 1.4334                 1.4604
 IR Inten    --      0.0862                10.7897                 0.7486

                     40                     41                     42
                      A                      A                      A
 Frequencies --   1802.6740              1806.3132              3022.0404
 Red. masses --     11.9878                12.1646                 1.0683
 Frc consts  --     22.9523                23.3849                 5.7485
 IR Inten    --    209.6046                58.2440                 2.8301

                     43                     44                     45
                      A                      A                      A
 Frequencies --   3026.4638              3027.4809              3035.1864
 Red. masses --      1.0649                 1.0601                 1.0655
 Frc consts  --      5.7468                 5.7246                 5.7831
 IR Inten    --      0.0032                20.1124                37.1843

                     46                     47                     48
                      A                      A                      A
 Frequencies --   3036.9231              3061.2429              3076.7141
 Red. masses --      1.0665                 1.0946                 1.0984
 Frc consts  --      5.7951                 6.0437                 6.1260
 IR Inten    --      7.6898                20.5772                27.1854

                     49                     50                     51
                      A                      A                      A
 Frequencies --   3083.4860              3104.3133              3104.8957
 Red. masses --      1.1030                 1.0970                 1.0966
 Frc consts  --      6.1788                 6.2287                 6.2288
 IR Inten    --     44.1093                25.0242                 0.0580

 - Thermochemistry -
 -------------------
 Temperature   298.150 Kelvin.  Pressure   1.00000 Atm.
 Atom     1 has atomic number  8 and mass  15.99491

 Molecular mass:   126.06808 amu.
 Principal axes and moments of inertia in atomic units:
                           1         2         3
     Eigenvalues --   787.320901143.741821747.59719
           X            1.00000   0.00000   0.00000
           Y            0.00000   0.99988   0.01581
           Z            0.00000  -0.01581   0.99988
 This molecule is an asymmetric top.
 Rotational symmetry number  1.
 Warning -- assumption of classical behavior for rotation
           may cause significant error
 Rotational temperatures (Kelvin)      0.11001     0.07573     0.04956
 Rotational constants (GHZ):           2.29226     1.57793     1.03270
 Zero-point vibrational energy     420118.6 (Joules/Mol)
                                  100.41075 (Kcal/Mol)
 Warning -- explicit consideration of  10 degrees of freedom as
           vibrations may cause significant error
 Vibrational temperatures:     63.03   123.59   293.38   333.47   375.52
          (Kelvin)            414.27   466.15   537.72   724.05   743.06
                              906.46   973.56  1037.78  1158.20  1162.15
                             1274.59  1299.22  1338.45  1424.11  1454.33
                             1474.50  1577.94  1608.16  1629.05  1729.34
                             1733.74  1769.50  1857.99  1878.48  1922.92
                             1924.54  1961.16  1996.42  2001.67  2112.71
                             2114.06  2140.41  2164.26  2168.81  2593.64
                             2598.88  4348.04  4354.40  4355.86  4366.95
                             4369.45  4404.44  4426.70  4436.44  4466.41
                             4467.25

 Zero-point correction=                           0.160015 (Hartree/Particle)
 Thermal correction to Energy=                    0.168595
 Thermal correction to Enthalpy=                  0.169539
 Thermal correction to Gibbs Free Energy=         0.126095
 Sum of electronic and zero-point Energies=           -423.064471
 Sum of electronic and thermal Energies=              -423.055891
 Sum of electronic and thermal Enthalpies=            -423.054947
 Sum of electronic and thermal Free Energies=         -423.098391

                     E (Thermal)             CV                S
                      KCal/Mol        Cal/Mol-Kelvin    Cal/Mol-Kelvin
 Total                  105.795             31.806             91.435
 Electronic               0.000              0.000              0.000
 Translational            0.889              2.981             40.409
 Rotational               0.889              2.981             28.844
 Vibrational            104.017             25.844             22.183
 Vibration     1          0.595              1.980              5.079
 Vibration     2          0.601              1.959              3.751
 Vibration     3          0.640              1.834              2.098
 Vibration     4          0.653              1.792              1.865
 Vibration     5          0.669              1.744              1.655
 Vibration     6          0.685              1.696              1.486
 Vibration     7          0.709              1.627              1.290
 Vibration     8          0.745              1.526              1.064
 Vibration     9          0.859              1.243              0.650
 Vibration    10          0.871              1.214              0.618

 Normal termination of Gaussian 09 at Mon Jan 27 13:55:28 2020.
