 Gaussian 09, Revision D.01,
 Gaussian 09:  ES64L-G09RevD.01 24-Apr-2013

 -----------------------------
 # b3lyp 6-31G(2df,p) opt Freq
 -----------------------------

 -----
 titel
 -----
 Symbolic Z-matrix:
 Charge =  0 Multiplicity = 1

 SCF Done:  E(RB3LYP) =  -423.131088533     A.U. after   14 cycles
 Optimization completed.
    -- Stationary point found.
 Normal termination of Gaussian 09 at Tue Jan 28 08:54:40 2020.

 ----------------------------------------------------------------------
 #N Geom=AllCheck Guess=TCheck SCRF=Check GenChk RB3LYP/6-31G(2df,p) Fr
 eq
 ----------------------------------------------------------------------

 Structure from the checkpoint file:  "/scratch/puck/g09_fe9b9f91-bf5f-4158-98e9-bffaffc41db6/Gau-129658.chk"
 -----
 titel
 -----
 Charge =  0 Multiplicity = 1

                         Standard orientation:
 ---------------------------------------------------------------------
 Center     Atomic      Atomic             Coordinates (Angstroms)
 Number     Number       Type             X           Y           Z
 ---------------------------------------------------------------------
      1          6           0        1.283096    0.438779    1.615193
      2          6           0        0.500577    0.178303    0.343323
      3          6           0        0.746357   -1.222645   -0.224266
      4          8           0        2.086879   -1.332790   -0.661398
      5          8           0        0.843263    1.144273   -0.702030
      6          6           0       -0.542065    1.458968   -0.938168
      7          6           0       -0.987224    0.667239    0.319072
      8          6           0       -2.063981   -0.292375    0.200667
      9          6           0       -2.963956   -1.083502    0.097998
     10          1           0        0.894042   -0.180736    2.430586
     11          1           0        2.334661    0.183341    1.461055
     12          1           0        1.211018    1.490057    1.906174
     13          1           0        0.588615   -1.986150    0.544071
     14          1           0        0.037501   -1.421240   -1.041173
     15          1           0        2.228923   -0.576176   -1.245429
     16          1           0       -0.726667    2.537550   -0.921860
     17          1           0       -0.912700    1.038122   -1.879861
     18          1           0       -1.175992    1.338624    1.161881
     19          1           0       -3.757365   -1.783854    0.009067
 ---------------------------------------------------------------------

 SCF Done:  E(RB3LYP) =  -423.131088533     A.U. after    1 cycles

 The electronic state is 1-A.
 Alpha  occ. eigenvalues --  -19.14462 -19.13119 -10.24878 -10.24398 -10.22374
 Alpha  occ. eigenvalues --  -10.22253 -10.19054 -10.18201 -10.17876  -1.05247
 Alpha  occ. eigenvalues --   -1.01047  -0.80355  -0.76483  -0.72284  -0.68413
 Alpha  occ. eigenvalues --   -0.64465  -0.57007  -0.53945  -0.50636  -0.49798
 Alpha  occ. eigenvalues --   -0.48099  -0.46966  -0.42893  -0.42352  -0.40751
 Alpha  occ. eigenvalues --   -0.38967  -0.37520  -0.36192  -0.33428  -0.32453
 Alpha  occ. eigenvalues --   -0.28046  -0.27174  -0.26890  -0.25006
 Alpha virt. eigenvalues --    0.03273   0.04074   0.07266   0.09567   0.11581
 Alpha virt. eigenvalues --    0.12171   0.12661   0.13075   0.15514   0.16289
 Alpha virt. eigenvalues --    0.17480   0.18025   0.18742   0.19392   0.20319

 Mulliken charges:
               1
     1  C   -0.447824
     2  C    0.399373
     3  C   -0.103779
     4  O   -0.423093
     5  O   -0.333078
     6  C   -0.085467
     7  C   -0.305601
     8  C    0.336488
     9  C   -0.458543
    10  H    0.122902
    11  H    0.142895
    12  H    0.117831
    13  H    0.112484
    14  H    0.093591
    15  H    0.290502
    16  H    0.114800
    17  H    0.112869
    18  H    0.111994
    19  H    0.201656
 Sum of Mulliken charges =   0.00000

 Dipole moment (field-independent basis, Debye):
    X=             -1.8180    Y=              0.9241    Z=              0.4116  Tot=              2.0805
 Quadrupole moment (field-independent basis, Debye-Ang):
   XX=            -55.0061   YY=            -53.2266   ZZ=            -51.5021
   XY=              3.6299   XZ=              1.3449   YZ=             -0.3455

  Exact polarizability:  89.214  10.155  76.438   3.108  -1.160  65.807
 Approx polarizability: 128.547  22.548 116.098   2.123  -1.765  94.538

                      1                      2                      3
                      A                      A                      A
 Frequencies --     77.8215               112.8394               128.5791
 Red. masses --      3.1087                 3.4349                 4.0061
 Frc consts  --      0.0111                 0.0258                 0.0390
 IR Inten    --      0.3222                 3.6464                 2.2391

                      4                      5                      6
                      A                      A                      A
 Frequencies --    186.8535               223.6392               249.2493
 Red. masses --      2.6028                 1.2398                 3.1442
 Frc consts  --      0.0535                 0.0365                 0.1151
 IR Inten    --      1.6887                 0.3190                 0.2254

                      7                      8                      9
                      A                      A                      A
 Frequencies --    300.3052               342.7602               370.4035
 Red. masses --      2.9376                 2.1671                 4.6529
 Frc consts  --      0.1561                 0.1500                 0.3761
 IR Inten    --      0.3817                 5.1479                 3.6625

                     10                     11                     12
                      A                      A                      A
 Frequencies --    472.4472               499.4254               513.1763
 Red. masses --      3.0552                 1.5291                 2.6427
 Frc consts  --      0.4018                 0.2247                 0.4100
 IR Inten    --      2.1696                85.5807                29.0368

                     13                     14                     15
                      A                      A                      A
 Frequencies --    583.9537               626.9435               644.2116
 Red. masses --      4.6444                 1.2597                 1.2391
 Frc consts  --      0.9331                 0.2917                 0.3030
 IR Inten    --      4.8205                39.0682                40.2414

                     16                     17                     18
                      A                      A                      A
 Frequencies --    674.2740               755.0361               870.2765
 Red. masses --      2.9580                 3.3170                 2.6461
 Frc consts  --      0.7923                 1.1141                 1.1808
 IR Inten    --     12.9569                 4.1791                26.7457

                     19                     20                     21
                      A                      A                      A
 Frequencies --    912.9942               931.0290               977.0549
 Red. masses --      1.8528                 1.5738                 1.9456
 Frc consts  --      0.9099                 0.8038                 1.0943
 IR Inten    --      3.7427                 2.1642                11.0908

                     22                     23                     24
                      A                      A                      A
 Frequencies --   1009.1371              1046.1479              1074.8868
 Red. masses --      6.0650                 3.0554                 3.5087
 Frc consts  --      3.6390                 1.9702                 2.3885
 IR Inten    --     87.3417                22.4896                98.3830

                     25                     26                     27
                      A                      A                      A
 Frequencies --   1089.8044              1127.8153              1167.5562
 Red. masses --      2.9068                 1.9188                 1.1992
 Frc consts  --      2.0341                 1.4380                 0.9632
 IR Inten    --      3.2440                 8.5969                 4.8019

                     28                     29                     30
                      A                      A                      A
 Frequencies --   1174.1047              1198.7898              1247.6393
 Red. masses --      1.8076                 1.6294                 1.7911
 Frc consts  --      1.4682                 1.3797                 1.6427
 IR Inten    --      7.2963                17.7344                 4.6672

                     31                     32                     33
                      A                      A                      A
 Frequencies --   1282.9395              1332.4273              1365.1625
 Red. masses --      1.7422                 1.3699                 1.5730
 Frc consts  --      1.6895                 1.4329                 1.7272
 IR Inten    --     10.9790                15.7617                 3.4743

                     34                     35                     36
                      A                      A                      A
 Frequencies --   1381.3763              1406.5923              1431.2484
 Red. masses --      1.2571                 1.3897                 1.2622
 Frc consts  --      1.4133                 1.6200                 1.5234
 IR Inten    --      7.9246                23.2527                58.5945

                     37                     38                     39
                      A                      A                      A
 Frequencies --   1477.5527              1494.5016              1499.0775
 Red. masses --      1.0562                 1.0516                 1.0942
 Frc consts  --      1.3586                 1.3839                 1.4488
 IR Inten    --      3.3492                 4.6449                 1.7580

                     40                     41                     42
                      A                      A                      A
 Frequencies --   1523.7126              2234.5968              3000.2793
 Red. masses --      1.0966                 5.9691                 1.0675
 Frc consts  --      1.5001                17.5613                 5.6616
 IR Inten    --      0.9576                 2.0884                39.2880

                     43                     44                     45
                      A                      A                      A
 Frequencies --   3030.1099              3039.5303              3060.7203
 Red. masses --      1.0565                 1.0362                 1.0861
 Frc consts  --      5.7155                 5.6403                 5.9947
 IR Inten    --     62.0887                 7.0415                 3.6537

                     46                     47                     48
                      A                      A                      A
 Frequencies --   3082.2477              3086.6975              3112.7421
 Red. masses --      1.0957                 1.1076                 1.1001
 Frc consts  --      6.1331                 6.2176                 6.2802
 IR Inten    --     25.6392                36.9817                18.2284

                     49                     50                     51
                      A                      A                      A
 Frequencies --   3129.6221              3502.0565              3768.1522
 Red. masses --      1.1020                 1.1614                 1.0651
 Frc consts  --      6.3597                 8.3924                 8.9105
 IR Inten    --     11.0310                74.0216                29.2331

 - Thermochemistry -
 -------------------
 Temperature   298.150 Kelvin.  Pressure   1.00000 Atm.
 Atom     1 has atomic number  6 and mass  12.00000

 Molecular mass:   126.06808 amu.
 Principal axes and moments of inertia in atomic units:
                           1         2         3
     Eigenvalues --   778.734841404.875811606.19770
           X            0.99957   0.01003   0.02751
           Y           -0.01056   0.99976   0.01933
           Z           -0.02731  -0.01961   0.99943
 This molecule is an asymmetric top.
 Rotational symmetry number  1.
 Warning -- assumption of classical behavior for rotation
           may cause significant error
 Rotational temperatures (Kelvin)      0.11122     0.06165     0.05392
 Rotational constants (GHZ):           2.31753     1.28463     1.12361
 Zero-point vibrational energy     411697.8 (Joules/Mol)
                                   98.39814 (Kcal/Mol)
 Warning -- explicit consideration of  13 degrees of freedom as
           vibrations may cause significant error
 Vibrational temperatures:    111.97   162.35   185.00   268.84   321.77
          (Kelvin)            358.61   432.07   493.15   532.93   679.75
                              718.56   738.35   840.18   902.03   926.88
                              970.13  1086.33  1252.13  1313.59  1339.54
                             1405.76  1451.92  1505.17  1546.52  1567.98
                             1622.67  1679.85  1689.27  1724.79  1795.07
                             1845.86  1917.06  1964.16  1987.49  2023.77
                             2059.24  2125.87  2150.25  2156.84  2192.28
                             3215.08  4316.73  4359.65  4373.20  4403.69
                             4434.66  4441.06  4478.54  4502.82  5038.67
                             5421.52

 Zero-point correction=                           0.156807 (Hartree/Particle)
 Thermal correction to Energy=                    0.166367
 Thermal correction to Enthalpy=                  0.167311
 Thermal correction to Gibbs Free Energy=         0.122557
 Sum of electronic and zero-point Energies=           -422.974281
 Sum of electronic and thermal Energies=              -422.964722
 Sum of electronic and thermal Enthalpies=            -422.963778
 Sum of electronic and thermal Free Energies=         -423.008531

                     E (Thermal)             CV                S
                      KCal/Mol        Cal/Mol-Kelvin    Cal/Mol-Kelvin
 Total                  104.397             35.673             94.192
 Electronic               0.000              0.000              0.000
 Translational            0.889              2.981             40.409
 Rotational               0.889              2.981             28.954
 Vibrational            102.619             29.711             24.830
 Vibration     1          0.599              1.964              3.945
 Vibration     2          0.607              1.939              3.219
 Vibration     3          0.611              1.925              2.967
 Vibration     4          0.632              1.858              2.259
 Vibration     5          0.649              1.805              1.929
 Vibration     6          0.662              1.764              1.736
 Vibration     7          0.693              1.673              1.415
 Vibration     8          0.722              1.590              1.199
 Vibration     9          0.742              1.533              1.078
 Vibration    10          0.829              1.311              0.731
 Vibration    11          0.855              1.251              0.660
 Vibration    12          0.868              1.221              0.626
 Vibration    13          0.941              1.066              0.478

 Optimization completed.
    -- Stationary point found.
 Normal termination of Gaussian 09 at Tue Jan 28 09:36:51 2020.
