 Gaussian 09, Revision D.01,
 Gaussian 09:  ES64L-G09RevD.01 24-Apr-2013

 -----------------------------
 # b3lyp 6-31G(2df,p) opt Freq
 -----------------------------

 -----
 titel
 -----
 Symbolic Z-matrix:
 Charge =  0 Multiplicity = 1

 SCF Done:  E(RB3LYP) =  -423.208556695     A.U. after   14 cycles
 Optimization completed.
    -- Stationary point found.
 Normal termination of Gaussian 09 at Mon Jan 27 13:20:48 2020.

 ----------------------------------------------------------------------
 #N Geom=AllCheck Guess=TCheck SCRF=Check GenChk RB3LYP/6-31G(2df,p) Fr
 eq
 ----------------------------------------------------------------------

 Structure from the checkpoint file:  "/scratch/puck/g09_962b51a8-68ef-455a-a277-9874d6c32808/Gau-168446.chk"
 -----
 titel
 -----
 Charge =  0 Multiplicity = 1

                         Standard orientation:
 ---------------------------------------------------------------------
 Center     Atomic      Atomic             Coordinates (Angstroms)
 Number     Number       Type             X           Y           Z
 ---------------------------------------------------------------------
      1          8           0        3.093545   -0.109328    0.024918
      2          6           0        1.939433   -0.227371   -0.302052
      3          6           0        0.789525    0.503280    0.348989
      4          6           0       -0.107272    1.283949   -0.678049
      5          6           0       -1.519484    0.699763   -0.431029
      6          6           0       -1.512294   -0.754210   -0.924247
      7          8           0       -0.645926   -1.430392    0.011880
      8          6           0       -0.260559   -0.450771    0.986535
      9          6           0       -1.495929    0.451334    1.091690
     10          1           0        1.643743   -0.902027   -1.134722
     11          1           0        1.211341    1.165957    1.109385
     12          1           0       -0.072469    2.357502   -0.477465
     13          1           0        0.218576    1.134679   -1.713141
     14          1           0       -2.338579    1.301080   -0.826626
     15          1           0       -2.508260   -1.214760   -0.895989
     16          1           0       -1.109553   -0.859629   -1.938937
     17          1           0        0.076505   -0.972781    1.882063
     18          1           0       -2.371861   -0.083667    1.467418
     19          1           0       -1.330916    1.355563    1.682596
 ---------------------------------------------------------------------

 SCF Done:  E(RB3LYP) =  -423.208556695     A.U. after    1 cycles

 The electronic state is 1-A.
 Alpha  occ. eigenvalues --  -19.14381 -19.13289 -10.26325 -10.24432 -10.23361
 Alpha  occ. eigenvalues --  -10.20402 -10.19976 -10.19636 -10.19366  -1.04442
 Alpha  occ. eigenvalues --   -1.03820  -0.84377  -0.76645  -0.73241  -0.65675
 Alpha  occ. eigenvalues --   -0.59604  -0.58860  -0.54955  -0.53213  -0.49700
 Alpha  occ. eigenvalues --   -0.47019  -0.44562  -0.42514  -0.41233  -0.40260
 Alpha  occ. eigenvalues --   -0.38953  -0.37872  -0.37325  -0.36172  -0.34640
 Alpha  occ. eigenvalues --   -0.33482  -0.31149  -0.26014  -0.23839
 Alpha virt. eigenvalues --   -0.01762   0.07318   0.09604   0.11443   0.12487
 Alpha virt. eigenvalues --    0.13629   0.14050   0.14635   0.15177   0.16103
 Alpha virt. eigenvalues --    0.16729   0.17689   0.19289   0.20374   0.22322

 Mulliken charges:
               1
     1  O   -0.260353
     2  C    0.153490
     3  C   -0.070565
     4  C   -0.255299
     5  C   -0.037109
     6  C   -0.074305
     7  O   -0.281568
     8  C    0.087181
     9  C   -0.233470
    10  H    0.085563
    11  H    0.091410
    12  H    0.112084
    13  H    0.106693
    14  H    0.074055
    15  H    0.101290
    16  H    0.100146
    17  H    0.087831
    18  H    0.108413
    19  H    0.104513
 Sum of Mulliken charges =   0.00000

 Dipole moment (field-independent basis, Debye):
    X=             -3.4162    Y=              1.5986    Z=             -0.2395  Tot=              3.7793
 Quadrupole moment (field-independent basis, Debye-Ang):
   XX=            -62.8098   YY=            -54.6584   ZZ=            -49.9162
   XY=             -0.4831   XZ=             -0.1584   YZ=              0.1863

  Exact polarizability:  86.561   0.335  66.812   2.215   2.549  70.886
 Approx polarizability: 123.450   0.642 101.611   6.101   3.881 106.555

                      1                      2                      3
                      A                      A                      A
 Frequencies --     55.3361               108.1509               244.3336
 Red. masses --      4.4624                 3.5643                 3.4721
 Frc consts  --      0.0081                 0.0246                 0.1221
 IR Inten    --      5.0074                 0.5484                 8.1692

                      4                      5                      6
                      A                      A                      A
 Frequencies --    301.8210               381.5152               406.4578
 Red. masses --      2.3068                 1.8418                 4.6593
 Frc consts  --      0.1238                 0.1579                 0.4535
 IR Inten    --      3.7622                 0.7135                 0.6468

                      7                      8                      9
                      A                      A                      A
 Frequencies --    468.6805               473.9791               619.1285
 Red. masses --      3.5407                 2.1000                 4.4358
 Frc consts  --      0.4582                 0.2780                 1.0018
 IR Inten    --      7.4002                 1.0515                 4.6813

                     10                     11                     12
                      A                      A                      A
 Frequencies --    783.1575               804.5779               831.2700
 Red. masses --      4.0090                 3.8685                 2.7110
 Frc consts  --      1.4487                 1.4755                 1.1037
 IR Inten    --      3.0363                 1.8521                 4.2608

                     13                     14                     15
                      A                      A                      A
 Frequencies --    849.1023               894.8855               916.3933
 Red. masses --      2.2918                 2.1269                 2.5656
 Frc consts  --      0.9735                 1.0035                 1.2694
 IR Inten    --      1.6903                22.3502                22.4312

                     16                     17                     18
                      A                      A                      A
 Frequencies --    931.8431               955.9608               965.4413
 Red. masses --      2.4650                 3.1014                 1.8136
 Frc consts  --      1.2611                 1.6699                 0.9959
 IR Inten    --      5.5873                 2.3341                 1.5420

                     19                     20                     21
                      A                      A                      A
 Frequencies --    971.2146              1009.0273              1025.2338
 Red. masses --      1.9799                 2.1094                 1.6096
 Frc consts  --      1.1003                 1.2654                 0.9968
 IR Inten    --      3.3076                20.8768                12.1895

                     22                     23                     24
                      A                      A                      A
 Frequencies --   1042.2208              1099.5204              1106.3231
 Red. masses --      2.4225                 1.5519                 2.2047
 Frc consts  --      1.5504                 1.1054                 1.5899
 IR Inten    --     43.2401                 6.6249                30.9143

                     25                     26                     27
                      A                      A                      A
 Frequencies --   1144.3728              1177.6350              1192.3170
 Red. masses --      1.2111                 1.6405                 1.2993
 Frc consts  --      0.9344                 1.3405                 1.0883
 IR Inten    --      0.2567                29.6853                 6.2418

                     28                     29                     30
                      A                      A                      A
 Frequencies --   1240.8054              1246.0748              1268.1406
 Red. masses --      1.5410                 1.4680                 1.3732
 Frc consts  --      1.3979                 1.3429                 1.3011
 IR Inten    --      6.9512                 2.7007                 1.1895

                     31                     32                     33
                      A                      A                      A
 Frequencies --   1287.1480              1305.0446              1319.0881
 Red. masses --      1.4676                 1.4897                 1.4223
 Frc consts  --      1.4326                 1.4949                 1.4582
 IR Inten    --      3.3240                 2.5917                 2.8832

                     34                     35                     36
                      A                      A                      A
 Frequencies --   1326.6417              1342.8662              1386.6710
 Red. masses --      1.5228                 1.4338                 1.3886
 Frc consts  --      1.5790                 1.5234                 1.5732
 IR Inten    --      0.4320                 4.5501                 1.1279

                     37                     38                     39
                      A                      A                      A
 Frequencies --   1427.3564              1485.8184              1497.1328
 Red. masses --      1.2100                 1.0937                 1.1058
 Frc consts  --      1.4524                 1.4226                 1.4603
 IR Inten    --      4.7133                 4.6289                 3.5875

                     40                     41                     42
                      A                      A                      A
 Frequencies --   1530.9724              1825.2640              2896.5753
 Red. masses --      1.0949                10.1041                 1.0828
 Frc consts  --      1.5120                19.8335                 5.3525
 IR Inten    --      0.0533               211.3610                70.2642

                     43                     44                     45
                      A                      A                      A
 Frequencies --   3012.2203              3045.9262              3052.6418
 Red. masses --      1.0572                 1.0716                 1.0997
 Frc consts  --      5.6519                 5.8574                 6.0375
 IR Inten    --     68.8133                 9.7799                54.0888

                     46                     47                     48
                      A                      A                      A
 Frequencies --   3066.7245              3075.2787              3099.7509
 Red. masses --      1.0595                 1.0864                 1.1002
 Frc consts  --      5.8706                 6.0533                 6.2285
 IR Inten    --     18.1154                 6.5157                21.0799

                     49                     50                     51
                      A                      A                      A
 Frequencies --   3114.7735              3123.3146              3125.2137
 Red. masses --      1.0880                 1.1077                 1.0912
 Frc consts  --      6.2189                 6.3664                 6.2793
 IR Inten    --     40.7224                22.1517                19.8111

 - Thermochemistry -
 -------------------
 Temperature   298.150 Kelvin.  Pressure   1.00000 Atm.
 Atom     1 has atomic number  8 and mass  15.99491

 Molecular mass:   126.06808 amu.
 Principal axes and moments of inertia in atomic units:
                           1         2         3
     Eigenvalues --   556.525081377.993151462.54595
           X            0.99999  -0.00378  -0.00042
           Y            0.00380   0.99865   0.05173
           Z            0.00022  -0.05173   0.99866
 This molecule is an asymmetric top.
 Rotational symmetry number  1.
 Warning -- assumption of classical behavior for rotation
           may cause significant error
 Rotational temperatures (Kelvin)      0.15563     0.06286     0.05922
 Rotational constants (GHZ):           3.24287     1.30969     1.23397
 Zero-point vibrational energy     423844.9 (Joules/Mol)
                                  101.30137 (Kcal/Mol)
 Warning -- explicit consideration of   9 degrees of freedom as
           vibrations may cause significant error
 Vibrational temperatures:     79.62   155.60   351.54   434.25   548.91
          (Kelvin)            584.80   674.33   681.95   890.79  1126.79
                             1157.61  1196.01  1221.67  1287.54  1318.48
                             1340.71  1375.41  1389.05  1397.36  1451.76
                             1475.08  1499.52  1581.96  1591.75  1646.50
                             1694.35  1715.48  1785.24  1792.82  1824.57
                             1851.92  1877.67  1897.87  1908.74  1932.08
                             1995.11  2053.64  2137.76  2154.04  2202.73
                             2626.14  4167.52  4333.91  4382.40  4392.07
                             4412.33  4424.63  4459.84  4481.46  4493.75
                             4496.48

 Zero-point correction=                           0.161434 (Hartree/Particle)
 Thermal correction to Energy=                    0.168901
 Thermal correction to Enthalpy=                  0.169845
 Thermal correction to Gibbs Free Energy=         0.128894
 Sum of electronic and zero-point Energies=           -423.047123
 Sum of electronic and thermal Energies=              -423.039656
 Sum of electronic and thermal Enthalpies=            -423.038712
 Sum of electronic and thermal Free Energies=         -423.079663

                     E (Thermal)             CV                S
                      KCal/Mol        Cal/Mol-Kelvin    Cal/Mol-Kelvin
 Total                  105.987             29.057             86.189
 Electronic               0.000              0.000              0.000
 Translational            0.889              2.981             40.409
 Rotational               0.889              2.981             28.508
 Vibrational            104.209             23.096             17.272
 Vibration     1          0.596              1.975              4.617
 Vibration     2          0.606              1.943              3.302
 Vibration     3          0.660              1.772              1.771
 Vibration     4          0.694              1.670              1.407
 Vibration     5          0.751              1.510              1.033
 Vibration     6          0.771              1.456              0.939
 Vibration     7          0.826              1.320              0.741
 Vibration     8          0.831              1.308              0.726
 Vibration     9          0.979              0.992              0.418

 Optimization completed.
    -- Stationary point found.
 Normal termination of Gaussian 09 at Mon Jan 27 14:09:39 2020.
