 Gaussian 09, Revision D.01,
 Gaussian 09:  ES64L-G09RevD.01 24-Apr-2013

 -----------------------------
 # b3lyp 6-31G(2df,p) opt Freq
 -----------------------------

 -----
 titel
 -----
 Symbolic Z-matrix:
 Charge =  0 Multiplicity = 1

 SCF Done:  E(RB3LYP) =  -423.196251827     A.U. after   13 cycles
 Optimization completed.
    -- Stationary point found.
 Normal termination of Gaussian 09 at Mon Jan 27 18:09:32 2020.

 ----------------------------------------------------------------------
 #N Geom=AllCheck Guess=TCheck SCRF=Check GenChk RB3LYP/6-31G(2df,p) Fr
 eq
 ----------------------------------------------------------------------

 Structure from the checkpoint file:  "/scratch/puck/g09_484d7511-c5b1-4bc0-b96d-43cf061b5e24/Gau-181838.chk"
 -----
 titel
 -----
 Charge =  0 Multiplicity = 1

                         Standard orientation:
 ---------------------------------------------------------------------
 Center     Atomic      Atomic             Coordinates (Angstroms)
 Number     Number       Type             X           Y           Z
 ---------------------------------------------------------------------
      1          6           0       -2.424500   -0.369411    0.142413
      2          6           0       -0.973642   -0.002157   -0.093844
      3          6           0       -0.594154    1.465280   -0.444308
      4          6           0        0.734851    1.235880    0.302529
      5          8           0        1.665951    0.497543   -0.500640
      6          6           0        1.218747   -0.850060   -0.384128
      7          6           0       -0.179066   -0.962519   -1.021314
      8          8           0        0.945652   -1.019293    0.998053
      9          6           0        0.057666    0.071877    1.107251
     10          1           0       -2.513283   -1.381948    0.551707
     11          1           0       -2.900002    0.322640    0.846287
     12          1           0       -2.998546   -0.337126   -0.790906
     13          1           0       -0.526218    1.741032   -1.499600
     14          1           0       -1.227847    2.186463    0.083473
     15          1           0        1.257608    2.062508    0.783843
     16          1           0        2.001456   -1.528884   -0.719145
     17          1           0       -0.191449   -0.655716   -2.069673
     18          1           0       -0.543832   -1.991167   -0.942957
     19          1           0       -0.290117    0.222858    2.126066
 ---------------------------------------------------------------------

 SCF Done:  E(RB3LYP) =  -423.196251827     A.U. after    1 cycles

 The electronic state is 1-A.
 Alpha  occ. eigenvalues --  -19.14746 -19.14206 -10.27492 -10.23139 -10.23065
 Alpha  occ. eigenvalues --  -10.19981 -10.18323 -10.18140 -10.17958  -1.09679
 Alpha  occ. eigenvalues --   -0.99331  -0.84361  -0.76648  -0.71049  -0.66119
 Alpha  occ. eigenvalues --   -0.61492  -0.59096  -0.55784  -0.51393  -0.47912
 Alpha  occ. eigenvalues --   -0.45637  -0.44043  -0.42849  -0.42618  -0.40408
 Alpha  occ. eigenvalues --   -0.39785  -0.37666  -0.36908  -0.34566  -0.32108
 Alpha  occ. eigenvalues --   -0.31307  -0.29808  -0.26121  -0.25352
 Alpha virt. eigenvalues --    0.09184   0.09825   0.11703   0.12227   0.13216
 Alpha virt. eigenvalues --    0.14564   0.15217   0.15497   0.16124   0.16941
 Alpha virt. eigenvalues --    0.17485   0.18312   0.18657   0.19642   0.21211

 Mulliken charges:
               1
     1  C   -0.497240
     2  C    0.291566
     3  C   -0.291141
     4  C    0.067682
     5  O   -0.275891
     6  C    0.170251
     7  C   -0.280942
     8  O   -0.240904
     9  C    0.033682
    10  H    0.121211
    11  H    0.111845
    12  H    0.119651
    13  H    0.103260
    14  H    0.096308
    15  H    0.080941
    16  H    0.092446
    17  H    0.106662
    18  H    0.104072
    19  H    0.086543
 Sum of Mulliken charges =   0.00000

 Dipole moment (field-independent basis, Debye):
    X=             -1.8016    Y=              0.3118    Z=             -0.2628  Tot=              1.8472
 Quadrupole moment (field-independent basis, Debye-Ang):
   XX=            -55.8779   YY=            -52.0327   ZZ=            -52.6234
   XY=             -1.0348   XZ=             -0.9053   YZ=              3.5985

  Exact polarizability:  76.411  -1.314  74.611  -1.150   3.389  67.615
 Approx polarizability: 106.249  -3.077 110.759  -2.671   1.915 105.199

                      1                      2                      3
                      A                      A                      A
 Frequencies --    208.6399               235.7028               269.2566
 Red. masses --      1.2530                 1.9745                 2.4436
 Frc consts  --      0.0321                 0.0646                 0.1044
 IR Inten    --      0.0607                 0.3329                 0.2211

                      4                      5                      6
                      A                      A                      A
 Frequencies --    371.5442               392.3637               472.5729
 Red. masses --      2.6928                 2.2416                 1.9965
 Frc consts  --      0.2190                 0.2033                 0.2627
 IR Inten    --      1.5149                 0.7812                 0.4407

                      7                      8                      9
                      A                      A                      A
 Frequencies --    549.7008               621.6309               640.1654
 Red. masses --      4.0183                 5.7892                 5.1380
 Frc consts  --      0.7154                 1.3181                 1.2406
 IR Inten    --      4.0513                11.7598                 0.6544

                     10                     11                     12
                      A                      A                      A
 Frequencies --    720.7633               783.0711               829.3753
 Red. masses --      4.1614                 3.1002                 3.6095
 Frc consts  --      1.2737                 1.1201                 1.4628
 IR Inten    --      2.6328                 2.3779                 6.1014

                     13                     14                     15
                      A                      A                      A
 Frequencies --    840.4791               869.2786               883.3289
 Red. masses --      2.5909                 2.4505                 3.0232
 Frc consts  --      1.0783                 1.0910                 1.3898
 IR Inten    --      9.8162                31.3035                23.9547

                     16                     17                     18
                      A                      A                      A
 Frequencies --    906.1499               934.7269               958.3310
 Red. masses --      2.4931                 2.4654                 2.1537
 Frc consts  --      1.2061                 1.2692                 1.1654
 IR Inten    --      5.9936                 5.6706                17.4577

                     19                     20                     21
                      A                      A                      A
 Frequencies --    966.2036               997.1112              1015.6971
 Red. masses --      1.6308                 2.1380                 1.6976
 Frc consts  --      0.8970                 1.2524                 1.0318
 IR Inten    --     11.9836                20.6571                 5.6152

                     22                     23                     24
                      A                      A                      A
 Frequencies --   1051.7184              1073.9082              1105.6115
 Red. masses --      3.0985                 4.8020                 1.5699
 Frc consts  --      2.0193                 3.2629                 1.1306
 IR Inten    --     13.9067                69.8964                10.7004

                     25                     26                     27
                      A                      A                      A
 Frequencies --   1126.0760              1155.1407              1184.3995
 Red. masses --      1.7915                 1.4369                 1.8456
 Frc consts  --      1.3384                 1.1297                 1.5254
 IR Inten    --     42.1602                 3.1515                 4.2315

                     28                     29                     30
                      A                      A                      A
 Frequencies --   1222.6022              1232.3983              1246.9497
 Red. masses --      1.7945                 1.7738                 1.8473
 Frc consts  --      1.5804                 1.5873                 1.6924
 IR Inten    --      3.2393                 2.0353                 5.8492

                     31                     32                     33
                      A                      A                      A
 Frequencies --   1262.3306              1276.8087              1310.7172
 Red. masses --      1.6395                 1.5251                 1.2946
 Frc consts  --      1.5393                 1.4649                 1.3104
 IR Inten    --      1.2953                 0.1105                 1.4265

                     34                     35                     36
                      A                      A                      A
 Frequencies --   1321.6217              1360.0402              1368.8600
 Red. masses --      1.8769                 1.8378                 1.4529
 Frc consts  --      1.9315                 2.0028                 1.6040
 IR Inten    --     34.2717                 4.3837                 9.4771

                     37                     38                     39
                      A                      A                      A
 Frequencies --   1412.2044              1469.3058              1485.6102
 Red. masses --      1.2759                 1.1058                 1.1131
 Frc consts  --      1.4992                 1.4065                 1.4475
 IR Inten    --      1.0226                 1.3237                 5.4207

                     40                     41                     42
                      A                      A                      A
 Frequencies --   1492.3837              1495.8062              3021.7919
 Red. masses --      1.0550                 1.0497                 1.0352
 Frc consts  --      1.3844                 1.3838                 5.5696
 IR Inten    --      2.6647                 4.3256                27.4355

                     43                     44                     45
                      A                      A                      A
 Frequencies --   3044.1645              3057.5061              3087.0687
 Red. masses --      1.0592                 1.0603                 1.1008
 Frc consts  --      5.7834                 5.8402                 6.1809
 IR Inten    --     30.4575                23.2169                19.1771

                     46                     47                     48
                      A                      A                      A
 Frequencies --   3092.4891              3106.6063              3110.5707
 Red. masses --      1.1013                 1.1060                 1.0905
 Frc consts  --      6.2055                 6.2892                 6.2168
 IR Inten    --     22.1898                17.0541                51.1337

                     49                     50                     51
                      A                      A                      A
 Frequencies --   3116.0229              3144.1353              3159.0654
 Red. masses --      1.1052                 1.0915                 1.0928
 Frc consts  --      6.3224                 6.3571                 6.4256
 IR Inten    --     21.7804                40.8592                14.8441

 - Thermochemistry -
 -------------------
 Temperature   298.150 Kelvin.  Pressure   1.00000 Atm.
 Atom     1 has atomic number  6 and mass  12.00000

 Molecular mass:   126.06808 amu.
 Principal axes and moments of inertia in atomic units:
                           1         2         3
     Eigenvalues --   624.45265 957.310171101.62023
           X            0.99996   0.00703  -0.00582
           Y           -0.00646   0.99568   0.09259
           Z            0.00645  -0.09255   0.99569
 This molecule is an asymmetric top.
 Rotational symmetry number  1.
 Warning -- assumption of classical behavior for rotation
           may cause significant error
 Rotational temperatures (Kelvin)      0.13870     0.09048     0.07862
 Rotational constants (GHZ):           2.89012     1.88522     1.63826
 Zero-point vibrational energy     425033.2 (Joules/Mol)
                                  101.58538 (Kcal/Mol)
 Warning -- explicit consideration of   7 degrees of freedom as
           vibrations may cause significant error
 Vibrational temperatures:    300.19   339.12   387.40   534.57   564.52
          (Kelvin)            679.93   790.90   894.39   921.05  1037.02
                             1126.66  1193.28  1209.26  1250.70  1270.91
                             1303.75  1344.86  1378.82  1390.15  1434.62
                             1461.36  1513.19  1545.11  1590.73  1620.17
                             1661.99  1704.08  1759.05  1773.14  1794.08
                             1816.21  1837.04  1885.83  1901.52  1956.79
                             1969.48  2031.84  2114.00  2137.46  2147.20
                             2152.13  4347.68  4379.87  4399.06  4441.60
                             4449.40  4469.71  4475.41  4483.26  4523.70
                             4545.18

 Zero-point correction=                           0.161887 (Hartree/Particle)
 Thermal correction to Energy=                    0.168590
 Thermal correction to Enthalpy=                  0.169534
 Thermal correction to Gibbs Free Energy=         0.131270
 Sum of electronic and zero-point Energies=           -423.034365
 Sum of electronic and thermal Energies=              -423.027662
 Sum of electronic and thermal Enthalpies=            -423.026718
 Sum of electronic and thermal Free Energies=         -423.064982

                     E (Thermal)             CV                S
                      KCal/Mol        Cal/Mol-Kelvin    Cal/Mol-Kelvin
 Total                  105.792             28.389             80.534
 Electronic               0.000              0.000              0.000
 Translational            0.889              2.981             40.409
 Rotational               0.889              2.981             27.979
 Vibrational            104.014             22.427             12.147
 Vibration     1          0.642              1.828              2.056
 Vibration     2          0.655              1.786              1.835
 Vibration     3          0.674              1.730              1.601
 Vibration     4          0.743              1.531              1.073
 Vibration     5          0.760              1.487              0.991
 Vibration     6          0.829              1.311              0.730
 Vibration     7          0.905              1.140              0.545

 Normal termination of Gaussian 09 at Mon Jan 27 18:54:58 2020.
