 Gaussian 09, Revision D.01,
 Gaussian 09:  ES64L-G09RevD.01 24-Apr-2013

 -----------------------------
 # b3lyp 6-31G(2df,p) opt Freq
 -----------------------------

 -----
 titel
 -----
 Symbolic Z-matrix:
 Charge =  0 Multiplicity = 1

 SCF Done:  E(RB3LYP) =  -423.134681988     A.U. after   14 cycles
 SCF Done:  E(RB3LYP) =  -423.134681902     A.U. after    7 cycles
 SCF Done:  E(RB3LYP) =  -423.134681785     A.U. after    7 cycles
 SCF Done:  E(RB3LYP) =  -423.134681896     A.U. after    7 cycles
 SCF Done:  E(RB3LYP) =  -423.134682083     A.U. after    7 cycles
 Optimization completed.
    -- Stationary point found.
 Normal termination of Gaussian 09 at Mon Jan 27 15:46:20 2020.

 ----------------------------------------------------------------------
 #N Geom=AllCheck Guess=TCheck SCRF=Check GenChk RB3LYP/6-31G(2df,p) Fr
 eq
 ----------------------------------------------------------------------

 Structure from the checkpoint file:  "/scratch/puck/g09_79b1767b-c22a-4dac-907f-b72211e305cf/Gau-160891.chk"
 -----
 titel
 -----
 Charge =  0 Multiplicity = 1

                         Standard orientation:
 ---------------------------------------------------------------------
 Center     Atomic      Atomic             Coordinates (Angstroms)
 Number     Number       Type             X           Y           Z
 ---------------------------------------------------------------------
      1          6           0       -2.652180    0.439989    0.377548
      2          6           0       -1.491844   -0.078734   -0.478010
      3          8           0       -1.573881   -1.481685   -0.671338
      4          6           0       -0.145115    0.274831    0.129424
      5          8           0        0.030421   -0.402053    1.342817
      6          6           0        0.453012    1.635304   -0.048766
      7          6           0        1.066785    0.435223   -0.782164
      8          6           0        2.307481   -0.110307   -0.324795
      9          6           0        3.302653   -0.614962    0.130602
     10          1           0       -2.583998    0.039714    1.393586
     11          1           0       -2.641375    1.533063    0.440089
     12          1           0       -3.601780    0.121859   -0.059964
     13          1           0       -1.550057    0.366015   -1.478624
     14          1           0       -1.295592   -1.873029    0.166683
     15          1           0        0.936152   -0.741778    1.371054
     16          1           0       -0.069013    2.367273   -0.656070
     17          1           0        1.018971    2.040395    0.781794
     18          1           0        0.881670    0.361591   -1.849271
     19          1           0        4.207958   -1.033263    0.495853
 ---------------------------------------------------------------------

 SCF Done:  E(RB3LYP) =  -423.134682083     A.U. after    1 cycles

 The electronic state is 1-A.
 Alpha  occ. eigenvalues --  -19.15350 -19.12677 -10.25194 -10.23433 -10.22079
 Alpha  occ. eigenvalues --  -10.19982 -10.19702 -10.18650 -10.17055  -1.04657
 Alpha  occ. eigenvalues --   -1.00762  -0.86865  -0.76521  -0.74173  -0.65163
 Alpha  occ. eigenvalues --   -0.64001  -0.58837  -0.54837  -0.52514  -0.51352
 Alpha  occ. eigenvalues --   -0.47041  -0.44700  -0.43352  -0.40934  -0.40101
 Alpha  occ. eigenvalues --   -0.38788  -0.37275  -0.35806  -0.33285  -0.32748
 Alpha  occ. eigenvalues --   -0.29568  -0.27232  -0.25406  -0.25253
 Alpha virt. eigenvalues --    0.03084   0.03598   0.08188   0.10375   0.11324
 Alpha virt. eigenvalues --    0.12055   0.12490   0.14242   0.15139   0.15610
 Alpha virt. eigenvalues --    0.17587   0.18448   0.19265   0.21033   0.22909

 Mulliken charges:
               1
     1  C   -0.402851
     2  C    0.094567
     3  O   -0.438903
     4  C    0.408606
     5  O   -0.485369
     6  C   -0.342662
     7  C   -0.287046
     8  C    0.276485
     9  C   -0.421677
    10  H    0.129586
    11  H    0.111709
    12  H    0.121014
    13  H    0.082898
    14  H    0.281393
    15  H    0.290640
    16  H    0.121933
    17  H    0.130558
    18  H    0.125344
    19  H    0.203774
 Sum of Mulliken charges =   0.00000

 Dipole moment (field-independent basis, Debye):
    X=              1.1355    Y=              0.9955    Z=              0.4047  Tot=              1.5634
 Quadrupole moment (field-independent basis, Debye-Ang):
   XX=            -50.8028   YY=            -52.6003   ZZ=            -54.2699
   XY=             -4.5665   XZ=              1.8503   YZ=             -4.1756

  Exact polarizability: 102.152 -11.046  71.014   4.243  -4.040  63.555
 Approx polarizability: 138.683 -20.731 108.495  11.422  -9.688 101.513

                      1                      2                      3
                      A                      A                      A
 Frequencies --     77.4295               103.5242               131.7019
 Red. masses --      4.1587                 3.9228                 4.3329
 Frc consts  --      0.0147                 0.0248                 0.0443
 IR Inten    --      1.2412                 0.5836                 2.0244

                      4                      5                      6
                      A                      A                      A
 Frequencies --    222.7007               229.2980               263.2635
 Red. masses --      1.8887                 1.7673                 2.3565
 Frc consts  --      0.0552                 0.0547                 0.0962
 IR Inten    --      0.7661                 7.2777                25.2815

                      7                      8                      9
                      A                      A                      A
 Frequencies --    290.3586               325.2848               352.3118
 Red. masses --      2.5168                 1.6577                 2.2679
 Frc consts  --      0.1250                 0.1033                 0.1659
 IR Inten    --      9.7484                34.6784                 9.6953

                     10                     11                     12
                      A                      A                      A
 Frequencies --    402.5460               452.3915               482.2199
 Red. masses --      2.8104                 1.4418                 2.8818
 Frc consts  --      0.2683                 0.1739                 0.3948
 IR Inten    --     17.6066                39.8985                50.6504

                     13                     14                     15
                      A                      A                      A
 Frequencies --    518.9333               560.9211               589.4788
 Red. masses --      3.4780                 3.4816                 1.2435
 Frc consts  --      0.5518                 0.6454                 0.2546
 IR Inten    --      5.7432                 7.2673                49.3886

                     16                     17                     18
                      A                      A                      A
 Frequencies --    644.8558               669.6589               740.5771
 Red. masses --      3.1541                 1.2336                 2.9306
 Frc consts  --      0.7728                 0.3259                 0.9470
 IR Inten    --      3.3655                35.9512                16.3767

                     19                     20                     21
                      A                      A                      A
 Frequencies --    804.2471               870.8052               900.0337
 Red. masses --      1.8430                 3.4790                 1.7738
 Frc consts  --      0.7024                 1.5543                 0.8466
 IR Inten    --      0.7728                11.6792                 6.7842

                     22                     23                     24
                      A                      A                      A
 Frequencies --    933.6219               982.3263              1026.4254
 Red. masses --      2.3855                 2.1488                 1.5915
 Frc consts  --      1.2251                 1.2217                 0.9879
 IR Inten    --     12.6395                24.3170                23.4362

                     25                     26                     27
                      A                      A                      A
 Frequencies --   1036.8319              1065.4162              1102.5779
 Red. masses --      1.8158                 1.6124                 1.9634
 Frc consts  --      1.1501                 1.0784                 1.4063
 IR Inten    --     25.8796                 7.6937                22.4730

                     28                     29                     30
                      A                      A                      A
 Frequencies --   1111.8482              1124.4817              1221.8972
 Red. masses --      1.8696                 1.8434                 1.6711
 Frc consts  --      1.3617                 1.3733                 1.4700
 IR Inten    --     59.4343                28.7266                20.9350

                     31                     32                     33
                      A                      A                      A
 Frequencies --   1255.8450              1316.6504              1350.7053
 Red. masses --      2.0200                 1.5849                 1.7049
 Frc consts  --      1.8770                 1.6188                 1.8326
 IR Inten    --     62.5621                39.7390                 7.2275

                     34                     35                     36
                      A                      A                      A
 Frequencies --   1358.5850              1399.0536              1411.9487
 Red. masses --      1.4070                 1.2872                 1.3659
 Frc consts  --      1.5301                 1.4845                 1.6044
 IR Inten    --      9.3632                 8.5341                54.7499

                     37                     38                     39
                      A                      A                      A
 Frequencies --   1440.1860              1476.4124              1490.2124
 Red. masses --      1.3148                 1.4058                 1.0631
 Frc consts  --      1.6067                 1.8055                 1.3910
 IR Inten    --     40.8973                15.6395                 8.5019

                     40                     41                     42
                      A                      A                      A
 Frequencies --   1500.6569              2222.9264              3040.1394
 Red. masses --      1.1309                 6.0511                 1.0463
 Frc consts  --      1.5004                17.6170                 5.6974
 IR Inten    --      0.6002                16.1512                20.4907

                     43                     44                     45
                      A                      A                      A
 Frequencies --   3040.9240              3112.7088              3126.1667
 Red. masses --      1.0729                 1.1006                 1.1027
 Frc consts  --      5.8456                 6.2828                 6.3493
 IR Inten    --     17.0619                23.4681                20.1402

                     46                     47                     48
                      A                      A                      A
 Frequencies --   3136.0404              3156.9792              3232.6479
 Red. masses --      1.0546                 1.0876                 1.1171
 Frc consts  --      6.1108                 6.3864                 6.8781
 IR Inten    --      6.8715                 3.2606                 3.3826

                     49                     50                     51
                      A                      A                      A
 Frequencies --   3500.9817              3723.3345              3775.6534
 Red. masses --      1.1588                 1.0662                 1.0649
 Frc consts  --      8.3684                 8.7089                 8.9446
 IR Inten    --     89.0162                93.8735                24.6365

 - Thermochemistry -
 -------------------
 Temperature   298.150 Kelvin.  Pressure   1.00000 Atm.
 Atom     1 has atomic number  6 and mass  12.00000

 Molecular mass:   126.06808 amu.
 Principal axes and moments of inertia in atomic units:
                           1         2         3
     Eigenvalues --   564.598291691.884971824.87987
           X            0.99984  -0.01769   0.00122
           Y            0.01774   0.99801  -0.06059
           Z           -0.00015   0.06060   0.99816
 This molecule is an asymmetric top.
 Rotational symmetry number  1.
 Warning -- assumption of classical behavior for rotation
           may cause significant error
 Rotational temperatures (Kelvin)      0.15341     0.05119     0.04746
 Rotational constants (GHZ):           3.19650     1.06670     0.98896
 Zero-point vibrational energy     408564.9 (Joules/Mol)
                                   97.64937 (Kcal/Mol)
 Warning -- explicit consideration of  15 degrees of freedom as
           vibrations may cause significant error
 Vibrational temperatures:    111.40   148.95   189.49   320.42   329.91
          (Kelvin)            378.78   417.76   468.01   506.90   579.17
                              650.89   693.81   746.63   807.04   848.13
                              927.80   963.49  1065.52  1157.13  1252.89
                             1294.95  1343.27  1413.35  1476.80  1491.77
                             1532.89  1586.36  1599.70  1617.88  1758.04
                             1806.88  1894.36  1943.36  1954.70  2012.92
                             2031.48  2072.10  2124.23  2144.08  2159.11
                             3198.29  4374.08  4375.21  4478.49  4497.85
                             4512.06  4542.18  4651.05  5037.13  5357.04
                             5432.32

 Zero-point correction=                           0.155614 (Hartree/Particle)
 Thermal correction to Energy=                    0.165582
 Thermal correction to Enthalpy=                  0.166526
 Thermal correction to Gibbs Free Energy=         0.121205
 Sum of electronic and zero-point Energies=           -422.979068
 Sum of electronic and thermal Energies=              -422.969100
 Sum of electronic and thermal Enthalpies=            -422.968156
 Sum of electronic and thermal Free Energies=         -423.013477

                     E (Thermal)             CV                S
                      KCal/Mol        Cal/Mol-Kelvin    Cal/Mol-Kelvin
 Total                  103.904             37.724             95.387
 Electronic               0.000              0.000              0.000
 Translational            0.889              2.981             40.409
 Rotational               0.889              2.981             28.946
 Vibrational            102.127             31.763             26.033
 Vibration     1          0.599              1.964              3.955
 Vibration     2          0.605              1.946              3.387
 Vibration     3          0.612              1.922              2.921
 Vibration     4          0.648              1.807              1.937
 Vibration     5          0.652              1.796              1.884
 Vibration     6          0.670              1.740              1.640
 Vibration     7          0.686              1.692              1.472
 Vibration     8          0.709              1.625              1.283
 Vibration     9          0.729              1.571              1.156
 Vibration    10          0.768              1.465              0.953
 Vibration    11          0.811              1.356              0.789
 Vibration    12          0.838              1.289              0.704
 Vibration    13          0.874              1.208              0.612
 Vibration    14          0.917              1.116              0.522
 Vibration    15          0.947              1.054              0.468

 Optimization completed.
    -- Stationary point found.
 Normal termination of Gaussian 09 at Mon Jan 27 16:29:04 2020.
 Normal termination of Gaussian 09 at Mon Jan 27 15:27:01 2020.
