 Gaussian 09, Revision D.01,
 Gaussian 09:  ES64L-G09RevD.01 24-Apr-2013

 -----------------------------
 # b3lyp 6-31G(2df,p) opt Freq
 -----------------------------

 -----
 titel
 -----
 Symbolic Z-matrix:
 Charge =  0 Multiplicity = 1

 SCF Done:  E(RB3LYP) =  -423.161082574     A.U. after   14 cycles
 Optimization completed.
    -- Stationary point found.
 Normal termination of Gaussian 09 at Mon Jan 27 14:13:31 2020.

 ----------------------------------------------------------------------
 #N Geom=AllCheck Guess=TCheck SCRF=Check GenChk RB3LYP/6-31G(2df,p) Fr
 eq
 ----------------------------------------------------------------------

 Structure from the checkpoint file:  "/scratch/puck/g09_89e7d8f7-62b9-4fbb-96e2-af66c8165ae0/Gau-171134.chk"
 -----
 titel
 -----
 Charge =  0 Multiplicity = 1

                         Standard orientation:
 ---------------------------------------------------------------------
 Center     Atomic      Atomic             Coordinates (Angstroms)
 Number     Number       Type             X           Y           Z
 ---------------------------------------------------------------------
      1          6           0       -2.178981    1.320502   -0.250913
      2          6           0       -1.878438   -0.118474    0.114201
      3          8           0       -2.561603   -1.044736   -0.253731
      4          6           0       -0.627468   -0.354109    0.972889
      5          6           0        0.625763   -0.203836    0.157831
      6          6           0        1.191613   -1.197028   -0.809255
      7          6           0        2.061204   -0.661959    0.314837
      8          6           0        2.421814    0.784737    0.006222
      9          8           0        1.024919    1.126558   -0.217906
     10          1           0       -2.432254    1.884177    0.655315
     11          1           0       -1.288634    1.795479   -0.675693
     12          1           0       -3.014282    1.362811   -0.950800
     13          1           0       -0.598211    0.355249    1.808396
     14          1           0       -0.683795   -1.372257    1.365528
     15          1           0        0.857604   -2.220944   -0.675631
     16          1           0        1.376788   -0.901795   -1.838659
     17          1           0        2.524574   -1.292268    1.061587
     18          1           0        2.816762    1.338196    0.865241
     19          1           0        3.041881    0.977781   -0.877058
 ---------------------------------------------------------------------

 SCF Done:  E(RB3LYP) =  -423.161082574     A.U. after    1 cycles

 The electronic state is 1-A.
 Alpha  occ. eigenvalues --  -19.14513 -19.12482 -10.26804 -10.25420 -10.24189
 Alpha  occ. eigenvalues --  -10.20312 -10.19710 -10.19399 -10.18040  -1.05799
 Alpha  occ. eigenvalues --   -1.03568  -0.84116  -0.77783  -0.72253  -0.68944
 Alpha  occ. eigenvalues --   -0.60476  -0.54401  -0.53412  -0.50626  -0.49044
 Alpha  occ. eigenvalues --   -0.47015  -0.45284  -0.44349  -0.42670  -0.40475
 Alpha  occ. eigenvalues --   -0.39599  -0.38732  -0.37699  -0.34752  -0.34259
 Alpha  occ. eigenvalues --   -0.32768  -0.28579  -0.24795  -0.23258
 Alpha virt. eigenvalues --   -0.00981   0.07444   0.10179   0.10275   0.12096
 Alpha virt. eigenvalues --    0.12286   0.13458   0.15034   0.15320   0.15927
 Alpha virt. eigenvalues --    0.17371   0.18405   0.19526   0.19847   0.20228

 Mulliken charges:
               1
     1  C   -0.481814
     2  C    0.381907
     3  O   -0.297893
     4  C   -0.397832
     5  C    0.472072
     6  C   -0.321279
     7  C   -0.196933
     8  C   -0.087248
     9  O   -0.322540
    10  H    0.136538
    11  H    0.169614
    12  H    0.135973
    13  H    0.114425
    14  H    0.125965
    15  H    0.126927
    16  H    0.116659
    17  H    0.104942
    18  H    0.111866
    19  H    0.108652
 Sum of Mulliken charges =   0.00000

 Dipole moment (field-independent basis, Debye):
    X=              2.4401    Y=              0.6818    Z=              1.3232  Tot=              2.8583
 Quadrupole moment (field-independent basis, Debye-Ang):
   XX=            -55.2184   YY=            -54.6352   ZZ=            -51.2696
   XY=             -5.5574   XZ=             -1.1989   YZ=             -0.4725

  Exact polarizability:  88.785   2.475  75.577   2.442   1.903  65.010
 Approx polarizability: 118.154   7.995 115.928   5.412   5.300  98.498

                      1                      2                      3
                      A                      A                      A
 Frequencies --     32.5973                65.5063               124.9815
 Red. masses --      4.1333                 3.7243                 3.3127
 Frc consts  --      0.0026                 0.0094                 0.0305
 IR Inten    --      4.7908                 3.2295                 1.1823

                      4                      5                      6
                      A                      A                      A
 Frequencies --    150.3928               233.7507               282.8991
 Red. masses --      1.1320                 3.0478                 3.4731
 Frc consts  --      0.0151                 0.0981                 0.1638
 IR Inten    --      0.5794                 2.2009                 2.3373

                      7                      8                      9
                      A                      A                      A
 Frequencies --    388.2579               402.2382               435.6347
 Red. masses --      2.4893                 1.8144                 2.6380
 Frc consts  --      0.2211                 0.1730                 0.2950
 IR Inten    --      0.9346                 3.1134                 2.7070

                     10                     11                     12
                      A                      A                      A
 Frequencies --    509.6166               554.3171               718.0856
 Red. masses --      3.1952                 2.8335                 2.8012
 Frc consts  --      0.4889                 0.5130                 0.8510
 IR Inten    --     10.2114                 7.9602                 4.2656

                     13                     14                     15
                      A                      A                      A
 Frequencies --    745.4133               781.6233               848.3611
 Red. masses --      3.1082                 3.2401                 2.0256
 Frc consts  --      1.0176                 1.1663                 0.8589
 IR Inten    --      2.2965                 1.5353                 7.4661

                     16                     17                     18
                      A                      A                      A
 Frequencies --    876.5008               891.7242               951.2497
 Red. masses --      1.6869                 2.0303                 1.7374
 Frc consts  --      0.7635                 0.9512                 0.9263
 IR Inten    --      2.0906                22.0783                 5.0690

                     19                     20                     21
                      A                      A                      A
 Frequencies --    955.8805               974.2966               995.8159
 Red. masses --      2.2844                 3.7442                 1.5376
 Frc consts  --      1.2298                 2.0941                 0.8984
 IR Inten    --      5.9142                69.0153                 3.2898

                     22                     23                     24
                      A                      A                      A
 Frequencies --   1008.4898              1036.0979              1065.8624
 Red. masses --      2.0377                 1.7243                 2.0662
 Frc consts  --      1.2210                 1.0906                 1.3830
 IR Inten    --     23.9779                 2.2093                 3.2930

                     25                     26                     27
                      A                      A                      A
 Frequencies --   1074.7088              1114.1104              1134.6069
 Red. masses --      1.5489                 1.7432                 1.6272
 Frc consts  --      1.0540                 1.2748                 1.2342
 IR Inten    --      2.4117                10.3697                 3.8215

                     28                     29                     30
                      A                      A                      A
 Frequencies --   1170.5857              1219.7667              1252.9335
 Red. masses --      1.2702                 2.5432                 1.5090
 Frc consts  --      1.0255                 2.2294                 1.3957
 IR Inten    --      6.2508                71.8001                22.3561

                     31                     32                     33
                      A                      A                      A
 Frequencies --   1267.7545              1309.7016              1340.3977
 Red. masses --      1.7633                 1.6668                 1.5846
 Frc consts  --      1.6697                 1.6845                 1.6774
 IR Inten    --     14.8357                20.0896                11.1503

                     34                     35                     36
                      A                      A                      A
 Frequencies --   1387.3621              1398.1614              1452.1208
 Red. masses --      1.3426                 1.9094                 1.1101
 Frc consts  --      1.5226                 2.1992                 1.3792
 IR Inten    --     46.8077                 7.5089                 5.6228

                     37                     38                     39
                      A                      A                      A
 Frequencies --   1467.0285              1475.4965              1485.0405
 Red. masses --      1.0615                 1.0531                 1.5324
 Frc consts  --      1.3460                 1.3508                 1.9912
 IR Inten    --     12.1146                 9.3268                12.3150

                     40                     41                     42
                      A                      A                      A
 Frequencies --   1518.4415              1817.4493              3026.1426
 Red. masses --      1.1377                10.5109                 1.0548
 Frc consts  --      1.5455                20.4558                 5.6912
 IR Inten    --      0.4814               166.9525                78.6661

                     43                     44                     45
                      A                      A                      A
 Frequencies --   3034.1384              3039.9291              3075.8661
 Red. masses --      1.0437                 1.0558                 1.1115
 Frc consts  --      5.6611                 5.7484                 6.1957
 IR Inten    --      1.6009                15.1850                33.8488

                     46                     47                     48
                      A                      A                      A
 Frequencies --   3100.3214              3113.5528              3116.8214
 Red. masses --      1.0953                 1.0952                 1.0600
 Frc consts  --      6.2027                 6.2556                 6.0672
 IR Inten    --      4.1116                 5.0968                11.4289

                     49                     50                     51
                      A                      A                      A
 Frequencies --   3154.7484              3203.2938              3213.3789
 Red. masses --      1.1036                 1.0989                 1.1107
 Frc consts  --      6.4714                 6.6435                 6.7571
 IR Inten    --      8.8930                 6.2937                 8.4017

 - Thermochemistry -
 -------------------
 Temperature   298.150 Kelvin.  Pressure   1.00000 Atm.
 Atom     1 has atomic number  6 and mass  12.00000

 Molecular mass:   126.06808 amu.
 Principal axes and moments of inertia in atomic units:
                           1         2         3
     Eigenvalues --   529.333301607.348891873.05286
           X            0.99947  -0.03251  -0.00123
           Y            0.03251   0.99946  -0.00525
           Z            0.00140   0.00520   0.99999
 This molecule is an asymmetric top.
 Rotational symmetry number  1.
 Warning -- assumption of classical behavior for rotation
           may cause significant error
 Rotational temperatures (Kelvin)      0.16363     0.05389     0.04624
 Rotational constants (GHZ):           3.40946     1.12281     0.96353
 Zero-point vibrational energy     412672.5 (Joules/Mol)
                                   98.63109 (Kcal/Mol)
 Warning -- explicit consideration of  11 degrees of freedom as
           vibrations may cause significant error
 Vibrational temperatures:     46.90    94.25   179.82   216.38   336.31
          (Kelvin)            407.03   558.62   578.73   626.78   733.22
                              797.54  1033.16  1072.48  1124.58  1220.60
                             1261.09  1282.99  1368.63  1375.30  1401.79
                             1432.76  1450.99  1490.71  1533.54  1546.26
                             1602.95  1632.44  1684.21  1754.97  1802.69
                             1824.01  1884.37  1928.53  1996.10  2011.64
                             2089.28  2110.72  2122.91  2136.64  2184.70
                             2614.90  4353.94  4365.44  4373.77  4425.48
                             4460.67  4479.70  4484.41  4538.97  4608.82
                             4623.33

 Zero-point correction=                           0.157179 (Hartree/Particle)
 Thermal correction to Energy=                    0.166202
 Thermal correction to Enthalpy=                  0.167146
 Thermal correction to Gibbs Free Energy=         0.122186
 Sum of electronic and zero-point Energies=           -423.003904
 Sum of electronic and thermal Energies=              -422.994881
 Sum of electronic and thermal Enthalpies=            -422.993937
 Sum of electronic and thermal Free Energies=         -423.038897

                     E (Thermal)             CV                S
                      KCal/Mol        Cal/Mol-Kelvin    Cal/Mol-Kelvin
 Total                  104.293             32.955             94.627
 Electronic               0.000              0.000              0.000
 Translational            0.889              2.981             40.409
 Rotational               0.889              2.981             28.857
 Vibrational            102.516             26.993             25.362
 Vibration     1          0.594              1.983              5.665
 Vibration     2          0.597              1.971              4.284
 Vibration     3          0.610              1.928              3.022
 Vibration     4          0.618              1.902              2.667
 Vibration     5          0.654              1.789              1.850
 Vibration     6          0.682              1.705              1.516
 Vibration     7          0.756              1.495              1.007
 Vibration     8          0.768              1.465              0.954
 Vibration     9          0.796              1.393              0.840
 Vibration    10          0.865              1.229              0.635
 Vibration    11          0.910              1.130              0.535

 Optimization completed.
    -- Stationary point found.
 Normal termination of Gaussian 09 at Mon Jan 27 14:58:18 2020.
