 Gaussian 09, Revision D.01,
 Gaussian 09:  ES64L-G09RevD.01 24-Apr-2013

 -----------------------------
 # b3lyp 6-31G(2df,p) opt Freq
 -----------------------------

 -----
 titel
 -----
 Symbolic Z-matrix:
 Charge =  0 Multiplicity = 1

 SCF Done:  E(RB3LYP) =  -423.063082316     A.U. after   13 cycles
 Optimization completed.
    -- Stationary point found.
 Normal termination of Gaussian 09 at Tue Jan 28 02:54:29 2020.

 ----------------------------------------------------------------------
 #N Geom=AllCheck Guess=TCheck SCRF=Check GenChk RB3LYP/6-31G(2df,p) Fr
 eq
 ----------------------------------------------------------------------

 Structure from the checkpoint file:  "/scratch/puck/g09_a8da5029-ff52-4342-a3b9-ee1730e40dd4/Gau-11277.chk"
 -----
 titel
 -----
 Charge =  0 Multiplicity = 1

                         Standard orientation:
 ---------------------------------------------------------------------
 Center     Atomic      Atomic             Coordinates (Angstroms)
 Number     Number       Type             X           Y           Z
 ---------------------------------------------------------------------
      1          6           0       -3.033012   -0.288400   -0.295527
      2          6           0       -1.676457   -0.017386    0.333028
      3          6           0       -0.966675    1.350277   -0.047487
      4          6           0        0.315687    0.520107   -0.167817
      5          8           0        0.750304    0.078324    1.219354
      6          6           0        0.888007   -1.106130    0.364852
      7          6           0        1.626279   -0.155779   -0.698195
      8          8           0        2.863871    0.341632   -0.360501
      9          6           0       -0.457735   -0.794552   -0.309508
     10          1           0       -3.376679   -1.302579   -0.064055
     11          1           0       -3.785972    0.414534    0.077219
     12          1           0       -2.997710   -0.188692   -1.386579
     13          1           0       -1.716042   -0.137659    1.414787
     14          1           0       -1.310588    1.723345   -1.017029
     15          1           0       -0.963644    2.160238    0.685131
     16          1           0        1.285700   -2.014070    0.827673
     17          1           0        1.630683   -0.458459   -1.747814
     18          1           0        2.783666    0.589264    0.573544
     19          1           0       -0.639381   -1.194392   -1.309782
 ---------------------------------------------------------------------

 SCF Done:  E(RB3LYP) =  -423.063082316     A.U. after    1 cycles

 The electronic state is 1-A.
 Alpha  occ. eigenvalues --  -19.14313 -19.13649 -10.25281 -10.25059 -10.24439
 Alpha  occ. eigenvalues --  -10.20161 -10.19781 -10.18707 -10.18026  -1.07067
 Alpha  occ. eigenvalues --   -1.02012  -0.83718  -0.76588  -0.71664  -0.65871
 Alpha  occ. eigenvalues --   -0.61042  -0.59001  -0.54397  -0.50380  -0.48031
 Alpha  occ. eigenvalues --   -0.46577  -0.45340  -0.42202  -0.41201  -0.40099
 Alpha  occ. eigenvalues --   -0.38805  -0.37097  -0.34860  -0.33800  -0.33103
 Alpha  occ. eigenvalues --   -0.31300  -0.27526  -0.25367  -0.23813
 Alpha virt. eigenvalues --    0.07121   0.08447   0.09690   0.10036   0.12097
 Alpha virt. eigenvalues --    0.12763   0.13292   0.14329   0.15041   0.15258
 Alpha virt. eigenvalues --    0.16282   0.17212   0.17711   0.19150   0.20497

 Mulliken charges:
               1
     1  C   -0.416713
     2  C    0.013324
     3  C   -0.349118
     4  C    0.311441
     5  O   -0.367621
     6  C   -0.038512
     7  C    0.094517
     8  O   -0.433193
     9  C   -0.049024
    10  H    0.120400
    11  H    0.118555
    12  H    0.111931
    13  H    0.101819
    14  H    0.111487
    15  H    0.116371
    16  H    0.090917
    17  H    0.096823
    18  H    0.289978
    19  H    0.076619
 Sum of Mulliken charges =   0.00000

 Dipole moment (field-independent basis, Debye):
    X=             -1.7439    Y=             -0.3905    Z=             -0.6348  Tot=              1.8965
 Quadrupole moment (field-independent basis, Debye-Ang):
   XX=            -56.8572   YY=            -51.5265   ZZ=            -53.6283
   XY=             -1.6631   XZ=              2.1386   YZ=              0.5328

  Exact polarizability:  93.890  -3.035  70.810   1.210   0.785  66.585
 Approx polarizability: 122.532  -3.492 111.062   2.027   2.295 110.354

                      1                      2                      3
                      A                      A                      A
 Frequencies --    135.8637               200.4294               243.2799
 Red. masses --      3.2397                 3.0821                 1.1742
 Frc consts  --      0.0352                 0.0729                 0.0409
 IR Inten    --      0.2677                 0.5235                 0.1858

                      4                      5                      6
                      A                      A                      A
 Frequencies --    269.9088               300.4673               362.2758
 Red. masses --      3.2017                 2.9542                 2.9118
 Frc consts  --      0.1374                 0.1571                 0.2252
 IR Inten    --      3.1836                 3.4178                 9.3168

                      7                      8                      9
                      A                      A                      A
 Frequencies --    417.1615               502.9119               537.3632
 Red. masses --      3.0173                 3.6029                 2.6155
 Frc consts  --      0.3094                 0.5369                 0.4450
 IR Inten    --      4.4866                 2.8840                 2.1906

                     10                     11                     12
                      A                      A                      A
 Frequencies --    608.2208               643.9621               699.8431
 Red. masses --      1.3544                 3.5188                 3.0241
 Frc consts  --      0.2952                 0.8597                 0.8727
 IR Inten    --     54.9013                 2.2084                34.4257

                     13                     14                     15
                      A                      A                      A
 Frequencies --    732.4306               800.3649               826.9804
 Red. masses --      4.4254                 4.3907                 2.8237
 Frc consts  --      1.3987                 1.6571                 1.1378
 IR Inten    --     29.9908                 2.3350                 2.0508

                     16                     17                     18
                      A                      A                      A
 Frequencies --    851.9244               859.3139               904.9573
 Red. masses --      2.3178                 2.1252                 2.9369
 Frc consts  --      0.9911                 0.9246                 1.4171
 IR Inten    --      4.8916                 3.1589                 7.8466

                     19                     20                     21
                      A                      A                      A
 Frequencies --    932.6897               942.9909              1024.1723
 Red. masses --      1.9921                 2.1079                 2.3332
 Frc consts  --      1.0210                 1.1044                 1.4419
 IR Inten    --     11.6965                18.4430                11.7660

                     22                     23                     24
                      A                      A                      A
 Frequencies --   1067.1776              1078.2095              1094.4271
 Red. masses --      1.6435                 2.0403                 1.8389
 Frc consts  --      1.1028                 1.3975                 1.2978
 IR Inten    --      7.1811                 1.7341                23.0939

                     25                     26                     27
                      A                      A                      A
 Frequencies --   1119.2533              1141.1922              1149.3999
 Red. masses --      1.5918                 1.4533                 2.1164
 Frc consts  --      1.1749                 1.1152                 1.6474
 IR Inten    --      9.4474                10.9813               141.0533

                     28                     29                     30
                      A                      A                      A
 Frequencies --   1174.4534              1182.0137              1202.2775
 Red. masses --      1.5236                 2.0770                 1.9138
 Frc consts  --      1.2382                 1.7097                 1.6299
 IR Inten    --      2.5284                83.8480                 3.5382

                     31                     32                     33
                      A                      A                      A
 Frequencies --   1242.1845              1247.1986              1265.0401
 Red. masses --      1.5978                 1.3628                 1.9861
 Frc consts  --      1.4526                 1.2490                 1.8727
 IR Inten    --     15.2066                 5.1396                 1.0304

                     34                     35                     36
                      A                      A                      A
 Frequencies --   1294.5163              1308.1489              1355.0741
 Red. masses --      1.6160                 1.5363                 1.6613
 Frc consts  --      1.5956                 1.5490                 1.7973
 IR Inten    --      0.3384                 0.9462                 0.2328

                     37                     38                     39
                      A                      A                      A
 Frequencies --   1411.7252              1450.8980              1464.2268
 Red. masses --      1.2519                 1.3195                 1.1169
 Frc consts  --      1.4700                 1.6365                 1.4109
 IR Inten    --      1.1981               146.2387                 1.7990

                     40                     41                     42
                      A                      A                      A
 Frequencies --   1493.7467              1497.2406              3023.6286
 Red. masses --      1.0437                 1.0469                 1.0354
 Frc consts  --      1.3721                 1.3827                 5.5771
 IR Inten    --      5.4494                 2.1102                26.9579

                     43                     44                     45
                      A                      A                      A
 Frequencies --   3058.1752              3069.6268              3084.7006
 Red. masses --      1.0581                 1.0888                 1.0964
 Frc consts  --      5.8304                 6.0445                 6.1469
 IR Inten    --     38.1369                67.4813                15.6252

                     46                     47                     48
                      A                      A                      A
 Frequencies --   3086.0828              3095.8859              3103.8092
 Red. masses --      1.0892                 1.1013                 1.0890
 Frc consts  --      6.1120                 6.2190                 6.1810
 IR Inten    --     10.0838                21.4425                48.3181

                     49                     50                     51
                      A                      A                      A
 Frequencies --   3117.5574              3131.0138              3720.7037
 Red. masses --      1.0989                 1.0967                 1.0633
 Frc consts  --      6.2929                 6.3344                 8.6725
 IR Inten    --      6.0466                34.5321                28.5884

 - Thermochemistry -
 -------------------
 Temperature   298.150 Kelvin.  Pressure   1.00000 Atm.
 Atom     1 has atomic number  6 and mass  12.00000

 Molecular mass:   126.06808 amu.
 Principal axes and moments of inertia in atomic units:
                           1         2         3
     Eigenvalues --   409.987021576.357531640.62410
           X            0.99995  -0.00537   0.00871
           Y            0.00491   0.99865   0.05178
           Z           -0.00897  -0.05173   0.99862
 This molecule is an asymmetric top.
 Rotational symmetry number  1.
 Rotational temperatures (Kelvin)      0.21126     0.05495     0.05279
 Rotational constants (GHZ):           4.40195     1.14488     1.10003
 Zero-point vibrational energy     415864.4 (Joules/Mol)
                                   99.39398 (Kcal/Mol)
 Warning -- explicit consideration of  10 degrees of freedom as
           vibrations may cause significant error
 Vibrational temperatures:    195.48   288.37   350.03   388.34   432.30
          (Kelvin)            521.23   600.20   723.58   773.14   875.09
                              926.52  1006.92  1053.80  1151.55  1189.84
                             1225.73  1236.36  1302.03  1341.93  1356.75
                             1473.55  1535.43  1551.30  1574.63  1610.35
                             1641.92  1653.73  1689.77  1700.65  1729.81
                             1787.22  1794.44  1820.11  1862.52  1882.13
                             1949.65  2031.16  2087.52  2106.69  2149.17
                             2154.19  4350.32  4400.03  4416.50  4438.19
                             4440.18  4454.28  4465.68  4485.46  4504.82
                             5353.26

 Zero-point correction=                           0.158394 (Hartree/Particle)
 Thermal correction to Energy=                    0.166154
 Thermal correction to Enthalpy=                  0.167098
 Thermal correction to Gibbs Free Energy=         0.126617
 Sum of electronic and zero-point Energies=           -422.904688
 Sum of electronic and thermal Energies=              -422.896929
 Sum of electronic and thermal Enthalpies=            -422.895985
 Sum of electronic and thermal Free Energies=         -422.936465

                     E (Thermal)             CV                S
                      KCal/Mol        Cal/Mol-Kelvin    Cal/Mol-Kelvin
 Total                  104.263             31.625             85.198
 Electronic               0.000              0.000              0.000
 Translational            0.889              2.981             40.409
 Rotational               0.889              2.981             28.452
 Vibrational            102.485             25.663             16.338
 Vibration     1          0.614              1.918              2.861
 Vibration     2          0.638              1.839              2.129
 Vibration     3          0.659              1.774              1.779
 Vibration     4          0.674              1.729              1.597
 Vibration     5          0.693              1.673              1.414
 Vibration     6          0.736              1.550              1.112
 Vibration     7          0.780              1.433              0.902
 Vibration     8          0.858              1.244              0.651
 Vibration     9          0.892              1.167              0.571
 Vibration    10          0.967              1.014              0.436

 Normal termination of Gaussian 09 at Tue Jan 28 03:43:44 2020.
