 Gaussian 09, Revision D.01,
 Gaussian 09:  ES64L-G09RevD.01 24-Apr-2013

 -----------------------------
 # b3lyp 6-31G(2df,p) opt Freq
 -----------------------------

 -----
 titel
 -----
 Symbolic Z-matrix:
 Charge =  0 Multiplicity = 1

 SCF Done:  E(RB3LYP) =  -423.160236277     A.U. after   14 cycles
 Optimization completed.
    -- Stationary point found.
 Normal termination of Gaussian 09 at Mon Jan 27 12:04:43 2020.

 ----------------------------------------------------------------------
 #N Geom=AllCheck Guess=TCheck SCRF=Check GenChk RB3LYP/6-31G(2df,p) Fr
 eq
 ----------------------------------------------------------------------

 Structure from the checkpoint file:  "/scratch/puck/g09_e80b27c6-4c62-4fac-9168-7f2ba3295103/Gau-42286.chk"
 -----
 titel
 -----
 Charge =  0 Multiplicity = 1

                         Standard orientation:
 ---------------------------------------------------------------------
 Center     Atomic      Atomic             Coordinates (Angstroms)
 Number     Number       Type             X           Y           Z
 ---------------------------------------------------------------------
      1          6           0        2.025481   -0.212118    0.888037
      2          8           0        2.362888    0.202953   -0.431909
      3          6           0        0.965328    0.116530   -0.085578
      4          6           0        0.242086   -1.014747   -0.801746
      5          8           0       -0.811083   -1.619360   -0.074608
      6          6           0       -1.696788   -0.759698    0.623333
      7          6           0       -2.098539    0.532062   -0.102488
      8          6           0       -1.045519    1.614852   -0.088486
      9          6           0        0.274348    1.431033   -0.031309
     10          1           0        2.226347   -1.257079    1.122563
     11          1           0        2.265562    0.498622    1.677531
     12          1           0       -0.122748   -0.631574   -1.766985
     13          1           0        0.962822   -1.809692   -1.010304
     14          1           0       -2.588760   -1.366503    0.809178
     15          1           0       -1.270014   -0.489344    1.601961
     16          1           0       -2.416271    0.297847   -1.128456
     17          1           0       -2.995243    0.918552    0.397373
     18          1           0       -1.417238    2.636725   -0.087733
     19          1           0        0.942711    2.286214    0.026434
 ---------------------------------------------------------------------

 SCF Done:  E(RB3LYP) =  -423.160236277     A.U. after    1 cycles

 The electronic state is 1-A.
 Alpha  occ. eigenvalues --  -19.15394 -19.13908 -10.24505 -10.23546 -10.23126
 Alpha  occ. eigenvalues --  -10.22999 -10.19467 -10.19181 -10.18745  -1.07409
 Alpha  occ. eigenvalues --   -1.02997  -0.81018  -0.76714  -0.69377  -0.67279
 Alpha  occ. eigenvalues --   -0.65209  -0.57570  -0.54330  -0.50947  -0.49566
 Alpha  occ. eigenvalues --   -0.47626  -0.46258  -0.43526  -0.41836  -0.41049
 Alpha  occ. eigenvalues --   -0.40157  -0.38940  -0.37148  -0.33860  -0.32589
 Alpha  occ. eigenvalues --   -0.30840  -0.27796  -0.25154  -0.24365
 Alpha virt. eigenvalues --    0.00415   0.07297   0.10407   0.10441   0.11913
 Alpha virt. eigenvalues --    0.12773   0.14001   0.14727   0.15749   0.16509
 Alpha virt. eigenvalues --    0.17848   0.18405   0.19458   0.20953   0.21312

 Mulliken charges:
               1
     1  C   -0.221490
     2  O   -0.283760
     3  C    0.344052
     4  C   -0.147754
     5  O   -0.256455
     6  C   -0.054880
     7  C   -0.293538
     8  C   -0.072972
     9  C   -0.098959
    10  H    0.121146
    11  H    0.114587
    12  H    0.098315
    13  H    0.118387
    14  H    0.107443
    15  H    0.095462
    16  H    0.124955
    17  H    0.110043
    18  H    0.095220
    19  H    0.100197
 Sum of Mulliken charges =   0.00000

 Dipole moment (field-independent basis, Debye):
    X=             -1.4684    Y=              0.8639    Z=              1.1011  Tot=              2.0285
 Quadrupole moment (field-independent basis, Debye-Ang):
   XX=            -53.4817   YY=            -54.2708   ZZ=            -52.4346
   XY=             -2.9513   XZ=              2.7959   YZ=              0.3937

  Exact polarizability:  96.579  -4.967  73.805   3.991  -0.386  62.157
 Approx polarizability: 142.328  -7.592 104.294   4.062  -1.673  96.878

                      1                      2                      3
                      A                      A                      A
 Frequencies --     69.3648               158.5889               236.9246
 Red. masses --      3.1107                 3.4287                 2.4373
 Frc consts  --      0.0088                 0.0508                 0.0806
 IR Inten    --      0.3312                 6.9941                 2.4674

                      4                      5                      6
                      A                      A                      A
 Frequencies --    272.7592               316.6948               356.9717
 Red. masses --      2.4046                 3.4497                 3.5599
 Frc consts  --      0.1054                 0.2038                 0.2673
 IR Inten    --      1.1028                 5.4429                 0.6106

                      7                      8                      9
                      A                      A                      A
 Frequencies --    369.1433               422.7781               531.3470
 Red. masses --      3.2664                 2.6617                 2.6897
 Frc consts  --      0.2622                 0.2803                 0.4474
 IR Inten    --      1.8484                 0.8485                 4.0005

                     10                     11                     12
                      A                      A                      A
 Frequencies --    548.3393               653.3965               751.3511
 Red. masses --      3.4873                 2.7742                 1.5786
 Frc consts  --      0.6178                 0.6978                 0.5251
 IR Inten    --      3.6684                 2.7017                16.5704

                     13                     14                     15
                      A                      A                      A
 Frequencies --    789.6706               804.9439               870.1908
 Red. masses --      2.8085                 3.3110                 4.2381
 Frc consts  --      1.0318                 1.2640                 1.8908
 IR Inten    --     23.6102                 2.5306                 6.9465

                     16                     17                     18
                      A                      A                      A
 Frequencies --    898.3253               939.7590               959.1081
 Red. masses --      2.4635                 1.6268                 3.2795
 Frc consts  --      1.1713                 0.8465                 1.7774
 IR Inten    --     10.6280                16.4336                17.4910

                     19                     20                     21
                      A                      A                      A
 Frequencies --    987.7171              1003.9240              1032.3461
 Red. masses --      2.4843                 1.2227                 2.1535
 Frc consts  --      1.4280                 0.7261                 1.3522
 IR Inten    --     14.1628                 1.3121                24.1139

                     22                     23                     24
                      A                      A                      A
 Frequencies --   1051.6557              1079.1735              1132.2364
 Red. masses --      2.1520                 2.2165                 1.3395
 Frc consts  --      1.4023                 1.5209                 1.0117
 IR Inten    --      3.4820                 2.0187                 9.2275

                     25                     26                     27
                      A                      A                      A
 Frequencies --   1146.5490              1161.6589              1215.6124
 Red. masses --      2.3824                 1.5613                 1.2881
 Frc consts  --      1.8452                 1.2414                 1.1214
 IR Inten    --     62.7754                20.8538                 3.4579

                     28                     29                     30
                      A                      A                      A
 Frequencies --   1226.9159              1254.8974              1308.3811
 Red. masses --      1.2754                 1.3507                 1.8543
 Frc consts  --      1.1312                 1.2532                 1.8702
 IR Inten    --     26.2309                 3.3040                18.1998

                     31                     32                     33
                      A                      A                      A
 Frequencies --   1317.4822              1365.8725              1369.9745
 Red. masses --      1.1869                 2.0445                 1.6127
 Frc consts  --      1.2139                 2.2472                 1.7833
 IR Inten    --     11.2421                 8.4454                 2.0745

                     34                     35                     36
                      A                      A                      A
 Frequencies --   1396.4156              1423.7080              1437.5065
 Red. masses --      1.3101                 1.3659                 1.6676
 Frc consts  --      1.5052                 1.6312                 2.0304
 IR Inten    --      6.3529                 7.2191                 0.0306

                     37                     38                     39
                      A                      A                      A
 Frequencies --   1463.9875              1506.4962              1508.5005
 Red. masses --      1.0905                 1.1058                 1.0880
 Frc consts  --      1.3770                 1.4786                 1.4587
 IR Inten    --      4.7066                 3.0789                 1.6949

                     40                     41                     42
                      A                      A                      A
 Frequencies --   1525.5182              1720.5080              2979.8606
 Red. masses --      1.2314                 7.2494                 1.0697
 Frc consts  --      1.6885                12.6434                 5.5961
 IR Inten    --      1.6017                 1.4728                69.2863

                     43                     44                     45
                      A                      A                      A
 Frequencies --   2990.9068              3014.0147              3050.6501
 Red. masses --      1.0706                 1.0636                 1.0972
 Frc consts  --      5.6427                 5.6926                 6.0164
 IR Inten    --     16.1827                26.9593                20.8992

                     46                     47                     48
                      A                      A                      A
 Frequencies --   3072.6108              3079.5052              3095.3469
 Red. masses --      1.0925                 1.0500                 1.0933
 Frc consts  --      6.0768                 5.8666                 6.1718
 IR Inten    --     48.1577                23.8560                20.4398

                     49                     50                     51
                      A                      A                      A
 Frequencies --   3148.8183              3168.4766              3172.8303
 Red. masses --      1.0842                 1.1190                 1.0962
 Frc consts  --      6.3339                 6.6187                 6.5016
 IR Inten    --      6.6382                11.9905                22.3327

 - Thermochemistry -
 -------------------
 Temperature   298.150 Kelvin.  Pressure   1.00000 Atm.
 Atom     1 has atomic number  6 and mass  12.00000

 Molecular mass:   126.06808 amu.
 Principal axes and moments of inertia in atomic units:
                           1         2         3
     Eigenvalues --   645.532021206.492991579.52413
           X            0.99957  -0.02694   0.01149
           Y            0.02691   0.99963   0.00288
           Z           -0.01156  -0.00257   0.99993
 This molecule is an asymmetric top.
 Rotational symmetry number  1.
 Warning -- assumption of classical behavior for rotation
           may cause significant error
 Rotational temperatures (Kelvin)      0.13417     0.07179     0.05484
 Rotational constants (GHZ):           2.79574     1.49586     1.14259
 Zero-point vibrational energy     420844.5 (Joules/Mol)
                                  100.58426 (Kcal/Mol)
 Warning -- explicit consideration of  10 degrees of freedom as
           vibrations may cause significant error
 Vibrational temperatures:     99.80   228.17   340.88   392.44   455.65
          (Kelvin)            513.60   531.11   608.28   764.49   788.94
                              940.09  1081.03  1136.16  1158.13  1252.01
                             1292.49  1352.10  1379.94  1421.10  1444.42
                             1485.31  1513.10  1552.69  1629.03  1649.63
                             1671.37  1748.99  1765.26  1805.52  1882.47
                             1895.56  1965.18  1971.09  2009.13  2048.40
                             2068.25  2106.35  2167.51  2170.39  2194.88
                             2475.42  4287.35  4303.24  4336.49  4389.20
                             4420.80  4430.72  4453.51  4530.44  4558.73
                             4564.99

 Zero-point correction=                           0.160291 (Hartree/Particle)
 Thermal correction to Energy=                    0.168223
 Thermal correction to Enthalpy=                  0.169167
 Thermal correction to Gibbs Free Energy=         0.127760
 Sum of electronic and zero-point Energies=           -422.999945
 Sum of electronic and thermal Energies=              -422.992013
 Sum of electronic and thermal Enthalpies=            -422.991069
 Sum of electronic and thermal Free Energies=         -423.032476

                     E (Thermal)             CV                S
                      KCal/Mol        Cal/Mol-Kelvin    Cal/Mol-Kelvin
 Total                  105.562             30.860             87.148
 Electronic               0.000              0.000              0.000
 Translational            0.889              2.981             40.409
 Rotational               0.889              2.981             28.599
 Vibrational            103.784             24.898             18.140
 Vibration     1          0.598              1.969              4.171
 Vibration     2          0.621              1.893              2.567
 Vibration     3          0.656              1.784              1.826
 Vibration     4          0.676              1.724              1.579
 Vibration     5          0.704              1.642              1.327
 Vibration     6          0.732              1.561              1.135
 Vibration     7          0.741              1.536              1.083
 Vibration     8          0.785              1.421              0.883
 Vibration     9          0.886              1.181              0.584
 Vibration    10          0.904              1.143              0.548

 Optimization completed.
    -- Stationary point found.
 Normal termination of Gaussian 09 at Mon Jan 27 12:45:39 2020.
