 Gaussian 09, Revision D.01,
 Gaussian 09:  ES64L-G09RevD.01 24-Apr-2013

 -----------------------------
 # b3lyp 6-31G(2df,p) opt Freq
 -----------------------------

 -----
 titel
 -----
 Symbolic Z-matrix:
 Charge =  0 Multiplicity = 1

 SCF Done:  E(RB3LYP) =  -423.156968921     A.U. after   14 cycles
 Optimization completed.
    -- Stationary point found.
 Normal termination of Gaussian 09 at Mon Jan 27 13:11:09 2020.

 ----------------------------------------------------------------------
 #N Geom=AllCheck Guess=TCheck SCRF=Check GenChk RB3LYP/6-31G(2df,p) Fr
 eq
 ----------------------------------------------------------------------

 Structure from the checkpoint file:  "/scratch/puck/g09_d3b95dce-f1ef-4891-8853-68a5ae0641fe/Gau-74607.chk"
 -----
 titel
 -----
 Charge =  0 Multiplicity = 1

                         Standard orientation:
 ---------------------------------------------------------------------
 Center     Atomic      Atomic             Coordinates (Angstroms)
 Number     Number       Type             X           Y           Z
 ---------------------------------------------------------------------
      1          8           0       -0.132732    2.525188    0.011484
      2          6           0        0.633307    1.600892    0.124489
      3          6           0        0.276777    0.151500   -0.087311
      4          6           0        0.838773   -0.751396    1.064784
      5          6           0        2.077249   -1.083120    0.194860
      6          6           0        1.322395   -0.537478   -1.042680
      7          6           0       -1.175583    0.002303   -0.465066
      8          6           0       -2.220959   -0.339195    0.502623
      9          8           0       -1.713276   -1.322114   -0.407585
     10          1           0        1.700083    1.776322    0.398539
     11          1           0        1.007857   -0.275972    2.034261
     12          1           0        0.186158   -1.617038    1.193872
     13          1           0        2.945460   -0.471759    0.454853
     14          1           0        2.392167   -2.127799    0.161671
     15          1           0        1.870732    0.110314   -1.731472
     16          1           0        0.832186   -1.328284   -1.614608
     17          1           0       -1.473477    0.564920   -1.349541
     18          1           0       -1.959048   -0.496136    1.547800
     19          1           0       -3.245802   -0.020188    0.323243
 ---------------------------------------------------------------------

 SCF Done:  E(RB3LYP) =  -423.156968921     A.U. after    1 cycles

 The electronic state is 1-A.
 Alpha  occ. eigenvalues --  -19.15436 -19.14367 -10.27380 -10.23940 -10.23551
 Alpha  occ. eigenvalues --  -10.20933 -10.19818 -10.19699 -10.19410  -1.07321
 Alpha  occ. eigenvalues --   -1.05062  -0.86363  -0.72714  -0.67754  -0.66419
 Alpha  occ. eigenvalues --   -0.63301  -0.59992  -0.53699  -0.50937  -0.50042
 Alpha  occ. eigenvalues --   -0.48436  -0.45756  -0.43192  -0.42077  -0.40166
 Alpha  occ. eigenvalues --   -0.39576  -0.38677  -0.35838  -0.34522  -0.33609
 Alpha  occ. eigenvalues --   -0.32025  -0.29612  -0.27398  -0.25101
 Alpha virt. eigenvalues --   -0.02575   0.08350   0.08882   0.09342   0.11080
 Alpha virt. eigenvalues --    0.11278   0.12429   0.13116   0.15848   0.16022
 Alpha virt. eigenvalues --    0.17357   0.18003   0.18880   0.20052   0.21761

 Mulliken charges:
               1
     1  O   -0.264043
     2  C    0.129643
     3  C    0.199251
     4  C   -0.276777
     5  C   -0.218177
     6  C   -0.268724
     7  C    0.010900
     8  C   -0.180319
     9  O   -0.250989
    10  H    0.077674
    11  H    0.105164
    12  H    0.134612
    13  H    0.108881
    14  H    0.109612
    15  H    0.108215
    16  H    0.132577
    17  H    0.105763
    18  H    0.113430
    19  H    0.123308
 Sum of Mulliken charges =   0.00000

 Dipole moment (field-independent basis, Debye):
    X=              1.4270    Y=             -0.9490    Z=              0.6515  Tot=              1.8335
 Quadrupole moment (field-independent basis, Debye-Ang):
   XX=            -50.0902   YY=            -62.9697   ZZ=            -51.1232
   XY=             -0.8447   XZ=             -1.4509   YZ=             -1.1778

  Exact polarizability:  84.948  -4.038  74.107  -1.685  -1.622  66.489
 Approx polarizability: 114.755  -7.858 115.851  -2.368  -1.234 100.974

                      1                      2                      3
                      A                      A                      A
 Frequencies --     71.4878               103.8445               128.3989
 Red. masses --      4.3087                 3.1028                 2.3282
 Frc consts  --      0.0130                 0.0197                 0.0226
 IR Inten    --      7.0984                 1.2815                 0.2594

                      4                      5                      6
                      A                      A                      A
 Frequencies --    182.6722               210.4448               273.8549
 Red. masses --      4.5144                 2.8862                 2.7385
 Frc consts  --      0.0888                 0.0753                 0.1210
 IR Inten    --      8.5609                 1.7086                 1.1321

                      7                      8                      9
                      A                      A                      A
 Frequencies --    311.2565               409.9427               456.1461
 Red. masses --      2.0661                 4.9392                 3.1494
 Frc consts  --      0.1179                 0.4891                 0.3861
 IR Inten    --      0.8155                 0.6135                 1.2151

                     10                     11                     12
                      A                      A                      A
 Frequencies --    581.6442               648.8920               707.8441
 Red. masses --      3.6435                 2.4918                 1.8043
 Frc consts  --      0.7262                 0.6182                 0.5326
 IR Inten    --     23.6092                 2.1352                10.9470

                     13                     14                     15
                      A                      A                      A
 Frequencies --    788.3606               859.2192               877.2356
 Red. masses --      1.2159                 2.0156                 4.8681
 Frc consts  --      0.4453                 0.8767                 2.2072
 IR Inten    --      0.2963                 6.4963                10.0806

                     16                     17                     18
                      A                      A                      A
 Frequencies --    902.2049               910.9672               915.3967
 Red. masses --      2.3084                 3.0720                 2.5465
 Frc consts  --      1.1071                 1.5020                 1.2572
 IR Inten    --     25.8900                11.9549                25.0752

                     19                     20                     21
                      A                      A                      A
 Frequencies --    952.0950               979.8481              1003.4063
 Red. masses --      2.4595                 2.3847                 1.5730
 Frc consts  --      1.3136                 1.3489                 0.9331
 IR Inten    --      1.2820                 1.1987                 3.1011

                     22                     23                     24
                      A                      A                      A
 Frequencies --   1072.8262              1090.4366              1101.3811
 Red. masses --      1.4432                 1.2709                 1.8888
 Frc consts  --      0.9787                 0.8903                 1.3499
 IR Inten    --      1.8321                 0.3074                 0.2278

                     25                     26                     27
                      A                      A                      A
 Frequencies --   1154.8361              1164.4877              1178.2813
 Red. masses --      1.4919                 1.5529                 2.1209
 Frc consts  --      1.1723                 1.2407                 1.7349
 IR Inten    --      0.9369                 6.7580                 3.4935

                     28                     29                     30
                      A                      A                      A
 Frequencies --   1217.2119              1226.9245              1262.6936
 Red. masses --      1.3891                 1.8431                 1.2548
 Frc consts  --      1.2126                 1.6347                 1.1787
 IR Inten    --      0.6669                 2.0263                 0.4377

                     31                     32                     33
                      A                      A                      A
 Frequencies --   1270.7023              1278.6117              1298.7350
 Red. masses --      1.4849                 1.3590                 1.6550
 Frc consts  --      1.4126                 1.3090                 1.6447
 IR Inten    --      6.0925                 0.8040                 2.7403

                     34                     35                     36
                      A                      A                      A
 Frequencies --   1326.7137              1424.0403              1446.9844
 Red. masses --      1.8230                 1.4494                 1.5376
 Frc consts  --      1.8905                 1.7318                 1.8968
 IR Inten    --      3.4601                16.4949                 1.3374

                     37                     38                     39
                      A                      A                      A
 Frequencies --   1470.9788              1484.3082              1505.2067
 Red. masses --      1.0856                 1.0851                 1.1313
 Frc consts  --      1.3840                 1.4086                 1.5102
 IR Inten    --      2.4241                 1.8524                 1.1508

                     40                     41                     42
                      A                      A                      A
 Frequencies --   1528.7604              1818.0769              2857.2811
 Red. masses --      1.3609                10.7303                 1.0820
 Frc consts  --      1.8739                20.8971                 5.2046
 IR Inten    --      3.5377               187.0421               102.8749

                     43                     44                     45
                      A                      A                      A
 Frequencies --   3061.7918              3062.8955              3068.2400
 Red. masses --      1.0589                 1.0580                 1.0620
 Frc consts  --      5.8484                 5.8480                 5.8908
 IR Inten    --     12.7969                49.5960                25.3313

                     46                     47                     48
                      A                      A                      A
 Frequencies --   3090.4113              3107.4796              3115.3263
 Red. masses --      1.0503                 1.1068                 1.0881
 Frc consts  --      5.9101                 6.2972                 6.2221
 IR Inten    --     24.3881                 9.6001                14.0400

                     49                     50                     51
                      A                      A                      A
 Frequencies --   3123.7601              3132.8868              3177.9285
 Red. masses --      1.1073                 1.1064                 1.1193
 Frc consts  --      6.3663                 6.3982                 6.6603
 IR Inten    --      6.3928                27.3521                23.2714

 - Thermochemistry -
 -------------------
 Temperature   298.150 Kelvin.  Pressure   1.00000 Atm.
 Atom     1 has atomic number  8 and mass  15.99491

 Molecular mass:   126.06808 amu.
 Principal axes and moments of inertia in atomic units:
                           1         2         3
     Eigenvalues --   895.549231075.927531602.81646
           X            0.99531  -0.09625  -0.00947
           Y            0.09612   0.99529  -0.01287
           Z            0.01066   0.01190   0.99987
 This molecule is an asymmetric top.
 Rotational symmetry number  1.
 Warning -- assumption of classical behavior for rotation
           may cause significant error
 Rotational temperatures (Kelvin)      0.09672     0.08050     0.05404
 Rotational constants (GHZ):           2.01523     1.67738     1.12598
 Zero-point vibrational energy     415076.4 (Joules/Mol)
                                   99.20565 (Kcal/Mol)
 Warning -- explicit consideration of  10 degrees of freedom as
           vibrations may cause significant error
 Vibrational temperatures:    102.85   149.41   184.74   262.82   302.78
          (Kelvin)            394.02   447.83   589.82   656.29   836.86
                              933.61  1018.43  1134.27  1236.22  1262.14
                             1298.07  1310.68  1317.05  1369.85  1409.78
                             1443.68  1543.56  1568.89  1584.64  1661.55
                             1675.44  1695.28  1751.29  1765.27  1816.73
                             1828.25  1839.63  1868.59  1908.84  2048.87
                             2081.89  2116.41  2135.59  2165.65  2199.54
                             2615.80  4110.99  4405.23  4406.82  4414.51
                             4446.41  4470.96  4482.25  4494.39  4507.52
                             4572.32

 Zero-point correction=                           0.158094 (Hartree/Particle)
 Thermal correction to Energy=                    0.166833
 Thermal correction to Enthalpy=                  0.167777
 Thermal correction to Gibbs Free Energy=         0.124205
 Sum of electronic and zero-point Energies=           -422.998875
 Sum of electronic and thermal Energies=              -422.990136
 Sum of electronic and thermal Enthalpies=            -422.989191
 Sum of electronic and thermal Free Energies=         -423.032764

                     E (Thermal)             CV                S
                      KCal/Mol        Cal/Mol-Kelvin    Cal/Mol-Kelvin
 Total                  104.689             32.129             91.707
 Electronic               0.000              0.000              0.000
 Translational            0.889              2.981             40.409
 Rotational               0.889              2.981             28.825
 Vibrational            102.912             26.167             22.473
 Vibration     1          0.598              1.968              4.112
 Vibration     2          0.605              1.946              3.381
 Vibration     3          0.611              1.925              2.970
 Vibration     4          0.630              1.863              2.301
 Vibration     5          0.643              1.825              2.040
 Vibration     6          0.676              1.722              1.572
 Vibration     7          0.700              1.652              1.356
 Vibration     8          0.774              1.449              0.927
 Vibration     9          0.814              1.347              0.777
 Vibration    10          0.938              1.071              0.482

 Optimization completed.
    -- Stationary point found.
 Normal termination of Gaussian 09 at Mon Jan 27 13:55:17 2020.
