 Gaussian 09, Revision D.01,
 Gaussian 09:  ES64L-G09RevD.01 24-Apr-2013

 -----------------------------
 # b3lyp 6-31G(2df,p) opt Freq
 -----------------------------

 -----
 titel
 -----
 Symbolic Z-matrix:
 Charge =  0 Multiplicity = 1

 SCF Done:  E(RB3LYP) =  -423.176905131     A.U. after   13 cycles
 Optimization completed.
    -- Stationary point found.
 Normal termination of Gaussian 09 at Mon Jan 27 11:29:47 2020.

 ----------------------------------------------------------------------
 #N Geom=AllCheck Guess=TCheck SCRF=Check GenChk RB3LYP/6-31G(2df,p) Fr
 eq
 ----------------------------------------------------------------------

 Structure from the checkpoint file:  "/scratch/puck/g09_1b9e5f98-a987-4c5e-a259-0ac8345b9dad/Gau-61422.chk"
 -----
 titel
 -----
 Charge =  0 Multiplicity = 1

                         Standard orientation:
 ---------------------------------------------------------------------
 Center     Atomic      Atomic             Coordinates (Angstroms)
 Number     Number       Type             X           Y           Z
 ---------------------------------------------------------------------
      1          6           0       -1.259876    1.463291   -0.608013
      2          6           0       -1.122563    0.696608    0.691801
      3          8           0       -1.663564   -0.588112    0.819292
      4          6           0       -1.111224   -1.421036   -0.205670
      5          6           0        0.149093   -0.723019   -0.750967
      6          8           0        1.367427   -1.181595   -0.163301
      7          6           0        2.041645   -0.108393    0.504075
      8          6           0        1.414177    1.199490   -0.010790
      9          6           0        0.012189    0.718065   -0.287587
     10          1           0       -1.909012    1.077484   -1.388214
     11          1           0       -1.238341    2.546603   -0.541637
     12          1           0       -1.107507    1.232966    1.634416
     13          1           0       -0.878669   -2.399729    0.223102
     14          1           0       -1.844916   -1.557060   -1.012218
     15          1           0        0.222749   -0.848968   -1.839353
     16          1           0        1.899133   -0.201190    1.590155
     17          1           0        3.112064   -0.190687    0.291108
     18          1           0        1.465512    2.005787    0.725504
     19          1           0        1.907438    1.542411   -0.927890
 ---------------------------------------------------------------------

 SCF Done:  E(RB3LYP) =  -423.176905131     A.U. after    1 cycles

 The electronic state is 1-A.
 Alpha  occ. eigenvalues --  -19.14052 -19.13395 -10.23462 -10.23327 -10.22812
 Alpha  occ. eigenvalues --  -10.22502 -10.19736 -10.19252 -10.19113  -1.04775
 Alpha  occ. eigenvalues --   -1.02304  -0.85670  -0.76230  -0.74499  -0.65972
 Alpha  occ. eigenvalues --   -0.60656  -0.57742  -0.56721  -0.50040  -0.49344
 Alpha  occ. eigenvalues --   -0.47790  -0.45270  -0.44608  -0.42578  -0.40296
 Alpha  occ. eigenvalues --   -0.38834  -0.38514  -0.35504  -0.33901  -0.33398
 Alpha  occ. eigenvalues --   -0.30848  -0.28543  -0.24798  -0.22973
 Alpha virt. eigenvalues --    0.09047   0.09588   0.09913   0.10544   0.11917
 Alpha virt. eigenvalues --    0.13846   0.15109   0.15494   0.16767   0.17159
 Alpha virt. eigenvalues --    0.17415   0.19173   0.20581   0.21069   0.21407

 Mulliken charges:
               1
     1  C   -0.422356
     2  C    0.086148
     3  O   -0.259371
     4  C   -0.118480
     5  C    0.068780
     6  O   -0.283151
     7  C   -0.062664
     8  C   -0.344596
     9  C    0.285849
    10  H    0.117460
    11  H    0.116852
    12  H    0.100942
    13  H    0.123091
    14  H    0.096272
    15  H    0.077008
    16  H    0.100076
    17  H    0.104937
    18  H    0.105943
    19  H    0.107263
 Sum of Mulliken charges =   0.00000

 Dipole moment (field-independent basis, Debye):
    X=              0.5985    Y=              1.7297    Z=             -0.6964  Tot=              1.9583
 Quadrupole moment (field-independent basis, Debye-Ang):
   XX=            -55.2455   YY=            -52.3748   ZZ=            -52.2997
   XY=              1.9891   XZ=              3.2949   YZ=              1.9641

  Exact polarizability:  79.537   0.688  75.993   3.807   1.192  66.753
 Approx polarizability: 108.525  -0.300 108.228   1.652   1.110 104.282

                      1                      2                      3
                      A                      A                      A
 Frequencies --    101.5155               132.6527               206.5891
 Red. masses --      3.3224                 2.7440                 2.6538
 Frc consts  --      0.0202                 0.0284                 0.0667
 IR Inten    --      3.8174                 2.1062                 1.1576

                      4                      5                      6
                      A                      A                      A
 Frequencies --    320.4821               355.5939               424.4638
 Red. masses --      2.2445                 2.7362                 2.2613
 Frc consts  --      0.1358                 0.2039                 0.2400
 IR Inten    --      0.5999                 1.8849                 1.8768

                      7                      8                      9
                      A                      A                      A
 Frequencies --    518.3145               588.3875               663.7928
 Red. masses --      4.3697                 3.8072                 2.3889
 Frc consts  --      0.6917                 0.7766                 0.6202
 IR Inten    --      5.1515                 0.6752                 3.2596

                     10                     11                     12
                      A                      A                      A
 Frequencies --    730.2820               810.5722               821.1412
 Red. masses --      4.7662                 2.8035                 3.0920
 Frc consts  --      1.4976                 1.0853                 1.2284
 IR Inten    --      7.4243                10.6297                12.6521

                     13                     14                     15
                      A                      A                      A
 Frequencies --    833.8690               890.7273               903.1419
 Red. masses --      1.9347                 1.8142                 2.3883
 Frc consts  --      0.7926                 0.8481                 1.1478
 IR Inten    --      6.6478                 8.4130                 7.0389

                     16                     17                     18
                      A                      A                      A
 Frequencies --    935.6414               961.9573               980.3816
 Red. masses --      2.4978                 1.9058                 2.3068
 Frc consts  --      1.2883                 1.0391                 1.3063
 IR Inten    --     38.0508                 7.1125                12.0519

                     19                     20                     21
                      A                      A                      A
 Frequencies --   1001.9444              1014.9333              1035.3440
 Red. masses --      3.1739                 2.2629                 1.3593
 Frc consts  --      1.8773                 1.3734                 0.8585
 IR Inten    --     17.3864                12.3459                12.1292

                     22                     23                     24
                      A                      A                      A
 Frequencies --   1039.8690              1090.7760              1103.6911
 Red. masses --      2.0029                 2.1956                 1.7890
 Frc consts  --      1.2761                 1.5391                 1.2840
 IR Inten    --     18.5614                 7.6259                15.6989

                     25                     26                     27
                      A                      A                      A
 Frequencies --   1120.3597              1167.0719              1183.5206
 Red. masses --      3.3647                 3.6340                 1.6097
 Frc consts  --      2.4884                 2.9163                 1.3285
 IR Inten    --     54.5546                86.4249                19.9380

                     28                     29                     30
                      A                      A                      A
 Frequencies --   1227.7489              1238.2829              1253.4670
 Red. masses --      1.2482                 1.1906                 1.5398
 Frc consts  --      1.1086                 1.0757                 1.4254
 IR Inten    --      4.5867                 7.9973                 0.4792

                     31                     32                     33
                      A                      A                      A
 Frequencies --   1297.1594              1301.8433              1321.9978
 Red. masses --      1.7994                 1.5599                 1.4534
 Frc consts  --      1.7839                 1.5577                 1.4965
 IR Inten    --      6.2787                 1.9538                 0.7793

                     34                     35                     36
                      A                      A                      A
 Frequencies --   1363.2366              1374.8119              1394.4047
 Red. masses --      1.2220                 1.5410                 1.3809
 Frc consts  --      1.3380                 1.7161                 1.5820
 IR Inten    --      1.5531                 4.2873                 7.0084

                     37                     38                     39
                      A                      A                      A
 Frequencies --   1419.4478              1483.4939              1490.7035
 Red. masses --      1.5725                 1.5954                 1.1049
 Frc consts  --      1.8667                 2.0686                 1.4466
 IR Inten    --      8.1606                10.5880                 4.0065

                     40                     41                     42
                      A                      A                      A
 Frequencies --   1506.6758              1525.4537              2999.8422
 Red. masses --      1.0888                 1.0937                 1.0715
 Frc consts  --      1.4563                 1.4995                 5.6810
 IR Inten    --      2.2377                 1.2575                35.2973

                     43                     44                     45
                      A                      A                      A
 Frequencies --   3001.1711              3020.4309              3036.5984
 Red. masses --      1.0712                 1.0798                 1.0652
 Frc consts  --      5.6849                 5.8038                 5.7873
 IR Inten    --     49.0484                81.8021                28.0745

                     46                     47                     48
                      A                      A                      A
 Frequencies --   3073.5054              3092.3343              3099.7142
 Red. masses --      1.0946                 1.0965                 1.1007
 Frc consts  --      6.0921                 6.1775                 6.2310
 IR Inten    --     53.1471                19.8744                23.0446

                     49                     50                     51
                      A                      A                      A
 Frequencies --   3121.7770              3172.0648              3208.3412
 Red. masses --      1.0542                 1.0921                 1.1159
 Frc consts  --      6.0528                 6.4742                 6.7676
 IR Inten    --     12.4215                13.7857                 8.5272

 - Thermochemistry -
 -------------------
 Temperature   298.150 Kelvin.  Pressure   1.00000 Atm.
 Atom     1 has atomic number  6 and mass  12.00000

 Molecular mass:   126.06808 amu.
 Principal axes and moments of inertia in atomic units:
                           1         2         3
     Eigenvalues --   656.87910 976.875781306.02610
           X            0.99888   0.03396   0.03288
           Y           -0.03449   0.99928   0.01571
           Z           -0.03232  -0.01683   0.99934
 This molecule is an asymmetric top.
 Rotational symmetry number  1.
 Warning -- assumption of classical behavior for rotation
           may cause significant error
 Rotational temperatures (Kelvin)      0.13186     0.08866     0.06632
 Rotational constants (GHZ):           2.74745     1.84746     1.38186
 Zero-point vibrational energy     424444.2 (Joules/Mol)
                                  101.44459 (Kcal/Mol)
 Warning -- explicit consideration of   8 degrees of freedom as
           vibrations may cause significant error
 Vibrational temperatures:    146.06   190.86   297.24   461.10   511.62
          (Kelvin)            610.71   745.74   846.56   955.05  1050.71
                             1166.23  1181.44  1199.75  1281.56  1299.42
                             1346.18  1384.04  1410.55  1441.57  1460.26
                             1489.63  1496.14  1569.38  1587.96  1611.95
                             1679.15  1702.82  1766.45  1781.61  1803.46
                             1866.32  1873.06  1902.06  1961.39  1978.05
                             2006.23  2042.27  2134.41  2144.79  2167.77
                             2194.78  4316.10  4318.01  4345.72  4368.98
                             4422.08  4449.17  4459.79  4491.54  4563.89
                             4616.08

 Zero-point correction=                           0.161662 (Hartree/Particle)
 Thermal correction to Energy=                    0.168922
 Thermal correction to Enthalpy=                  0.169866
 Thermal correction to Gibbs Free Energy=         0.129871
 Sum of electronic and zero-point Energies=           -423.015243
 Sum of electronic and thermal Energies=              -423.007983
 Sum of electronic and thermal Enthalpies=            -423.007039
 Sum of electronic and thermal Free Energies=         -423.047034

                     E (Thermal)             CV                S
                      KCal/Mol        Cal/Mol-Kelvin    Cal/Mol-Kelvin
 Total                  106.000             28.743             84.176
 Electronic               0.000              0.000              0.000
 Translational            0.889              2.981             40.409
 Rotational               0.889              2.981             28.218
 Vibrational            104.223             22.781             15.550
 Vibration     1          0.604              1.948              3.425
 Vibration     2          0.613              1.921              2.907
 Vibration     3          0.641              1.830              2.074
 Vibration     4          0.706              1.634              1.308
 Vibration     5          0.731              1.564              1.141
 Vibration     6          0.786              1.417              0.877
 Vibration     7          0.873              1.209              0.614
 Vibration     8          0.946              1.057              0.470

 Optimization completed.
    -- Stationary point found.
 Normal termination of Gaussian 09 at Mon Jan 27 13:53:20 2020.
