 Gaussian 09, Revision D.01,
 Gaussian 09:  ES64L-G09RevD.01 24-Apr-2013

 -----------------------------
 # b3lyp 6-31G(2df,p) opt Freq
 -----------------------------

 -----
 titel
 -----
 Symbolic Z-matrix:
 Charge =  0 Multiplicity = 1

 SCF Done:  E(RB3LYP) =  -423.112383691     A.U. after   14 cycles
 Optimization completed.
    -- Stationary point found.
 Normal termination of Gaussian 09 at Mon Jan 27 16:07:20 2020.

 ----------------------------------------------------------------------
 #N Geom=AllCheck Guess=TCheck SCRF=Check GenChk RB3LYP/6-31G(2df,p) Fr
 eq
 ----------------------------------------------------------------------

 Structure from the checkpoint file:  "/scratch/puck/g09_1d83e07f-61cd-4226-aff4-54e07183a416/Gau-38917.chk"
 -----
 titel
 -----
 Charge =  0 Multiplicity = 1

                         Standard orientation:
 ---------------------------------------------------------------------
 Center     Atomic      Atomic             Coordinates (Angstroms)
 Number     Number       Type             X           Y           Z
 ---------------------------------------------------------------------
      1          8           0        2.737680    0.492427   -0.552941
      2          6           0        2.112847    0.013951    0.361174
      3          6           0        0.896867   -0.853865    0.187208
      4          6           0       -0.482968   -0.746972    0.913241
      5          8           0       -1.005421   -1.661500   -0.124734
      6          6           0       -0.219684   -0.640258   -0.863595
      7          6           0       -0.912704    0.465628    0.018039
      8          6           0       -0.284754    1.840862    0.225278
      9          6           0       -2.416546    0.616728   -0.211485
     10          1           0        2.460562    0.126296    1.415185
     11          1           0        1.237728   -1.896671    0.199891
     12          1           0       -0.733500   -0.974217    1.951096
     13          1           0       -0.167183   -0.733419   -1.948423
     14          1           0       -0.366763    2.436292   -0.690358
     15          1           0       -0.829878    2.376131    1.010430
     16          1           0        0.766964    1.832233    0.508573
     17          1           0       -2.889100    1.090357    0.656392
     18          1           0       -2.603178    1.266380   -1.073945
     19          1           0       -2.892075   -0.347235   -0.386602
 ---------------------------------------------------------------------

 SCF Done:  E(RB3LYP) =  -423.112383691     A.U. after    1 cycles

 The electronic state is 1-A.
 Alpha  occ. eigenvalues --  -19.14478 -19.14235 -10.27947 -10.25938 -10.25614
 Alpha  occ. eigenvalues --  -10.21522 -10.21109 -10.18455 -10.17457  -1.06742
 Alpha  occ. eigenvalues --   -1.05125  -0.81745  -0.76445  -0.69015  -0.67020
 Alpha  occ. eigenvalues --   -0.66187  -0.58924  -0.52923  -0.51244  -0.48467
 Alpha  occ. eigenvalues --   -0.45146  -0.44856  -0.44681  -0.41217  -0.40101
 Alpha  occ. eigenvalues --   -0.38854  -0.38600  -0.37525  -0.34157  -0.33483
 Alpha  occ. eigenvalues --   -0.32702  -0.30747  -0.26927  -0.24076
 Alpha virt. eigenvalues --   -0.03094   0.07572   0.09729   0.09834   0.11710
 Alpha virt. eigenvalues --    0.12001   0.12553   0.13919   0.14841   0.15205
 Alpha virt. eigenvalues --    0.16262   0.17061   0.18341   0.19756   0.20287

 Mulliken charges:
               1
     1  O   -0.249696
     2  C    0.096057
     3  C   -0.046173
     4  C   -0.036071
     5  O   -0.304144
     6  C   -0.016813
     7  C    0.347899
     8  C   -0.486601
     9  C   -0.458077
    10  H    0.079445
    11  H    0.121311
    12  H    0.094418
    13  H    0.102672
    14  H    0.131570
    15  H    0.120374
    16  H    0.133932
    17  H    0.112861
    18  H    0.115153
    19  H    0.141880
 Sum of Mulliken charges =   0.00000

 Dipole moment (field-independent basis, Debye):
    X=             -0.9387    Y=              0.5234    Z=              1.5933  Tot=              1.9219
 Quadrupole moment (field-independent basis, Debye-Ang):
   XX=            -60.5010   YY=            -55.7808   ZZ=            -50.3172
   XY=             -5.5586   XZ=              3.4434   YZ=             -0.0323

  Exact polarizability:  85.012  -1.017  73.085   0.003  -1.317  71.061
 Approx polarizability: 115.557   5.024 109.439  -5.816  -4.351 117.306

                      1                      2                      3
                      A                      A                      A
 Frequencies --     63.9944               110.5984               146.0880
 Red. masses --      3.1237                 2.1390                 1.4714
 Frc consts  --      0.0075                 0.0154                 0.0185
 IR Inten    --      8.1438                 5.7000                 1.9294

                      4                      5                      6
                      A                      A                      A
 Frequencies --    209.6479               223.2163               252.7384
 Red. masses --      1.6559                 1.4280                 3.4067
 Frc consts  --      0.0429                 0.0419                 0.1282
 IR Inten    --      0.4020                 0.9056                 5.2033

                      7                      8                      9
                      A                      A                      A
 Frequencies --    343.5811               370.4382               401.5190
 Red. masses --      3.3441                 2.2316                 2.3473
 Frc consts  --      0.2326                 0.1804                 0.2230
 IR Inten    --      2.0299                 0.0759                 0.3987

                     10                     11                     12
                      A                      A                      A
 Frequencies --    494.1444               604.8426               633.6014
 Red. masses --      6.5333                 4.4390                 3.4081
 Frc consts  --      0.9399                 0.9568                 0.8061
 IR Inten    --      2.0518                 4.2269                 1.0891

                     13                     14                     15
                      A                      A                      A
 Frequencies --    691.4981               725.0768               781.4176
 Red. masses --      3.9451                 3.8084                 2.4939
 Frc consts  --      1.1115                 1.1797                 0.8972
 IR Inten    --     24.1995                 5.4076                 3.5998

                     16                     17                     18
                      A                      A                      A
 Frequencies --    812.1645               870.4899               932.2920
 Red. masses --      3.8098                 3.2613                 2.0829
 Frc consts  --      1.4806                 1.4560                 1.0667
 IR Inten    --      7.9069                44.2898                 8.9397

                     19                     20                     21
                      A                      A                      A
 Frequencies --    950.8731               958.7529              1004.0980
 Red. masses --      1.4716                 1.6644                 1.3491
 Frc consts  --      0.7839                 0.9014                 0.8014
 IR Inten    --      1.7594                 7.2878                 2.0287

                     22                     23                     24
                      A                      A                      A
 Frequencies --   1012.6437              1047.2801              1092.1675
 Red. masses --      1.6499                 1.6859                 3.8480
 Frc consts  --      0.9968                 1.0895                 2.7044
 IR Inten    --      0.3012                 4.2019                 4.6643

                     25                     26                     27
                      A                      A                      A
 Frequencies --   1126.8615              1142.2218              1174.8188
 Red. masses --      1.9867                 1.2606                 1.6107
 Frc consts  --      1.4864                 0.9690                 1.3098
 IR Inten    --      3.0519                 4.2056                 1.9131

                     28                     29                     30
                      A                      A                      A
 Frequencies --   1188.8633              1222.8791              1230.1366
 Red. masses --      1.8279                 2.6360                 2.0146
 Frc consts  --      1.5222                 2.3225                 1.7962
 IR Inten    --      7.7880                14.6494                15.6933

                     31                     32                     33
                      A                      A                      A
 Frequencies --   1255.8231              1312.1934              1362.9868
 Red. masses --      1.6009                 2.6293                 1.9002
 Frc consts  --      1.4875                 2.6674                 2.0798
 IR Inten    --      6.2368                 3.3783                 3.1088

                     34                     35                     36
                      A                      A                      A
 Frequencies --   1398.1151              1420.4266              1427.8338
 Red. masses --      1.2685                 1.2254                 1.2164
 Frc consts  --      1.4609                 1.4567                 1.4611
 IR Inten    --      7.7186                 7.0097                 4.6982

                     37                     38                     39
                      A                      A                      A
 Frequencies --   1480.1305              1484.9161              1507.6066
 Red. masses --      1.0455                 1.0509                 1.0708
 Frc consts  --      1.3495                 1.3652                 1.4340
 IR Inten    --      1.8789                 4.1558                 0.0199

                     40                     41                     42
                      A                      A                      A
 Frequencies --   1513.0956              1812.8466              2851.3945
 Red. masses --      1.0500                10.7488                 1.0817
 Frc consts  --      1.4164                20.8129                 5.1818
 IR Inten    --      8.5914               145.8599               119.1884

                     43                     44                     45
                      A                      A                      A
 Frequencies --   3033.2919              3042.3019              3044.0879
 Red. masses --      1.0405                 1.0474                 1.0752
 Frc consts  --      5.6405                 5.7118                 5.8702
 IR Inten    --     17.9369                37.5393                 4.2734

                     46                     47                     48
                      A                      A                      A
 Frequencies --   3086.8073              3096.6012              3103.6868
 Red. masses --      1.1004                 1.1000                 1.0913
 Frc consts  --      6.1774                 6.2145                 6.1939
 IR Inten    --      9.2265                23.8663                53.9723

                     49                     50                     51
                      A                      A                      A
 Frequencies --   3123.5699              3150.3019              3157.8262
 Red. masses --      1.0934                 1.0933                 1.0965
 Frc consts  --      6.2852                 6.3930                 6.4421
 IR Inten    --     23.3289                26.4453                 7.3072

 - Thermochemistry -
 -------------------
 Temperature   298.150 Kelvin.  Pressure   1.00000 Atm.
 Atom     1 has atomic number  8 and mass  15.99491

 Molecular mass:   126.06808 amu.
 Principal axes and moments of inertia in atomic units:
                           1         2         3
     Eigenvalues --   639.762701276.854601628.21427
           X            0.99880  -0.04648   0.01554
           Y            0.04642   0.99891   0.00407
           Z           -0.01571  -0.00335   0.99987
 This molecule is an asymmetric top.
 Rotational symmetry number  1.
 Warning -- assumption of classical behavior for rotation
           may cause significant error
 Rotational temperatures (Kelvin)      0.13538     0.06783     0.05320
 Rotational constants (GHZ):           2.82095     1.41343     1.10842
 Zero-point vibrational energy     409630.0 (Joules/Mol)
                                   97.90392 (Kcal/Mol)
 Warning -- explicit consideration of  11 degrees of freedom as
           vibrations may cause significant error
 Vibrational temperatures:     92.07   159.13   210.19   301.64   321.16
          (Kelvin)            363.63   494.34   532.98   577.70   710.96
                              870.23   911.61   994.91  1043.22  1124.28
                             1168.52  1252.44  1341.36  1368.09  1379.43
                             1444.67  1456.97  1506.80  1571.38  1621.30
                             1643.40  1690.30  1710.51  1759.45  1769.89
                             1806.85  1887.95  1961.03  2011.57  2043.67
                             2054.33  2129.58  2136.46  2169.11  2177.00
                             2608.28  4102.52  4364.23  4377.19  4379.76
                             4441.22  4455.31  4465.51  4494.11  4532.58
                             4543.40

 Zero-point correction=                           0.156020 (Hartree/Particle)
 Thermal correction to Energy=                    0.165007
 Thermal correction to Enthalpy=                  0.165951
 Thermal correction to Gibbs Free Energy=         0.122181
 Sum of electronic and zero-point Energies=           -422.956364
 Sum of electronic and thermal Energies=              -422.947377
 Sum of electronic and thermal Enthalpies=            -422.946433
 Sum of electronic and thermal Free Energies=         -422.990203

                     E (Thermal)             CV                S
                      KCal/Mol        Cal/Mol-Kelvin    Cal/Mol-Kelvin
 Total                  103.543             33.533             92.122
 Electronic               0.000              0.000              0.000
 Translational            0.889              2.981             40.409
 Rotational               0.889              2.981             28.677
 Vibrational            101.766             27.571             23.037
 Vibration     1          0.597              1.971              4.330
 Vibration     2          0.606              1.941              3.258
 Vibration     3          0.617              1.907              2.723
 Vibration     4          0.642              1.826              2.047
 Vibration     5          0.649              1.806              1.933
 Vibration     6          0.664              1.758              1.711
 Vibration     7          0.722              1.588              1.195
 Vibration     8          0.742              1.533              1.078
 Vibration     9          0.767              1.467              0.957
 Vibration    10          0.850              1.263              0.673
 Vibration    11          0.963              1.022              0.441

 Optimization completed.
    -- Stationary point found.
 Normal termination of Gaussian 09 at Mon Jan 27 16:48:46 2020.
