 Gaussian 09, Revision D.01,
 Gaussian 09:  ES64L-G09RevD.01 24-Apr-2013

 -----------------------------
 # b3lyp 6-31G(2df,p) opt Freq
 -----------------------------

 -----
 titel
 -----
 Symbolic Z-matrix:
 Charge =  0 Multiplicity = 1

 SCF Done:  E(RB3LYP) =  -423.156469020     A.U. after   14 cycles
 Optimization completed.
    -- Stationary point found.
 Normal termination of Gaussian 09 at Mon Jan 27 13:22:57 2020.

 ----------------------------------------------------------------------
 #N Geom=AllCheck Guess=TCheck SCRF=Check GenChk RB3LYP/6-31G(2df,p) Fr
 eq
 ----------------------------------------------------------------------

 Structure from the checkpoint file:  "/scratch/puck/g09_9edcf31e-03a2-4f4f-815d-4d09343cb6a4/Gau-75859.chk"
 -----
 titel
 -----
 Charge =  0 Multiplicity = 1

                         Standard orientation:
 ---------------------------------------------------------------------
 Center     Atomic      Atomic             Coordinates (Angstroms)
 Number     Number       Type             X           Y           Z
 ---------------------------------------------------------------------
      1          8           0        1.871510   -1.784793   -0.635172
      2          6           0        2.058018   -0.982660    0.244985
      3          6           0        1.100742    0.113401    0.624831
      4          6           0        1.470185    1.545967    0.142817
      5          8           0        0.214427    1.678358   -0.537119
      6          6           0       -0.164447    0.303419   -0.238704
      7          6           0       -1.501775    0.186345    0.419424
      8          6           0       -2.740051    0.027780   -0.427825
      9          6           0       -2.224168   -1.141389    0.366844
     10          1           0        3.000662   -0.998774    0.839500
     11          1           0        0.911824    0.068775    1.702228
     12          1           0        1.603431    2.297578    0.928959
     13          1           0        2.324323    1.593157   -0.546034
     14          1           0       -0.131037   -0.312970   -1.146231
     15          1           0       -1.606483    0.767913    1.331510
     16          1           0       -3.647257    0.518985   -0.095211
     17          1           0       -2.613581    0.007225   -1.505014
     18          1           0       -2.774698   -1.454969    1.246362
     19          1           0       -1.745725   -1.952629   -0.171975
 ---------------------------------------------------------------------

 SCF Done:  E(RB3LYP) =  -423.156469020     A.U. after    1 cycles

 The electronic state is 1-A.
 Alpha  occ. eigenvalues --  -19.14858 -19.13544 -10.27930 -10.24461 -10.23832
 Alpha  occ. eigenvalues --  -10.20629 -10.19355 -10.18980 -10.18801  -1.05595
 Alpha  occ. eigenvalues --   -1.04048  -0.86121  -0.77586  -0.70826  -0.63397
 Alpha  occ. eigenvalues --   -0.60225  -0.58815  -0.55550  -0.50947  -0.50061
 Alpha  occ. eigenvalues --   -0.47643  -0.46375  -0.44285  -0.44140  -0.41259
 Alpha  occ. eigenvalues --   -0.38925  -0.37178  -0.36687  -0.34576  -0.32089
 Alpha  occ. eigenvalues --   -0.29741  -0.28910  -0.25907  -0.25073
 Alpha virt. eigenvalues --   -0.03085   0.07573   0.08496   0.09714   0.11511
 Alpha virt. eigenvalues --    0.12155   0.13244   0.13904   0.14392   0.16639
 Alpha virt. eigenvalues --    0.17285   0.17397   0.18584   0.22283   0.22580

 Mulliken charges:
               1
     1  O   -0.240944
     2  C    0.142827
     3  C   -0.172820
     4  C   -0.085367
     5  O   -0.291330
     6  C    0.136844
     7  C   -0.001591
     8  C   -0.267839
     9  C   -0.273381
    10  H    0.080367
    11  H    0.101044
    12  H    0.111069
    13  H    0.107640
    14  H    0.093134
    15  H    0.081659
    16  H    0.115906
    17  H    0.121365
    18  H    0.114460
    19  H    0.126959
 Sum of Mulliken charges =   0.00000

 Dipole moment (field-independent basis, Debye):
    X=              0.1955    Y=              0.5370    Z=              2.4347  Tot=              2.5009
 Quadrupole moment (field-independent basis, Debye-Ang):
   XX=            -49.4112   YY=            -59.6643   ZZ=            -52.1402
   XY=              4.2985   XZ=              2.4990   YZ=             -0.1913

  Exact polarizability:  88.709   2.672  75.368   3.332   3.181  65.815
 Approx polarizability: 110.214   2.487 114.324   5.489   8.792 105.395

                      1                      2                      3
                      A                      A                      A
 Frequencies --     43.0120                73.5314                86.7233
 Red. masses --      5.8689                 2.9815                 2.3400
 Frc consts  --      0.0064                 0.0095                 0.0104
 IR Inten    --      5.0814                 1.6943                 1.7224

                      4                      5                      6
                      A                      A                      A
 Frequencies --    163.1595               174.2698               277.1092
 Red. masses --      2.6005                 5.2110                 2.6400
 Frc consts  --      0.0408                 0.0932                 0.1194
 IR Inten    --      2.7087                 4.4732                 1.9803

                      7                      8                      9
                      A                      A                      A
 Frequencies --    309.3644               403.5639               454.6870
 Red. masses --      3.3601                 3.3885                 3.2533
 Frc consts  --      0.1895                 0.3251                 0.3963
 IR Inten    --      2.3553                 1.0199                 8.9724

                     10                     11                     12
                      A                      A                      A
 Frequencies --    638.7167               730.2203               776.1021
 Red. masses --      3.6388                 4.3654                 1.1026
 Frc consts  --      0.8746                 1.3714                 0.3913
 IR Inten    --      3.8520                26.2244                 0.1386

                     13                     14                     15
                      A                      A                      A
 Frequencies --    831.6204               845.0037               893.9489
 Red. masses --      1.3035                 1.7163                 2.6032
 Frc consts  --      0.5312                 0.7221                 1.2257
 IR Inten    --      0.8056                 3.0285                15.9739

                     16                     17                     18
                      A                      A                      A
 Frequencies --    912.9261               927.2133               955.8354
 Red. masses --      1.6108                 3.6012                 2.1243
 Frc consts  --      0.7910                 1.8242                 1.1435
 IR Inten    --      2.2657                13.9782                 3.3370

                     19                     20                     21
                      A                      A                      A
 Frequencies --   1004.8357              1006.3888              1036.2401
 Red. masses --      4.4407                 2.5464                 4.0879
 Frc consts  --      2.6417                 1.5195                 2.5863
 IR Inten    --     36.2631                26.9181                99.9697

                     22                     23                     24
                      A                      A                      A
 Frequencies --   1063.8689              1082.7235              1102.0673
 Red. masses --      1.3368                 1.3606                 2.5590
 Frc consts  --      0.8914                 0.9397                 1.8312
 IR Inten    --     18.7924                 1.9243                 2.5972

                     25                     26                     27
                      A                      A                      A
 Frequencies --   1118.3914              1131.9799              1165.2343
 Red. masses --      2.0460                 1.1367                 1.1795
 Frc consts  --      1.5078                 0.8582                 0.9435
 IR Inten    --      9.8363                 1.3282                 2.3830

                     28                     29                     30
                      A                      A                      A
 Frequencies --   1186.9020              1198.1831              1223.3202
 Red. masses --      1.9185                 1.3718                 1.8758
 Frc consts  --      1.5924                 1.1603                 1.6539
 IR Inten    --      3.4002                 0.2137                 1.3070

                     31                     32                     33
                      A                      A                      A
 Frequencies --   1231.0972              1256.9023              1320.0435
 Red. masses --      1.5293                 1.3087                 1.3470
 Frc consts  --      1.3656                 1.2181                 1.3829
 IR Inten    --     17.1917                 5.3280                 1.2779

                     34                     35                     36
                      A                      A                      A
 Frequencies --   1346.3591              1367.9480              1426.3187
 Red. masses --      1.3565                 1.7083                 1.2083
 Frc consts  --      1.4488                 1.8835                 1.4483
 IR Inten    --      3.4481                23.5143                10.1225

                     37                     38                     39
                      A                      A                      A
 Frequencies --   1450.5088              1470.9108              1505.9495
 Red. masses --      1.6020                 1.0869                 1.3929
 Frc consts  --      1.9859                 1.3856                 1.8612
 IR Inten    --     18.4894                 1.5914                 1.2202

                     40                     41                     42
                      A                      A                      A
 Frequencies --   1526.8427              1823.1194              2865.7461
 Red. masses --      1.1114                10.2881                 1.0825
 Frc consts  --      1.5265                20.1473                 5.2377
 IR Inten    --      1.3450               130.7567               137.8743

                     43                     44                     45
                      A                      A                      A
 Frequencies --   3007.7536              3030.7769              3053.9330
 Red. masses --      1.0583                 1.0844                 1.0991
 Frc consts  --      5.6408                 5.8687                 6.0393
 IR Inten    --     81.7985                12.7840                17.5091

                     46                     47                     48
                      A                      A                      A
 Frequencies --   3069.4127              3134.4513              3137.7879
 Red. masses --      1.0925                 1.0511                 1.0606
 Frc consts  --      6.0644                 6.0846                 6.1522
 IR Inten    --     32.9243                15.4694                15.6504

                     49                     50                     51
                      A                      A                      A
 Frequencies --   3143.9465              3213.7425              3228.2717
 Red. masses --      1.0864                 1.1179                 1.1155
 Frc consts  --      6.3270                 6.8025                 6.8497
 IR Inten    --      7.7057                 0.4457                15.6210

 - Thermochemistry -
 -------------------
 Temperature   298.150 Kelvin.  Pressure   1.00000 Atm.
 Atom     1 has atomic number  8 and mass  15.99491

 Molecular mass:   126.06808 amu.
 Principal axes and moments of inertia in atomic units:
                           1         2         3
     Eigenvalues --   728.836211470.768921949.36604
           X            0.99908   0.04181   0.00975
           Y           -0.04185   0.99912   0.00357
           Z           -0.00959  -0.00398   0.99995
 This molecule is an asymmetric top.
 Rotational symmetry number  1.
 Warning -- assumption of classical behavior for rotation
           may cause significant error
 Rotational temperatures (Kelvin)      0.11884     0.05889     0.04443
 Rotational constants (GHZ):           2.47620     1.22707     0.92581
 Zero-point vibrational energy     415277.4 (Joules/Mol)
                                   99.25369 (Kcal/Mol)
 Warning -- explicit consideration of   9 degrees of freedom as
           vibrations may cause significant error
 Vibrational temperatures:     61.88   105.80   124.78   234.75   250.74
          (Kelvin)            398.70   445.11   580.64   654.19   918.97
                             1050.62  1116.64  1196.51  1215.77  1286.19
                             1313.50  1334.05  1375.23  1445.73  1447.97
                             1490.92  1530.67  1557.80  1585.63  1609.11
                             1628.66  1676.51  1707.69  1723.92  1760.08
                             1771.27  1808.40  1899.25  1937.11  1968.17
                             2052.15  2086.96  2116.31  2166.72  2196.78
                             2623.06  4123.16  4327.48  4360.61  4393.92
                             4416.19  4509.77  4514.57  4523.43  4623.85
                             4644.76

 Zero-point correction=                           0.158171 (Hartree/Particle)
 Thermal correction to Energy=                    0.167092
 Thermal correction to Enthalpy=                  0.168036
 Thermal correction to Gibbs Free Energy=         0.123041
 Sum of electronic and zero-point Energies=           -422.998298
 Sum of electronic and thermal Energies=              -422.989377
 Sum of electronic and thermal Enthalpies=            -422.988433
 Sum of electronic and thermal Free Energies=         -423.033428

                     E (Thermal)             CV                S
                      KCal/Mol        Cal/Mol-Kelvin    Cal/Mol-Kelvin
 Total                  104.852             31.788             94.700
 Electronic               0.000              0.000              0.000
 Translational            0.889              2.981             40.409
 Rotational               0.889              2.981             29.126
 Vibrational            103.074             25.826             25.166
 Vibration     1          0.595              1.980              5.115
 Vibration     2          0.599              1.966              4.057
 Vibration     3          0.601              1.958              3.733
 Vibration     4          0.623              1.888              2.513
 Vibration     5          0.627              1.874              2.389
 Vibration     6          0.678              1.716              1.551
 Vibration     7          0.699              1.656              1.366
 Vibration     8          0.769              1.462              0.950
 Vibration     9          0.813              1.351              0.782

 Optimization completed.
    -- Stationary point found.
 Normal termination of Gaussian 09 at Mon Jan 27 14:05:32 2020.
