 Gaussian 09, Revision D.01,
 Gaussian 09:  ES64L-G09RevD.01 24-Apr-2013

 -----------------------------
 # b3lyp 6-31G(2df,p) opt Freq
 -----------------------------

 -----
 titel
 -----
 Symbolic Z-matrix:
 Charge =  0 Multiplicity = 1

 SCF Done:  E(RB3LYP) =  -423.204499480     A.U. after   14 cycles
 Optimization completed.
    -- Stationary point found.
 Normal termination of Gaussian 09 at Mon Jan 27 13:15:05 2020.

 ----------------------------------------------------------------------
 #N Geom=AllCheck Guess=TCheck SCRF=Check GenChk RB3LYP/6-31G(2df,p) Fr
 eq
 ----------------------------------------------------------------------

 Structure from the checkpoint file:  "/scratch/puck/g09_41c42964-9da5-4549-a29e-93fd6245d7b2/Gau-169484.chk"
 -----
 titel
 -----
 Charge =  0 Multiplicity = 1

                         Standard orientation:
 ---------------------------------------------------------------------
 Center     Atomic      Atomic             Coordinates (Angstroms)
 Number     Number       Type             X           Y           Z
 ---------------------------------------------------------------------
      1          8           0        3.170435   -0.445347   -0.110985
      2          6           0        2.363287    0.443613    0.038878
      3          6           0        0.895682    0.273229   -0.030650
      4          6           0        0.148864    1.362390    0.206724
      5          6           0       -1.351447    1.454176    0.152156
      6          8           0       -1.962655    0.457410   -0.632691
      7          6           0       -2.161193   -0.795405    0.001829
      8          6           0       -0.876411   -1.445075    0.542626
      9          6           0        0.364609   -1.115620   -0.302439
     10          1           0        2.691835    1.486450    0.249939
     11          1           0        0.659437    2.295822    0.446253
     12          1           0       -1.766390    1.473884    1.176889
     13          1           0       -1.625736    2.413542   -0.304723
     14          1           0       -2.906339   -0.700707    0.808485
     15          1           0       -2.598375   -1.424177   -0.780151
     16          1           0       -0.692603   -1.128710    1.575926
     17          1           0       -1.034646   -2.529149    0.578375
     18          1           0        1.173631   -1.818984   -0.086726
     19          1           0        0.136602   -1.228320   -1.369598
 ---------------------------------------------------------------------

 SCF Done:  E(RB3LYP) =  -423.204499480     A.U. after    1 cycles

 The electronic state is 1-A.
 Alpha  occ. eigenvalues --  -19.14862 -19.13173 -10.26324 -10.24764 -10.23419
 Alpha  occ. eigenvalues --  -10.20991 -10.20048 -10.18953 -10.18814  -1.04292
 Alpha  occ. eigenvalues --   -1.03754  -0.82703  -0.78947  -0.71074  -0.68954
 Alpha  occ. eigenvalues --   -0.60831  -0.58495  -0.53914  -0.50202  -0.49347
 Alpha  occ. eigenvalues --   -0.47145  -0.45307  -0.44522  -0.42785  -0.41625
 Alpha  occ. eigenvalues --   -0.40279  -0.37534  -0.37102  -0.34977  -0.34653
 Alpha  occ. eigenvalues --   -0.31742  -0.26883  -0.26220  -0.24948
 Alpha virt. eigenvalues --   -0.05273   0.05745   0.07860   0.10681   0.11566
 Alpha virt. eigenvalues --    0.12635   0.13524   0.14480   0.14972   0.15682
 Alpha virt. eigenvalues --    0.16934   0.19139   0.19990   0.21905   0.22254

 Mulliken charges:
               1
     1  O   -0.276796
     2  C    0.095864
     3  C    0.217729
     4  C   -0.126170
     5  C   -0.144989
     6  O   -0.232865
     7  C   -0.069697
     8  C   -0.235915
     9  C   -0.296717
    10  H    0.068127
    11  H    0.098350
    12  H    0.108739
    13  H    0.126762
    14  H    0.090844
    15  H    0.113678
    16  H    0.104273
    17  H    0.106023
    18  H    0.128927
    19  H    0.123833
 Sum of Mulliken charges =   0.00000

 Dipole moment (field-independent basis, Debye):
    X=             -2.5042    Y=              1.1658    Z=              1.2818  Tot=              3.0452
 Quadrupole moment (field-independent basis, Debye-Ang):
   XX=            -64.1154   YY=            -48.3123   ZZ=            -53.6944
   XY=              4.9151   XZ=             -1.4585   YZ=              1.2474

  Exact polarizability:  98.670  -5.664  87.379  -2.714   4.660  55.570
 Approx polarizability: 141.877 -26.423 136.743  -5.680  10.144  89.613

                      1                      2                      3
                      A                      A                      A
 Frequencies --     71.4245               123.9267               206.1216
 Red. masses --      2.9428                 3.1471                 4.1759
 Frc consts  --      0.0088                 0.0285                 0.1045
 IR Inten    --      1.8292                 4.2247                 5.3371

                      4                      5                      6
                      A                      A                      A
 Frequencies --    234.3035               273.1594               321.3975
 Red. masses --      2.5156                 3.3230                 2.2446
 Frc consts  --      0.0814                 0.1461                 0.1366
 IR Inten    --      1.9427                 8.4320                 4.2031

                      7                      8                      9
                      A                      A                      A
 Frequencies --    339.8723               369.5058               485.7317
 Red. masses --      3.9714                 2.2080                 2.5041
 Frc consts  --      0.2703                 0.1776                 0.3481
 IR Inten    --      3.0727                 3.6902                 1.4025

                     10                     11                     12
                      A                      A                      A
 Frequencies --    547.8204               624.1328               720.5855
 Red. masses --      4.3110                 2.7055                 3.5142
 Frc consts  --      0.7623                 0.6209                 1.0751
 IR Inten    --      2.9016                 8.5837                 6.8915

                     13                     14                     15
                      A                      A                      A
 Frequencies --    758.1368               822.3367               870.9734
 Red. masses --      2.7745                 1.4498                 2.0028
 Frc consts  --      0.9396                 0.5776                 0.8952
 IR Inten    --      9.5888                 2.1029                13.5460

                     16                     17                     18
                      A                      A                      A
 Frequencies --    891.9049               922.9328               939.9282
 Red. masses --      2.0367                 2.9134                 1.9549
 Frc consts  --      0.9546                 1.4621                 1.0176
 IR Inten    --      3.1859                16.3110                 4.8134

                     19                     20                     21
                      A                      A                      A
 Frequencies --   1025.6987              1043.0431              1046.3680
 Red. masses --      1.7758                 2.2684                 1.9846
 Frc consts  --      1.1007                 1.4540                 1.2802
 IR Inten    --      1.4096                 2.0309                 3.2542

                     22                     23                     24
                      A                      A                      A
 Frequencies --   1063.5815              1108.1826              1140.6736
 Red. masses --      2.4718                 1.9535                 3.4008
 Frc consts  --      1.6474                 1.4135                 2.6071
 IR Inten    --     12.1788                19.7282               109.9405

                     25                     26                     27
                      A                      A                      A
 Frequencies --   1191.1915              1235.5273              1254.9352
 Red. masses --      1.8728                 1.4949                 1.3215
 Frc consts  --      1.5657                 1.3446                 1.2262
 IR Inten    --     43.3949                38.3083                11.3345

                     28                     29                     30
                      A                      A                      A
 Frequencies --   1282.0424              1326.8735              1334.2315
 Red. masses --      1.2536                 1.1752                 1.3176
 Frc consts  --      1.2140                 1.2191                 1.3820
 IR Inten    --     14.7536                 2.6181                 2.6888

                     31                     32                     33
                      A                      A                      A
 Frequencies --   1376.2582              1389.6512              1398.0911
 Red. masses --      1.3764                 1.3743                 1.6275
 Frc consts  --      1.5360                 1.5637                 1.8744
 IR Inten    --      0.9621                12.6716                 3.6910

                     34                     35                     36
                      A                      A                      A
 Frequencies --   1418.8525              1431.9192              1468.1792
 Red. masses --      1.3662                 1.2131                 1.0863
 Frc consts  --      1.6205                 1.4654                 1.3796
 IR Inten    --      3.2810                 1.7915                 5.3606

                     37                     38                     39
                      A                      A                      A
 Frequencies --   1482.7964              1488.0645              1501.5196
 Red. masses --      1.0893                 1.0801                 1.0945
 Frc consts  --      1.4111                 1.4092                 1.4539
 IR Inten    --      9.2526                 3.6248                 2.2641

                     40                     41                     42
                      A                      A                      A
 Frequencies --   1706.3484              1790.7142              2872.9561
 Red. masses --      7.0228                10.6575                 1.0829
 Frc consts  --     12.0475                20.1354                 5.2660
 IR Inten    --     34.9803               233.1167               113.1667

                     43                     44                     45
                      A                      A                      A
 Frequencies --   2938.0917              2973.7980              3032.8612
 Red. masses --      1.0711                 1.0705                 1.0645
 Frc consts  --      5.4476                 5.5776                 5.7688
 IR Inten    --     36.5501                68.0421                16.3318

                     46                     47                     48
                      A                      A                      A
 Frequencies --   3038.0883              3041.3456              3063.0161
 Red. masses --      1.0639                 1.0876                 1.0969
 Frc consts  --      5.7854                 5.9270                 6.0633
 IR Inten    --     25.9373                22.5439                 3.3435

                     49                     50                     51
                      A                      A                      A
 Frequencies --   3085.6424              3094.4009              3125.3137
 Red. masses --      1.0979                 1.0942                 1.0875
 Frc consts  --      6.1589                 6.1731                 6.2583
 IR Inten    --     54.2265                 7.2778                16.3949

 - Thermochemistry -
 -------------------
 Temperature   298.150 Kelvin.  Pressure   1.00000 Atm.
 Atom     1 has atomic number  8 and mass  15.99491

 Molecular mass:   126.06808 amu.
 Principal axes and moments of inertia in atomic units:
                           1         2         3
     Eigenvalues --   554.785181569.533481983.38723
           X            0.99976   0.02061  -0.00731
           Y           -0.02052   0.99971   0.01260
           Z            0.00757  -0.01245   0.99989
 This molecule is an asymmetric top.
 Rotational symmetry number  1.
 Warning -- assumption of classical behavior for rotation
           may cause significant error
 Rotational temperatures (Kelvin)      0.15612     0.05518     0.04367
 Rotational constants (GHZ):           3.25305     1.14986     0.90993
 Zero-point vibrational energy     420454.2 (Joules/Mol)
                                  100.49096 (Kcal/Mol)
 Warning -- explicit consideration of  10 degrees of freedom as
           vibrations may cause significant error
 Vibrational temperatures:    102.76   178.30   296.56   337.11   393.01
          (Kelvin)            462.42   489.00   531.64   698.86   788.19
                              897.99  1036.76  1090.79  1183.16  1253.13
                             1283.25  1327.89  1352.35  1475.75  1500.70
                             1505.49  1530.25  1594.43  1641.17  1713.86
                             1777.65  1805.57  1844.57  1909.07  1919.66
                             1980.13  1999.40  2011.54  2041.41  2060.21
                             2112.38  2133.41  2140.99  2160.35  2455.05
                             2576.44  4133.54  4227.25  4278.63  4363.61
                             4371.13  4375.81  4406.99  4439.55  4452.15
                             4496.62

 Zero-point correction=                           0.160143 (Hartree/Particle)
 Thermal correction to Energy=                    0.168439
 Thermal correction to Enthalpy=                  0.169383
 Thermal correction to Gibbs Free Energy=         0.126966
 Sum of electronic and zero-point Energies=           -423.044357
 Sum of electronic and thermal Energies=              -423.036061
 Sum of electronic and thermal Enthalpies=            -423.035117
 Sum of electronic and thermal Free Energies=         -423.077534

                     E (Thermal)             CV                S
                      KCal/Mol        Cal/Mol-Kelvin    Cal/Mol-Kelvin
 Total                  105.697             31.206             89.274
 Electronic               0.000              0.000              0.000
 Translational            0.889              2.981             40.409
 Rotational               0.889              2.981             28.937
 Vibrational            103.919             25.245             19.929
 Vibration     1          0.598              1.968              4.114
 Vibration     2          0.610              1.929              3.038
 Vibration     3          0.641              1.831              2.078
 Vibration     4          0.654              1.788              1.846
 Vibration     5          0.676              1.723              1.576
 Vibration     6          0.707              1.633              1.303
 Vibration     7          0.720              1.596              1.213
 Vibration     8          0.742              1.535              1.082
 Vibration     9          0.842              1.282              0.695
 Vibration    10          0.903              1.144              0.549

 Optimization completed.
    -- Stationary point found.
 Normal termination of Gaussian 09 at Mon Jan 27 13:57:33 2020.
