 Gaussian 09, Revision D.01,
 Gaussian 09:  ES64L-G09RevD.01 24-Apr-2013

 -----------------------------
 # b3lyp 6-31G(2df,p) opt Freq
 -----------------------------

 -----
 titel
 -----
 Symbolic Z-matrix:
 Charge =  0 Multiplicity = 1

 SCF Done:  E(RB3LYP) =  -423.111886830     A.U. after   13 cycles
 Optimization completed.
    -- Stationary point found.
 Normal termination of Gaussian 09 at Mon Jan 27 23:07:22 2020.

 ----------------------------------------------------------------------
 #N Geom=AllCheck Guess=TCheck SCRF=Check GenChk RB3LYP/6-31G(2df,p) Fr
 eq
 ----------------------------------------------------------------------

 Structure from the checkpoint file:  "/scratch/puck/g09_82ec7b44-9230-489e-8e36-877fafe8e6ee/Gau-56581.chk"
 -----
 titel
 -----
 Charge =  0 Multiplicity = 1

                         Standard orientation:
 ---------------------------------------------------------------------
 Center     Atomic      Atomic             Coordinates (Angstroms)
 Number     Number       Type             X           Y           Z
 ---------------------------------------------------------------------
      1          8           0       -2.292230   -1.029205   -0.215897
      2          6           0       -1.214111   -0.218195   -0.615508
      3          6           0       -0.992861    1.073008    0.310292
      4          6           0       -0.346453    0.089200    1.317837
      5          6           0        0.148269   -0.584299    0.014288
      6          6           0        1.443910   -1.411263    0.043200
      7          8           0        2.203990   -0.155801    0.007034
      8          6           0        1.039358    0.481212   -0.599170
      9          6           0        0.290857    1.783025   -0.218206
     10          1           0       -3.109536   -0.574314   -0.443400
     11          1           0       -1.215604   -0.062815   -1.703786
     12          1           0       -1.851418    1.694169    0.574436
     13          1           0        0.405021    0.485270    2.003860
     14          1           0       -1.073430   -0.532199    1.839012
     15          1           0        1.654524   -1.991281    0.945587
     16          1           0        1.640339   -2.014575   -0.852561
     17          1           0        1.140295    0.397215   -1.690958
     18          1           0        0.766818    2.373554    0.569129
     19          1           0        0.135107    2.428905   -1.086804
 ---------------------------------------------------------------------

 SCF Done:  E(RB3LYP) =  -423.111886830     A.U. after    1 cycles

 The electronic state is 1-A.
 Alpha  occ. eigenvalues --  -19.14545 -19.13195 -10.24516 -10.23214 -10.22513
 Alpha  occ. eigenvalues --  -10.19790 -10.19172 -10.18853 -10.17715  -1.03464
 Alpha  occ. eigenvalues --   -1.02688  -0.87611  -0.73001  -0.69099  -0.66451
 Alpha  occ. eigenvalues --   -0.64419  -0.56804  -0.53195  -0.50807  -0.50262
 Alpha  occ. eigenvalues --   -0.46918  -0.45088  -0.43720  -0.41675  -0.38756
 Alpha  occ. eigenvalues --   -0.37343  -0.35557  -0.34965  -0.33458  -0.31374
 Alpha  occ. eigenvalues --   -0.30474  -0.27234  -0.26262  -0.24618
 Alpha virt. eigenvalues --    0.06776   0.08418   0.10252   0.10531   0.12033
 Alpha virt. eigenvalues --    0.13397   0.14094   0.14767   0.16140   0.16609
 Alpha virt. eigenvalues --    0.17654   0.18452   0.19272   0.20709   0.22385

 Mulliken charges:
               1
     1  O   -0.446162
     2  C    0.033764
     3  C   -0.073276
     4  C   -0.247648
     5  C    0.285722
     6  C   -0.228171
     7  O   -0.315972
     8  C    0.155342
     9  C   -0.294398
    10  H    0.286109
    11  H    0.064374
    12  H    0.060926
    13  H    0.100931
    14  H    0.113438
    15  H    0.113164
    16  H    0.104038
    17  H    0.071039
    18  H    0.119822
    19  H    0.096959
 Sum of Mulliken charges =   0.00000

 Dipole moment (field-independent basis, Debye):
    X=             -2.1348    Y=              0.8998    Z=             -0.7442  Tot=              2.4333
 Quadrupole moment (field-independent basis, Debye-Ang):
   XX=            -54.6697   YY=            -52.9279   ZZ=            -51.5497
   XY=             -3.7543   XZ=              1.2147   YZ=             -0.4260

  Exact polarizability:  79.347  -4.376  76.357  -0.080  -1.699  69.388
 Approx polarizability: 114.683  -3.698 111.526   1.439  -3.144 106.023

                      1                      2                      3
                      A                      A                      A
 Frequencies --    221.6716               233.8172               275.4834
 Red. masses --      3.3681                 3.8957                 1.5877
 Frc consts  --      0.0975                 0.1255                 0.0710
 IR Inten    --      0.8511                 8.5383                32.5799

                      4                      5                      6
                      A                      A                      A
 Frequencies --    298.0860               326.1254               412.9811
 Red. masses --      1.9092                 2.1425                 3.0249
 Frc consts  --      0.1000                 0.1343                 0.3040
 IR Inten    --     70.9264                 3.4537                 2.8825

                      7                      8                      9
                      A                      A                      A
 Frequencies --    441.0969               514.3225               590.9421
 Red. masses --      2.2927                 5.2424                 3.1939
 Frc consts  --      0.2628                 0.8171                 0.6572
 IR Inten    --      5.1210                 4.2398                 3.1756

                     10                     11                     12
                      A                      A                      A
 Frequencies --    645.5294               733.8676               805.2772
 Red. masses --      3.0703                 3.3388                 2.5199
 Frc consts  --      0.7538                 1.0594                 0.9628
 IR Inten    --      1.6962                 3.6085                 3.2341

                     13                     14                     15
                      A                      A                      A
 Frequencies --    838.5396               878.2973               896.3501
 Red. masses --      2.8581                 3.2443                 2.4310
 Frc consts  --      1.1841                 1.4745                 1.1508
 IR Inten    --     15.0733                12.2871                 4.4678

                     16                     17                     18
                      A                      A                      A
 Frequencies --    903.5348               926.5477               949.5867
 Red. masses --      2.4783                 2.7005                 2.3518
 Frc consts  --      1.1920                 1.3659                 1.2494
 IR Inten    --     12.0665                26.4340                15.3672

                     19                     20                     21
                      A                      A                      A
 Frequencies --    980.1852              1021.5039              1058.3682
 Red. masses --      2.5773                 1.7143                 2.2554
 Frc consts  --      1.4589                 1.0540                 1.4885
 IR Inten    --      5.1875                 7.1684                 9.0729

                     22                     23                     24
                      A                      A                      A
 Frequencies --   1066.5177              1090.9691              1099.6035
 Red. masses --      1.6476                 1.7052                 1.7800
 Frc consts  --      1.1042                 1.1958                 1.2681
 IR Inten    --     22.8503                38.9223                14.6927

                     25                     26                     27
                      A                      A                      A
 Frequencies --   1126.8936              1140.9249              1168.5683
 Red. masses --      1.6278                 1.6072                 1.5660
 Frc consts  --      1.2179                 1.2326                 1.2599
 IR Inten    --      9.8451                38.6022                29.2346

                     28                     29                     30
                      A                      A                      A
 Frequencies --   1196.8240              1208.5293              1230.9334
 Red. masses --      1.8299                 1.9152                 1.4314
 Frc consts  --      1.5444                 1.6480                 1.2778
 IR Inten    --      2.1894                 3.4371                 6.1103

                     31                     32                     33
                      A                      A                      A
 Frequencies --   1238.6636              1263.5460              1284.8147
 Red. masses --      1.6150                 1.7262                 1.3813
 Frc consts  --      1.4599                 1.6237                 1.3435
 IR Inten    --     30.5211                 7.8516                11.9210

                     34                     35                     36
                      A                      A                      A
 Frequencies --   1296.0928              1320.8910              1332.9967
 Red. masses --      1.7344                 1.4639                 1.7931
 Frc consts  --      1.7166                 1.5049                 1.8772
 IR Inten    --      1.4809                30.0324                 2.1594

                     37                     38                     39
                      A                      A                      A
 Frequencies --   1396.0056              1430.5617              1483.6125
 Red. masses --      1.1934                 1.4320                 1.1002
 Frc consts  --      1.3703                 1.7267                 1.4268
 IR Inten    --     10.9841                 4.0975                 1.9884

                     40                     41                     42
                      A                      A                      A
 Frequencies --   1504.1535              1509.2996              2985.5916
 Red. masses --      1.1254                 1.1086                 1.0837
 Frc consts  --      1.5002                 1.4879                 5.6913
 IR Inten    --      6.2380                 0.3861                 8.9094

                     43                     44                     45
                      A                      A                      A
 Frequencies --   3000.6786              3020.1059              3059.0557
 Red. masses --      1.0848                 1.0617                 1.0595
 Frc consts  --      5.7547                 5.7058                 5.8415
 IR Inten    --     95.9345                81.2682                34.1667

                     46                     47                     48
                      A                      A                      A
 Frequencies --   3078.5159              3095.6404              3097.4586
 Red. masses --      1.0605                 1.0930                 1.0999
 Frc consts  --      5.9218                 6.1712                 6.2174
 IR Inten    --     21.0270                51.2211                30.9015

                     49                     50                     51
                      A                      A                      A
 Frequencies --   3107.6803              3153.4770              3813.2041
 Red. masses --      1.1063                 1.1068                 1.0661
 Frc consts  --      6.2948                 6.4850                 9.1335
 IR Inten    --     25.7167                12.9577                24.3850

 - Thermochemistry -
 -------------------
 Temperature   298.150 Kelvin.  Pressure   1.00000 Atm.
 Atom     1 has atomic number  8 and mass  15.99491

 Molecular mass:   126.06808 amu.
 Principal axes and moments of inertia in atomic units:
                           1         2         3
     Eigenvalues --   618.885021087.849651355.85810
           X            0.99941  -0.03419  -0.00097
           Y            0.03418   0.99936  -0.01041
           Z            0.00132   0.01037   0.99995
 This molecule is an asymmetric top.
 Rotational symmetry number  1.
 Warning -- assumption of classical behavior for rotation
           may cause significant error
 Rotational temperatures (Kelvin)      0.13995     0.07962     0.06388
 Rotational constants (GHZ):           2.91612     1.65900     1.33107
 Zero-point vibrational energy     423202.4 (Joules/Mol)
                                  101.14781 (Kcal/Mol)
 Warning -- explicit consideration of   9 degrees of freedom as
           vibrations may cause significant error
 Vibrational temperatures:    318.94   336.41   396.36   428.88   469.22
          (Kelvin)            594.19   634.64   739.99   850.23   928.77
                             1055.87  1158.61  1206.47  1263.67  1289.65
                             1299.98  1333.09  1366.24  1410.27  1469.71
                             1522.75  1534.48  1569.66  1582.08  1621.35
                             1641.53  1681.31  1721.96  1738.80  1771.04
                             1782.16  1817.96  1848.56  1864.79  1900.47
                             1917.88  2008.54  2058.26  2134.58  2164.14
                             2171.54  4295.60  4317.30  4345.25  4401.29
                             4429.29  4453.93  4456.55  4471.25  4537.14
                             5486.34

 Zero-point correction=                           0.161189 (Hartree/Particle)
 Thermal correction to Energy=                    0.168303
 Thermal correction to Enthalpy=                  0.169247
 Thermal correction to Gibbs Free Energy=         0.130154
 Sum of electronic and zero-point Energies=           -422.950698
 Sum of electronic and thermal Energies=              -422.943584
 Sum of electronic and thermal Enthalpies=            -422.942640
 Sum of electronic and thermal Free Energies=         -422.981733

                     E (Thermal)             CV                S
                      KCal/Mol        Cal/Mol-Kelvin    Cal/Mol-Kelvin
 Total                  105.612             29.661             82.278
 Electronic               0.000              0.000              0.000
 Translational            0.889              2.981             40.409
 Rotational               0.889              2.981             28.303
 Vibrational            103.834             23.700             13.566
 Vibration     1          0.648              1.808              1.945
 Vibration     2          0.654              1.789              1.849
 Vibration     3          0.677              1.719              1.562
 Vibration     4          0.691              1.677              1.428
 Vibration     5          0.710              1.623              1.279
 Vibration     6          0.777              1.442              0.916
 Vibration     7          0.801              1.381              0.823
 Vibration     8          0.869              1.218              0.623
 Vibration     9          0.948              1.051              0.465

 Optimization completed.
    -- Stationary point found.
 Normal termination of Gaussian 09 at Mon Jan 27 23:57:59 2020.
