 Gaussian 09, Revision D.01,
 Gaussian 09:  ES64L-G09RevD.01 24-Apr-2013

 -----------------------------
 # b3lyp 6-31G(2df,p) opt Freq
 -----------------------------

 -----
 titel
 -----
 Symbolic Z-matrix:
 Charge =  0 Multiplicity = 1

 SCF Done:  E(RB3LYP) =  -423.178782615     A.U. after   13 cycles
 Optimization completed.
    -- Stationary point found.
 Normal termination of Gaussian 09 at Mon Jan 27 11:25:01 2020.

 ----------------------------------------------------------------------
 #N Geom=AllCheck Guess=TCheck SCRF=Check GenChk RB3LYP/6-31G(2df,p) Fr
 eq
 ----------------------------------------------------------------------

 Structure from the checkpoint file:  "/scratch/puck/g09_47071ab6-2bcd-42f1-8516-7ee30cfea494/Gau-22643.chk"
 -----
 titel
 -----
 Charge =  0 Multiplicity = 1

                         Standard orientation:
 ---------------------------------------------------------------------
 Center     Atomic      Atomic             Coordinates (Angstroms)
 Number     Number       Type             X           Y           Z
 ---------------------------------------------------------------------
      1          6           0       -1.988384   -0.112943   -0.609219
      2          6           0       -1.344602   -0.382354    0.780724
      3          6           0       -0.657724    0.964269    1.058763
      4          6           0        0.083874    1.147968   -0.308632
      5          8           0        1.501673    1.027984   -0.160147
      6          6           0        1.938076   -0.311171   -0.156201
      7          8           0        1.066891   -1.171404    0.540568
      8          6           0       -0.235753   -1.142229   -0.012408
      9          6           0       -0.515935   -0.046123   -1.082936
     10          1           0       -2.514191   -0.977443   -1.021798
     11          1           0       -2.603435    0.784311   -0.715816
     12          1           0       -1.895290   -0.856670    1.592033
     13          1           0       -1.380688    1.760333    1.258464
     14          1           0        0.065009    0.927911    1.874756
     15          1           0       -0.090266    2.120655   -0.772786
     16          1           0        2.062127   -0.671393   -1.191585
     17          1           0        2.901297   -0.337320    0.358496
     18          1           0       -0.536147   -2.149583   -0.316288
     19          1           0       -0.234229   -0.157938   -2.129393
 ---------------------------------------------------------------------

 SCF Done:  E(RB3LYP) =  -423.178782615     A.U. after    1 cycles

 The electronic state is 1-A.
 Alpha  occ. eigenvalues --  -19.14374 -19.13665 -10.27003 -10.23645 -10.23429
 Alpha  occ. eigenvalues --  -10.19511 -10.19160 -10.19137 -10.17630  -1.07111
 Alpha  occ. eigenvalues --   -0.99901  -0.88880  -0.72660  -0.70270  -0.68234
 Alpha  occ. eigenvalues --   -0.63233  -0.55864  -0.53919  -0.51872  -0.51001
 Alpha  occ. eigenvalues --   -0.49282  -0.44952  -0.43588  -0.41397  -0.38610
 Alpha  occ. eigenvalues --   -0.37545  -0.37037  -0.34945  -0.34640  -0.32274
 Alpha  occ. eigenvalues --   -0.31888  -0.29036  -0.25875  -0.24632
 Alpha virt. eigenvalues --    0.09198   0.10333   0.11946   0.12186   0.13230
 Alpha virt. eigenvalues --    0.14508   0.14884   0.15978   0.16725   0.17129
 Alpha virt. eigenvalues --    0.18177   0.18969   0.19586   0.20598   0.21754

 Mulliken charges:
               1
     1  C   -0.255174
     2  C   -0.062760
     3  C   -0.231984
     4  C    0.133498
     5  O   -0.277084
     6  C    0.018916
     7  O   -0.271483
     8  C    0.142008
     9  C   -0.105177
    10  H    0.103749
    11  H    0.099482
    12  H    0.066338
    13  H    0.093339
    14  H    0.115095
    15  H    0.081085
    16  H    0.082859
    17  H    0.117089
    18  H    0.077582
    19  H    0.072618
 Sum of Mulliken charges =   0.00000

 Dipole moment (field-independent basis, Debye):
    X=             -1.4194    Y=             -0.2437    Z=             -0.9604  Tot=              1.7310
 Quadrupole moment (field-independent basis, Debye-Ang):
   XX=            -52.2282   YY=            -54.3445   ZZ=            -52.8560
   XY=             -1.2392   XZ=             -0.6752   YZ=              1.3695

  Exact polarizability:  82.111  -0.932  69.587  -0.280   1.927  67.361
 Approx polarizability: 113.394  -0.695 105.787   0.692   0.068 102.440

                      1                      2                      3
                      A                      A                      A
 Frequencies --    216.7259               283.5321               361.9521
 Red. masses --      4.0433                 2.3752                 2.6433
 Frc consts  --      0.1119                 0.1125                 0.2040
 IR Inten    --      3.5032                 3.8488                 0.3061

                      4                      5                      6
                      A                      A                      A
 Frequencies --    422.5382               445.8657               489.9844
 Red. masses --      3.8009                 1.9194                 5.3865
 Frc consts  --      0.3998                 0.2248                 0.7619
 IR Inten    --      5.1033                 0.1915                 1.6441

                      7                      8                      9
                      A                      A                      A
 Frequencies --    574.7383               655.7186               754.2935
 Red. masses --      4.5076                 6.0977                 3.3105
 Frc consts  --      0.8773                 1.5447                 1.1097
 IR Inten    --      3.7954                 6.5896                 0.9987

                     10                     11                     12
                      A                      A                      A
 Frequencies --    803.2662               833.6648               848.9515
 Red. masses --      2.5403                 2.8782                 2.7632
 Frc consts  --      0.9657                 1.1786                 1.1734
 IR Inten    --      3.9929                 0.3748                 2.5431

                     13                     14                     15
                      A                      A                      A
 Frequencies --    875.7533               904.4833               946.3271
 Red. masses --      2.4673                 2.5159                 2.7781
 Frc consts  --      1.1149                 1.2127                 1.4658
 IR Inten    --      3.0059                 8.2423                13.3948

                     16                     17                     18
                      A                      A                      A
 Frequencies --    957.0335               958.9187               990.4500
 Red. masses --      1.5223                 1.8857                 2.0903
 Frc consts  --      0.8215                 1.0216                 1.2081
 IR Inten    --      1.5620                 2.6037                 7.1645

                     19                     20                     21
                      A                      A                      A
 Frequencies --   1009.8021              1029.3991              1044.4399
 Red. masses --      2.6145                 3.6326                 2.7415
 Frc consts  --      1.5708                 2.2680                 1.7620
 IR Inten    --     56.2723                26.1052                17.5468

                     22                     23                     24
                      A                      A                      A
 Frequencies --   1073.2292              1097.0189              1115.3251
 Red. masses --      1.6570                 1.2184                 1.8974
 Frc consts  --      1.1245                 0.8639                 1.3907
 IR Inten    --     10.8680                 2.3159                28.6090

                     25                     26                     27
                      A                      A                      A
 Frequencies --   1151.9034              1190.2413              1196.3590
 Red. masses --      1.9961                 2.2331                 1.5810
 Frc consts  --      1.5605                 1.8639                 1.3332
 IR Inten    --     47.4194               145.7075                24.6630

                     28                     29                     30
                      A                      A                      A
 Frequencies --   1205.9727              1216.1716              1236.6115
 Red. masses --      1.8803                 1.9596                 1.4711
 Frc consts  --      1.6112                 1.7077                 1.3254
 IR Inten    --     17.1344                15.4880                 0.7113

                     31                     32                     33
                      A                      A                      A
 Frequencies --   1269.6206              1283.2821              1290.1967
 Red. masses --      1.6030                 1.4130                 1.1269
 Frc consts  --      1.5224                 1.3710                 1.1052
 IR Inten    --      9.7173                 0.8603                 1.9862

                     34                     35                     36
                      A                      A                      A
 Frequencies --   1325.6131              1333.3914              1363.6800
 Red. masses --      1.5449                 1.6292                 1.2498
 Frc consts  --      1.5995                 1.7066                 1.3694
 IR Inten    --      2.6624                 1.4069                 8.5503

                     37                     38                     39
                      A                      A                      A
 Frequencies --   1381.8255              1443.9889              1486.7879
 Red. masses --      1.3017                 1.2199                 1.0934
 Frc consts  --      1.4645                 1.4987                 1.4240
 IR Inten    --     25.3094                 7.3347                 2.8303

                     40                     41                     42
                      A                      A                      A
 Frequencies --   1507.4766              1530.4418              2952.3246
 Red. masses --      1.1154                 1.0944                 1.0709
 Frc consts  --      1.4934                 1.5103                 5.4993
 IR Inten    --      4.6130                 0.8722                91.7755

                     43                     44                     45
                      A                      A                      A
 Frequencies --   3058.0631              3062.7658              3065.2030
 Red. masses --      1.0647                 1.0681                 1.0754
 Frc consts  --      5.8666                 5.9033                 5.9533
 IR Inten    --     23.1305                39.2377                39.1686

                     46                     47                     48
                      A                      A                      A
 Frequencies --   3088.5638              3101.7590              3116.7549
 Red. masses --      1.0866                 1.0941                 1.1087
 Frc consts  --      6.1073                 6.2021                 6.3455
 IR Inten    --     40.2579                38.8708                24.6366

                     49                     50                     51
                      A                      A                      A
 Frequencies --   3120.7527              3125.3917              3131.3619
 Red. masses --      1.0888                 1.0933                 1.1009
 Frc consts  --      6.2477                 6.2923                 6.3601
 IR Inten    --     68.4189                16.0079                16.1467

 - Thermochemistry -
 -------------------
 Temperature   298.150 Kelvin.  Pressure   1.00000 Atm.
 Atom     1 has atomic number  6 and mass  12.00000

 Molecular mass:   126.06808 amu.
 Principal axes and moments of inertia in atomic units:
                           1         2         3
     Eigenvalues --   580.43431 967.907781107.99391
           X            0.99987  -0.01498  -0.00654
           Y            0.01545   0.99681   0.07830
           Z            0.00535  -0.07839   0.99691
 This molecule is an asymmetric top.
 Rotational symmetry number  1.
 Warning -- assumption of classical behavior for rotation
           may cause significant error
 Rotational temperatures (Kelvin)      0.14922     0.08949     0.07817
 Rotational constants (GHZ):           3.10929     1.86458     1.62884
 Zero-point vibrational energy     430236.4 (Joules/Mol)
                                  102.82898 (Kcal/Mol)
 Warning -- explicit consideration of   7 degrees of freedom as
           vibrations may cause significant error
 Vibrational temperatures:    311.82   407.94   520.77   607.94   641.50
          (Kelvin)            704.98   826.92   943.43  1085.26  1155.72
                             1199.46  1221.45  1260.01  1301.35  1361.55
                             1376.96  1379.67  1425.03  1452.88  1481.07
                             1502.71  1544.14  1578.36  1604.70  1657.33
                             1712.49  1721.29  1735.12  1749.80  1779.21
                             1826.70  1846.35  1856.30  1907.26  1918.45
                             1962.03  1988.14  2077.58  2139.15  2168.92
                             2201.96  4247.73  4399.87  4406.63  4410.14
                             4443.75  4462.73  4484.31  4490.06  4496.74
                             4505.33

 Zero-point correction=                           0.163868 (Hartree/Particle)
 Thermal correction to Energy=                    0.170076
 Thermal correction to Enthalpy=                  0.171020
 Thermal correction to Gibbs Free Energy=         0.133662
 Sum of electronic and zero-point Energies=           -423.014914
 Sum of electronic and thermal Energies=              -423.008707
 Sum of electronic and thermal Enthalpies=            -423.007762
 Sum of electronic and thermal Free Energies=         -423.045121

                     E (Thermal)             CV                S
                      KCal/Mol        Cal/Mol-Kelvin    Cal/Mol-Kelvin
 Total                  106.724             26.766             78.627
 Electronic               0.000              0.000              0.000
 Translational            0.889              2.981             40.409
 Rotational               0.889              2.981             27.923
 Vibrational            104.947             20.804             10.296
 Vibration     1          0.646              1.816              1.986
 Vibration     2          0.682              1.704              1.512
 Vibration     3          0.736              1.551              1.114
 Vibration     4          0.785              1.421              0.883
 Vibration     5          0.805              1.370              0.808
 Vibration     6          0.846              1.272              0.684
 Vibration     7          0.931              1.086              0.495

 Optimization completed.
    -- Stationary point found.
 Normal termination of Gaussian 09 at Mon Jan 27 13:02:58 2020.
