 Gaussian 09, Revision D.01,
 Gaussian 09:  ES64L-G09RevD.01 24-Apr-2013

 -----------------------------
 # b3lyp 6-31G(2df,p) opt Freq
 -----------------------------

 -----
 titel
 -----
 Symbolic Z-matrix:
 Charge =  0 Multiplicity = 1

 SCF Done:  E(RB3LYP) =  -423.102791953     A.U. after   13 cycles
 Optimization completed.
    -- Stationary point found.
 Normal termination of Gaussian 09 at Mon Jan 27 17:26:56 2020.

 ----------------------------------------------------------------------
 #N Geom=AllCheck Guess=TCheck SCRF=Check GenChk RB3LYP/6-31G(2df,p) Fr
 eq
 ----------------------------------------------------------------------

 Structure from the checkpoint file:  "/scratch/puck/g09_f168e0d6-67f5-47de-905a-37683e94abe9/Gau-79029.chk"
 -----
 titel
 -----
 Charge =  0 Multiplicity = 1

                         Standard orientation:
 ---------------------------------------------------------------------
 Center     Atomic      Atomic             Coordinates (Angstroms)
 Number     Number       Type             X           Y           Z
 ---------------------------------------------------------------------
      1          6           0        2.285931    0.563009   -0.600305
      2          6           0        1.097872   -0.096817    0.038321
      3          6           0        1.147962   -1.434412    0.732186
      4          6           0        0.246937   -1.250723   -0.466795
      5          6           0       -1.050806   -0.431051   -0.186246
      6          8           0       -2.098255   -0.404471   -1.086550
      7          6           0       -1.182540    0.016304    1.255512
      8          6           0       -0.212052    0.715404    0.340377
      9          8           0       -0.289463    2.086328    0.189219
     10          1           0        2.824780    1.197821    0.112711
     11          1           0        2.988104   -0.186326   -0.979185
     12          1           0        1.994693    1.196961   -1.446842
     13          1           0        2.050608   -2.006829    0.530716
     14          1           0        0.759419   -1.597349    1.731075
     15          1           0        0.371765   -1.807457   -1.388037
     16          1           0       -2.734616   -1.083911   -0.835435
     17          1           0       -2.072534    0.623209    1.399938
     18          1           0       -0.902372   -0.577014    2.120165
     19          1           0       -0.177938    2.295757   -0.744753
 ---------------------------------------------------------------------

 SCF Done:  E(RB3LYP) =  -423.102791953     A.U. after    1 cycles

 The electronic state is 1-A.
 Alpha  occ. eigenvalues --  -19.14898 -19.14837 -10.23534 -10.23475 -10.19424
 Alpha  occ. eigenvalues --  -10.18664 -10.18517 -10.18046 -10.18033  -1.04047
 Alpha  occ. eigenvalues --   -1.02620  -0.90447  -0.79909  -0.71545  -0.64470
 Alpha  occ. eigenvalues --   -0.60753  -0.56512  -0.55096  -0.51800  -0.49739
 Alpha  occ. eigenvalues --   -0.46082  -0.44031  -0.41845  -0.40839  -0.39627
 Alpha  occ. eigenvalues --   -0.38643  -0.38066  -0.35952  -0.34365  -0.32541
 Alpha  occ. eigenvalues --   -0.28863  -0.27104  -0.25128  -0.20192
 Alpha virt. eigenvalues --    0.06112   0.08476   0.09471   0.10810   0.11434
 Alpha virt. eigenvalues --    0.13064   0.14391   0.16142   0.16334   0.17207
 Alpha virt. eigenvalues --    0.19046   0.20164   0.21210   0.22147   0.23573

 Mulliken charges:
               1
     1  C   -0.490246
     2  C    0.284764
     3  C   -0.358293
     4  C   -0.174086
     5  C    0.299313
     6  O   -0.456429
     7  C   -0.413677
     8  C    0.287227
     9  O   -0.443740
    10  H    0.127929
    11  H    0.118907
    12  H    0.104453
    13  H    0.107889
    14  H    0.111825
    15  H    0.088928
    16  H    0.286389
    17  H    0.120892
    18  H    0.107050
    19  H    0.290904
 Sum of Mulliken charges =   0.00000

 Dipole moment (field-independent basis, Debye):
    X=              0.1818    Y=             -1.3428    Z=             -0.5001  Tot=              1.4444
 Quadrupole moment (field-independent basis, Debye-Ang):
   XX=            -49.4767   YY=            -53.1407   ZZ=            -53.2953
   XY=              2.6341   XZ=             -2.0094   YZ=             -2.9126

  Exact polarizability:  82.607   0.514  74.117  -2.126  -1.975  69.181
 Approx polarizability: 111.485   3.205 112.390   1.230  -1.077 107.825

                      1                      2                      3
                      A                      A                      A
 Frequencies --    132.1134               153.6452               189.5347
 Red. masses --      2.9757                 3.1618                 1.2156
 Frc consts  --      0.0306                 0.0440                 0.0257
 IR Inten    --      1.3544                16.2356                 0.2857

                      4                      5                      6
                      A                      A                      A
 Frequencies --    241.2463               266.6904               308.6548
 Red. masses --      2.6501                 1.0826                 1.3534
 Frc consts  --      0.0909                 0.0454                 0.0760
 IR Inten    --      1.4721               101.0531                77.4526

                      7                      8                      9
                      A                      A                      A
 Frequencies --    321.4233               363.2152               414.8106
 Red. masses --      2.4744                 3.7658                 3.2135
 Frc consts  --      0.1506                 0.2927                 0.3258
 IR Inten    --      3.5712                 7.9164                 2.3157

                     10                     11                     12
                      A                      A                      A
 Frequencies --    466.4185               470.2736               525.5405
 Red. masses --      2.1991                 2.8596                 3.2260
 Frc consts  --      0.2819                 0.3726                 0.5250
 IR Inten    --      2.7146                 0.8991                 8.3106

                     13                     14                     15
                      A                      A                      A
 Frequencies --    571.6960               668.5132               719.6728
 Red. masses --      3.3020                 3.4836                 3.9838
 Frc consts  --      0.6359                 0.9173                 1.2157
 IR Inten    --      8.2388                14.5852                 5.0428

                     16                     17                     18
                      A                      A                      A
 Frequencies --    799.4189               822.4133               852.0648
 Red. masses --      3.1587                 3.2539                 1.8120
 Frc consts  --      1.1894                 1.2967                 0.7751
 IR Inten    --      8.7808                16.0806                 7.2494

                     19                     20                     21
                      A                      A                      A
 Frequencies --    884.2422               913.4939               962.2650
 Red. masses --      2.5893                 1.4636                 1.4013
 Frc consts  --      1.1928                 0.7196                 0.7645
 IR Inten    --      1.0498                 7.2172                 4.4803

                     22                     23                     24
                      A                      A                      A
 Frequencies --    982.6677              1006.7247              1044.9292
 Red. masses --      1.5033                 1.5052                 1.9324
 Frc consts  --      0.8553                 0.8988                 1.2432
 IR Inten    --      4.8470                 1.9938                 0.8725

                     25                     26                     27
                      A                      A                      A
 Frequencies --   1052.5245              1091.6654              1104.6552
 Red. masses --      1.3818                 1.4803                 1.8013
 Frc consts  --      0.9019                 1.0394                 1.2950
 IR Inten    --      3.3522                 8.4392                13.3762

                     28                     29                     30
                      A                      A                      A
 Frequencies --   1118.8644              1156.4461              1215.1316
 Red. masses --      1.9279                 2.1750                 2.3767
 Frc consts  --      1.4219                 1.7138                 2.0676
 IR Inten    --     19.6935                45.3875                24.2637

                     31                     32                     33
                      A                      A                      A
 Frequencies --   1258.4271              1276.6232              1293.0973
 Red. masses --      2.0791                 1.4966                 3.3223
 Frc consts  --      1.9399                 1.4371                 3.2731
 IR Inten    --     52.5688               107.9897               111.5345

                     34                     35                     36
                      A                      A                      A
 Frequencies --   1356.3046              1374.2123              1413.0585
 Red. masses --      2.1191                 2.3478                 1.4979
 Frc consts  --      2.2968                 2.6123                 1.7622
 IR Inten    --     29.9046                 9.0885                 5.8573

                     37                     38                     39
                      A                      A                      A
 Frequencies --   1422.6549              1485.1325              1493.6253
 Red. masses --      1.3253                 1.0477                 1.1628
 Frc consts  --      1.5804                 1.3615                 1.5284
 IR Inten    --      3.2531                 4.5542                 4.7276

                     40                     41                     42
                      A                      A                      A
 Frequencies --   1501.9048              1525.6315              3018.7479
 Red. masses --      1.4293                 1.6878                 1.0364
 Frc consts  --      1.8996                 2.3146                 5.5644
 IR Inten    --      1.4784                17.5705                40.8725

                     43                     44                     45
                      A                      A                      A
 Frequencies --   3073.4728              3097.0811              3110.9206
 Red. masses --      1.0996                 1.0998                 1.0546
 Frc consts  --      6.1200                 6.2153                 6.0133
 IR Inten    --     27.3616                17.3081                12.9564

                     46                     47                     48
                      A                      A                      A
 Frequencies --   3124.1916              3181.9146              3195.6794
 Red. masses --      1.0560                 1.0942                 1.1127
 Frc consts  --      6.0725                 6.5273                 6.6948
 IR Inten    --     23.6796                 8.8067                 8.8785

                     49                     50                     51
                      A                      A                      A
 Frequencies --   3203.8236              3777.5946              3795.9861
 Red. masses --      1.1123                 1.0663                 1.0660
 Frc consts  --      6.7265                 8.9653                 9.0503
 IR Inten    --     20.1603                17.3363                21.7853

 - Thermochemistry -
 -------------------
 Temperature   298.150 Kelvin.  Pressure   1.00000 Atm.
 Atom     1 has atomic number  6 and mass  12.00000

 Molecular mass:   126.06808 amu.
 Principal axes and moments of inertia in atomic units:
                           1         2         3
     Eigenvalues --   776.642301085.797961367.75114
           X            0.99932   0.00718  -0.03606
           Y           -0.00895   0.99874  -0.04938
           Z            0.03566   0.04967   0.99813
 This molecule is an asymmetric top.
 Rotational symmetry number  1.
 Warning -- assumption of classical behavior for rotation
           may cause significant error
 Rotational temperatures (Kelvin)      0.11152     0.07977     0.06333
 Rotational constants (GHZ):           2.32377     1.66213     1.31950
 Zero-point vibrational energy     411521.6 (Joules/Mol)
                                   98.35602 (Kcal/Mol)
 Warning -- explicit consideration of  13 degrees of freedom as
           vibrations may cause significant error
 Vibrational temperatures:    190.08   221.06   272.70   347.10   383.71
          (Kelvin)            444.08   462.46   522.58   596.82   671.07
                              676.62   756.13   822.54   961.84  1035.45
                             1150.18  1183.27  1225.93  1272.23  1314.31
                             1384.48  1413.84  1448.45  1503.42  1514.35
                             1570.66  1589.35  1609.79  1663.87  1748.30
                             1810.59  1836.77  1860.48  1951.42  1977.18
                             2033.07  2046.88  2136.77  2148.99  2160.90
                             2195.04  4343.30  4422.04  4456.00  4475.92
                             4495.01  4578.06  4597.86  4609.58  5435.11
                             5461.57

 Zero-point correction=                           0.156740 (Hartree/Particle)
 Thermal correction to Energy=                    0.165680
 Thermal correction to Enthalpy=                  0.166624
 Thermal correction to Gibbs Free Energy=         0.123949
 Sum of electronic and zero-point Energies=           -422.946052
 Sum of electronic and thermal Energies=              -422.937112
 Sum of electronic and thermal Enthalpies=            -422.936168
 Sum of electronic and thermal Free Energies=         -422.978843

                     E (Thermal)             CV                S
                      KCal/Mol        Cal/Mol-Kelvin    Cal/Mol-Kelvin
 Total                  103.966             35.187             89.817
 Electronic               0.000              0.000              0.000
 Translational            0.889              2.981             40.409
 Rotational               0.889              2.981             28.535
 Vibrational            102.188             29.225             20.873
 Vibration     1          0.612              1.921              2.915
 Vibration     2          0.619              1.899              2.627
 Vibration     3          0.633              1.854              2.232
 Vibration     4          0.658              1.777              1.794
 Vibration     5          0.672              1.734              1.618
 Vibration     6          0.698              1.657              1.370
 Vibration     7          0.707              1.633              1.303
 Vibration     8          0.737              1.548              1.108
 Vibration     9          0.778              1.438              0.910
 Vibration    10          0.824              1.325              0.748
 Vibration    11          0.827              1.316              0.737
 Vibration    12          0.880              1.193              0.597
 Vibration    13          0.928              1.092              0.501

 Normal termination of Gaussian 09 at Mon Jan 27 18:19:22 2020.
