 Gaussian 09, Revision D.01,
 Gaussian 09:  ES64L-G09RevD.01 24-Apr-2013

 -----------------------------
 # b3lyp 6-31G(2df,p) opt Freq
 -----------------------------

 -----
 titel
 -----
 Symbolic Z-matrix:
 Charge =  0 Multiplicity = 1

 SCF Done:  E(RB3LYP) =  -423.198608018     A.U. after   14 cycles
 Optimization completed.
    -- Stationary point found.
 Normal termination of Gaussian 09 at Mon Jan 27 15:44:45 2020.

 ----------------------------------------------------------------------
 #N Geom=AllCheck Guess=TCheck SCRF=Check GenChk RB3LYP/6-31G(2df,p) Fr
 eq
 ----------------------------------------------------------------------

 Structure from the checkpoint file:  "/scratch/puck/g09_f25da8ea-13a2-47c9-8d5e-47d8b22b7a7b/Gau-55579.chk"
 -----
 titel
 -----
 Charge =  0 Multiplicity = 1

                         Standard orientation:
 ---------------------------------------------------------------------
 Center     Atomic      Atomic             Coordinates (Angstroms)
 Number     Number       Type             X           Y           Z
 ---------------------------------------------------------------------
      1          8           0       -1.230671    1.858525   -0.148986
      2          6           0       -0.904785    0.479825   -0.273196
      3          6           0       -2.111300   -0.352317    0.140731
      4          8           0       -2.407436   -1.425511   -0.318486
      5          6           0        0.288719    0.186063    0.659694
      6          6           0        1.499795    1.097112    0.302228
      7          6           0        2.416447    0.177746   -0.466816
      8          6           0        2.043615   -1.096861   -0.375739
      9          6           0        0.802735   -1.270884    0.466795
     10          1           0       -1.844244    2.092238   -0.852541
     11          1           0       -0.627075    0.213792   -1.303155
     12          1           0       -2.718076    0.139120    0.936763
     13          1           0       -0.045493    0.366486    1.685921
     14          1           0        1.185760    1.980223   -0.261593
     15          1           0        1.991985    1.473586    1.209239
     16          1           0        3.288752    0.539596   -1.000066
     17          1           0        2.562934   -1.937737   -0.821849
     18          1           0        0.054522   -1.916435   -0.005628
     19          1           0        1.044433   -1.739079    1.430504
 ---------------------------------------------------------------------

 SCF Done:  E(RB3LYP) =  -423.198608018     A.U. after    1 cycles

 The electronic state is 1-A.
 Alpha  occ. eigenvalues --  -19.15508 -19.14678 -10.27103 -10.24323 -10.19802
 Alpha  occ. eigenvalues --  -10.18363 -10.18203 -10.17856 -10.17764  -1.05481
 Alpha  occ. eigenvalues --   -1.03429  -0.84625  -0.75444  -0.70627  -0.67803
 Alpha  occ. eigenvalues --   -0.59329  -0.56370  -0.54192  -0.52173  -0.49633
 Alpha  occ. eigenvalues --   -0.47291  -0.44890  -0.44533  -0.39892  -0.39187
 Alpha  occ. eigenvalues --   -0.37671  -0.37474  -0.34799  -0.34567  -0.34129
 Alpha  occ. eigenvalues --   -0.33495  -0.30487  -0.24873  -0.23957
 Alpha virt. eigenvalues --   -0.03218   0.02654   0.07164   0.10219   0.12499
 Alpha virt. eigenvalues --    0.13186   0.14364   0.15249   0.16609   0.16958
 Alpha virt. eigenvalues --    0.18117   0.19064   0.20003   0.20359   0.21709

 Mulliken charges:
               1
     1  O   -0.426942
     2  C    0.016044
     3  C    0.126863
     4  O   -0.242792
     5  C   -0.001422
     6  C   -0.271130
     7  C   -0.059500
     8  C   -0.057568
     9  C   -0.284113
    10  H    0.292004
    11  H    0.096822
    12  H    0.087271
    13  H    0.080351
    14  H    0.120255
    15  H    0.104615
    16  H    0.090775
    17  H    0.092642
    18  H    0.129220
    19  H    0.106605
 Sum of Mulliken charges =   0.00000

 Dipole moment (field-independent basis, Debye):
    X=              0.5737    Y=              1.4510    Z=             -0.2511  Tot=              1.5804
 Quadrupole moment (field-independent basis, Debye-Ang):
   XX=            -53.7202   YY=            -56.1741   ZZ=            -51.2679
   XY=             -6.0930   XZ=              0.3328   YZ=             -3.4228

  Exact polarizability:  84.158   3.032  84.346  -5.018   1.752  61.808
 Approx polarizability: 108.418  10.872 139.151  -4.442   5.543  96.912

                      1                      2                      3
                      A                      A                      A
 Frequencies --     69.3264                75.0897                92.6154
 Red. masses --      3.5110                 3.8600                 3.8781
 Frc consts  --      0.0099                 0.0128                 0.0196
 IR Inten    --      2.6352                 0.2754                 7.5110

                      4                      5                      6
                      A                      A                      A
 Frequencies --    214.1584               284.2269               298.8266
 Red. masses --      2.9525                 1.8729                 1.8151
 Frc consts  --      0.0798                 0.0891                 0.0955
 IR Inten    --      3.3527                57.0504                 6.2347

                      7                      8                      9
                      A                      A                      A
 Frequencies --    332.3366               374.0099               401.9450
 Red. masses --      1.8814                 3.1332                 2.6717
 Frc consts  --      0.1224                 0.2582                 0.2543
 IR Inten    --     35.3103                 5.5206                 9.5349

                     10                     11                     12
                      A                      A                      A
 Frequencies --    426.1456               567.3972               692.7755
 Red. masses --      3.0242                 4.6186                 1.3186
 Frc consts  --      0.3236                 0.8761                 0.3729
 IR Inten    --      7.8705                 6.0475                28.5202

                     13                     14                     15
                      A                      A                      A
 Frequencies --    740.4554               790.7141               837.3564
 Red. masses --      3.3358                 5.4613                 2.4313
 Frc consts  --      1.0776                 2.0118                 1.0044
 IR Inten    --      6.7382                 0.8904                 8.2385

                     16                     17                     18
                      A                      A                      A
 Frequencies --    903.6923               930.4401               952.8368
 Red. masses --      1.7832                 2.5202                 1.6696
 Frc consts  --      0.8580                 1.2855                 0.8931
 IR Inten    --      5.1162                 4.3740                 7.2554

                     19                     20                     21
                      A                      A                      A
 Frequencies --    977.8111               979.0546               997.4431
 Red. masses --      2.3428                 1.3852                 1.8466
 Frc consts  --      1.3198                 0.7823                 1.0824
 IR Inten    --      2.5674                 0.4644                 2.1332

                     22                     23                     24
                      A                      A                      A
 Frequencies --   1050.9710              1062.9521              1078.5275
 Red. masses --      2.7017                 2.1746                 3.4468
 Frc consts  --      1.7582                 1.4477                 2.3622
 IR Inten    --     13.0747                30.1337                18.7342

                     25                     26                     27
                      A                      A                      A
 Frequencies --   1105.5743              1132.0209              1175.5797
 Red. masses --      2.6181                 1.0893                 1.1446
 Frc consts  --      1.8854                 0.8225                 0.9320
 IR Inten    --     39.9776                 0.2994                15.4026

                     28                     29                     30
                      A                      A                      A
 Frequencies --   1186.6423              1239.8500              1270.1055
 Red. masses --      1.1564                 1.4852                 1.2997
 Frc consts  --      0.9594                 1.3452                 1.2353
 IR Inten    --      0.1898                 0.3155                10.3498

                     31                     32                     33
                      A                      A                      A
 Frequencies --   1288.4649              1310.9145              1335.6547
 Red. masses --      1.3655                 1.3457                 1.4857
 Frc consts  --      1.3357                 1.3625                 1.5616
 IR Inten    --     31.8357                 2.6677                 1.6186

                     34                     35                     36
                      A                      A                      A
 Frequencies --   1355.6091              1374.1584              1388.4810
 Red. masses --      1.3613                 1.6342                 1.3590
 Frc consts  --      1.4739                 1.8181                 1.5437
 IR Inten    --      5.9608                 3.1291                14.1792

                     37                     38                     39
                      A                      A                      A
 Frequencies --   1410.5652              1490.7833              1497.6264
 Red. masses --      1.2683                 1.0799                 1.0971
 Frc consts  --      1.4868                 1.4140                 1.4498
 IR Inten    --      0.9749                 3.7671                 0.4113

                     40                     41                     42
                      A                      A                      A
 Frequencies --   1690.6048              1827.2379              2869.6817
 Red. masses --      5.9997                10.6505                 1.0831
 Frc consts  --     10.1033                20.9513                 5.2551
 IR Inten    --      1.9203               131.3075                97.9334

                     43                     44                     45
                      A                      A                      A
 Frequencies --   3010.9791              3015.4399              3016.9233
 Red. masses --      1.0800                 1.0751                 1.0698
 Frc consts  --      5.7688                 5.7595                 5.7372
 IR Inten    --     27.8293                13.8270                35.5556

                     46                     47                     48
                      A                      A                      A
 Frequencies --   3062.7461              3070.6874              3083.5912
 Red. masses --      1.0839                 1.0930                 1.0901
 Frc consts  --      5.9905                 6.0719                 6.1071
 IR Inten    --     31.6400                13.7211                12.2836

                     49                     50                     51
                      A                      A                      A
 Frequencies --   3182.3256              3207.9650              3823.0579
 Red. masses --      1.0842                 1.1042                 1.0667
 Frc consts  --      6.4692                 6.6953                 9.1855
 IR Inten    --      5.9358                25.3636                31.1861

 - Thermochemistry -
 -------------------
 Temperature   298.150 Kelvin.  Pressure   1.00000 Atm.
 Atom     1 has atomic number  8 and mass  15.99491

 Molecular mass:   126.06808 amu.
 Principal axes and moments of inertia in atomic units:
                           1         2         3
     Eigenvalues --   679.816521425.493831906.72141
           X            0.99979  -0.01989  -0.00563
           Y            0.01983   0.99975  -0.01060
           Z            0.00584   0.01048   0.99993
 This molecule is an asymmetric top.
 Rotational symmetry number  1.
 Warning -- assumption of classical behavior for rotation
           may cause significant error
 Rotational temperatures (Kelvin)      0.12741     0.06076     0.04543
 Rotational constants (GHZ):           2.65475     1.26605     0.94652
 Zero-point vibrational energy     416027.6 (Joules/Mol)
                                   99.43297 (Kcal/Mol)
 Warning -- explicit consideration of  11 degrees of freedom as
           vibrations may cause significant error
 Vibrational temperatures:     99.75   108.04   133.25   308.13   408.94
          (Kelvin)            429.94   478.16   538.12   578.31   613.13
                              816.36   996.75  1065.35  1137.66  1204.77
                             1300.21  1338.69  1370.92  1406.85  1408.64
                             1435.10  1512.11  1529.35  1551.76  1590.67
                             1628.72  1691.39  1707.31  1783.87  1827.40
                             1853.81  1886.11  1921.71  1950.42  1977.10
                             1997.71  2029.49  2144.90  2154.75  2432.40
                             2628.98  4128.83  4332.12  4338.54  4340.67
                             4406.60  4418.03  4436.59  4578.65  4615.54
                             5500.52

 Zero-point correction=                           0.158457 (Hartree/Particle)
 Thermal correction to Energy=                    0.167404
 Thermal correction to Enthalpy=                  0.168348
 Thermal correction to Gibbs Free Energy=         0.124108
 Sum of electronic and zero-point Energies=           -423.040151
 Sum of electronic and thermal Energies=              -423.031204
 Sum of electronic and thermal Enthalpies=            -423.030260
 Sum of electronic and thermal Free Energies=         -423.074500

                     E (Thermal)             CV                S
                      KCal/Mol        Cal/Mol-Kelvin    Cal/Mol-Kelvin
 Total                  105.047             32.928             93.111
 Electronic               0.000              0.000              0.000
 Translational            0.889              2.981             40.409
 Rotational               0.889              2.981             29.004
 Vibrational            103.270             26.967             23.699
 Vibration     1          0.598              1.969              4.172
 Vibration     2          0.599              1.966              4.015
 Vibration     3          0.602              1.954              3.604
 Vibration     4          0.644              1.819              2.008
 Vibration     5          0.683              1.703              1.508
 Vibration     6          0.692              1.676              1.423
 Vibration     7          0.714              1.611              1.249
 Vibration     8          0.745              1.525              1.063
 Vibration     9          0.768              1.466              0.956
 Vibration    10          0.788              1.413              0.871
 Vibration    11          0.923              1.102              0.509

 Optimization completed.
    -- Stationary point found.
 Normal termination of Gaussian 09 at Mon Jan 27 16:26:09 2020.
