 Gaussian 09, Revision D.01,
 Gaussian 09:  ES64L-G09RevD.01 24-Apr-2013

 -----------------------------
 # b3lyp 6-31G(2df,p) opt Freq
 -----------------------------

 -----
 titel
 -----
 Symbolic Z-matrix:
 Charge =  0 Multiplicity = 1

 SCF Done:  E(RB3LYP) =  -423.174589336     A.U. after   14 cycles
 Optimization completed.
    -- Stationary point found.
 Normal termination of Gaussian 09 at Tue Jan 28 13:23:02 2020.

 ----------------------------------------------------------------------
 #N Geom=AllCheck Guess=TCheck SCRF=Check GenChk RB3LYP/6-31G(2df,p) Fr
 eq
 ----------------------------------------------------------------------

 Structure from the checkpoint file:  "/scratch/puck/g09_618e576e-f3de-4667-ba86-393c6b43a252/Gau-7909.chk"
 -----
 titel
 -----
 Charge =  0 Multiplicity = 1

                         Standard orientation:
 ---------------------------------------------------------------------
 Center     Atomic      Atomic             Coordinates (Angstroms)
 Number     Number       Type             X           Y           Z
 ---------------------------------------------------------------------
      1          8           0        3.032079    0.055312    0.011610
      2          6           0        1.812996   -0.556498   -0.379912
      3          6           0        0.720212   -0.031669    0.533125
      4          6           0        0.368562    1.481365    0.334267
      5          6           0       -1.049329    1.054813   -0.090613
      6          8           0       -2.035329    1.636280   -0.451066
      7          6           0       -0.724247   -0.395099    0.130228
      8          6           0       -1.681706   -1.397445    0.737668
      9          6           0       -1.266831   -1.548150   -0.689780
     10          1           0        3.726872   -0.246492   -0.580864
     11          1           0        1.561786   -0.319969   -1.427092
     12          1           0        1.873142   -1.654344   -0.298836
     13          1           0        0.965565   -0.280193    1.569213
     14          1           0        0.392382    2.096093    1.237872
     15          1           0        0.943370    1.991640   -0.443843
     16          1           0       -1.272316   -2.085903    1.469593
     17          1           0       -2.683741   -1.039486    0.949613
     18          1           0       -0.578589   -2.346899   -0.944416
     19          1           0       -1.980414   -1.291083   -1.465479
 ---------------------------------------------------------------------

 SCF Done:  E(RB3LYP) =  -423.174589336     A.U. after    1 cycles

 The electronic state is 1-A.
 Alpha  occ. eigenvalues --  -19.14086 -19.12713 -10.26019 -10.23416 -10.20237
 Alpha  occ. eigenvalues --  -10.20208 -10.20144 -10.19706 -10.18594  -1.03567
 Alpha  occ. eigenvalues --   -1.02188  -0.88267  -0.81239  -0.70914  -0.62872
 Alpha  occ. eigenvalues --   -0.61423  -0.58530  -0.52331  -0.51448  -0.48502
 Alpha  occ. eigenvalues --   -0.48259  -0.45300  -0.43366  -0.41895  -0.39500
 Alpha  occ. eigenvalues --   -0.37788  -0.37224  -0.36136  -0.34836  -0.33110
 Alpha  occ. eigenvalues --   -0.30524  -0.28807  -0.27384  -0.23572
 Alpha virt. eigenvalues --   -0.01705   0.06789   0.08639   0.10393   0.11291
 Alpha virt. eigenvalues --    0.11843   0.14558   0.14703   0.16376   0.17502
 Alpha virt. eigenvalues --    0.18040   0.19220   0.19793   0.21268   0.22359

 Mulliken charges:
               1
     1  O   -0.419809
     2  C   -0.085004
     3  C   -0.096998
     4  C   -0.360118
     5  C    0.351434
     6  O   -0.317941
     7  C    0.221524
     8  C   -0.307321
     9  C   -0.316117
    10  H    0.288545
    11  H    0.086992
    12  H    0.084661
    13  H    0.084980
    14  H    0.132337
    15  H    0.134654
    16  H    0.123173
    17  H    0.136198
    18  H    0.122245
    19  H    0.136565
 Sum of Mulliken charges =   0.00000

 Dipole moment (field-independent basis, Debye):
    X=              2.1211    Y=             -2.6486    Z=             -0.2296  Tot=              3.4010
 Quadrupole moment (field-independent basis, Debye-Ang):
   XX=            -55.2975   YY=            -54.6599   ZZ=            -51.0653
   XY=              2.4842   XZ=             -5.9546   YZ=              1.6568

  Exact polarizability:  85.992   2.676  81.176   0.523   0.579  64.416
 Approx polarizability: 117.700  -0.929 118.489   4.124  -1.019 100.029

                      1                      2                      3
                      A                      A                      A
 Frequencies --     51.9184               104.7110               138.2546
 Red. masses --      3.4009                 3.2949                 3.8610
 Frc consts  --      0.0054                 0.0213                 0.0435
 IR Inten    --      2.1937                 2.9430                 1.9411

                      4                      5                      6
                      A                      A                      A
 Frequencies --    185.9677               205.9288               261.0672
 Red. masses --      2.3479                 4.2674                 1.3598
 Frc consts  --      0.0478                 0.1066                 0.0546
 IR Inten    --      1.3201                 1.9262                70.1925

                      7                      8                      9
                      A                      A                      A
 Frequencies --    290.8804               368.1430               421.3190
 Red. masses --      1.7944                 5.9233                 2.5677
 Frc consts  --      0.0895                 0.4730                 0.2685
 IR Inten    --     33.0402                11.6179                 4.0022

                     10                     11                     12
                      A                      A                      A
 Frequencies --    505.9377               534.2258               605.0879
 Red. masses --      1.9760                 2.9298                 4.0873
 Frc consts  --      0.2980                 0.4926                 0.8817
 IR Inten    --      0.8211                 0.5495                 0.8701

                     13                     14                     15
                      A                      A                      A
 Frequencies --    724.6746               785.8438               808.9556
 Red. masses --      3.0658                 1.2609                 2.1034
 Frc consts  --      0.9486                 0.4588                 0.8110
 IR Inten    --      3.3974                 3.4353                 5.9188

                     16                     17                     18
                      A                      A                      A
 Frequencies --    830.0925               894.7427               917.1874
 Red. masses --      2.6219                 1.8931                 2.1083
 Frc consts  --      1.0645                 0.8929                 1.0450
 IR Inten    --      2.4326                 4.0165                 8.6123

                     19                     20                     21
                      A                      A                      A
 Frequencies --    941.5399               995.8265              1046.7435
 Red. masses --      1.3398                 3.2123                 1.6845
 Frc consts  --      0.6998                 1.8769                 1.0874
 IR Inten    --      5.4154                 6.9377                30.4267

                     22                     23                     24
                      A                      A                      A
 Frequencies --   1055.3355              1061.0563              1073.1404
 Red. masses --      2.0680                 2.0541                 1.9597
 Frc consts  --      1.3570                 1.3625                 1.3297
 IR Inten    --     16.1132                29.1925                20.4181

                     25                     26                     27
                      A                      A                      A
 Frequencies --   1083.3701              1088.2804              1161.5545
 Red. masses --      2.8429                 1.8589                 1.6182
 Frc consts  --      1.9659                 1.2971                 1.2864
 IR Inten    --    100.8398                 5.3800                 8.0342

                     28                     29                     30
                      A                      A                      A
 Frequencies --   1179.0993              1198.9111              1220.5223
 Red. masses --      1.3941                 1.2929                 1.3665
 Frc consts  --      1.1419                 1.0949                 1.1994
 IR Inten    --      0.8880                 0.7203                31.8822

                     31                     32                     33
                      A                      A                      A
 Frequencies --   1253.0981              1258.9703              1272.1537
 Red. masses --      1.9773                 1.2067                 1.4197
 Frc consts  --      1.8293                 1.1269                 1.3537
 IR Inten    --     28.1996                 2.3403                18.7325

                     34                     35                     36
                      A                      A                      A
 Frequencies --   1353.3338              1363.4450              1439.7907
 Red. masses --      1.8101                 2.0309                 1.1185
 Frc consts  --      1.9533                 2.2244                 1.3661
 IR Inten    --     29.9284                11.3727                 4.2568

                     37                     38                     39
                      A                      A                      A
 Frequencies --   1455.9825              1461.4428              1489.1109
 Red. masses --      1.1477                 1.3975                 1.3957
 Frc consts  --      1.4334                 1.7586                 1.8234
 IR Inten    --      4.8445                 3.1093                 3.9470

                     40                     41                     42
                      A                      A                      A
 Frequencies --   1520.4856              1876.5359              2957.5176
 Red. masses --      1.0829                12.6202                 1.0545
 Frc consts  --      1.4750                26.1837                 5.4344
 IR Inten    --      3.0012               269.7473                49.3991

                     43                     44                     45
                      A                      A                      A
 Frequencies --   2985.3174              3065.2513              3073.4025
 Red. masses --      1.1056                 1.0604                 1.0856
 Frc consts  --      5.8055                 5.8700                 6.0417
 IR Inten    --     48.8606                10.8363                21.5503

                     46                     47                     48
                      A                      A                      A
 Frequencies --   3118.4705              3129.4433              3132.7015
 Red. masses --      1.1049                 1.0510                 1.0558
 Frc consts  --      6.3307                 6.0643                 6.1046
 IR Inten    --      7.7620                12.7599                 9.4998

                     49                     50                     51
                      A                      A                      A
 Frequencies --   3213.2153              3228.1512              3829.3387
 Red. masses --      1.1186                 1.1167                 1.0664
 Frc consts  --      6.8046                 6.8561                 9.2132
 IR Inten    --      0.0311                 7.0363                22.8985

 - Thermochemistry -
 -------------------
 Temperature   298.150 Kelvin.  Pressure   1.00000 Atm.
 Atom     1 has atomic number  8 and mass  15.99491

 Molecular mass:   126.06808 amu.
 Principal axes and moments of inertia in atomic units:
                           1         2         3
     Eigenvalues --   711.049591441.820271902.60497
           X            0.99931   0.03499  -0.01252
           Y           -0.03476   0.99924   0.01785
           Z            0.01313  -0.01740   0.99976
 This molecule is an asymmetric top.
 Rotational symmetry number  1.
 Warning -- assumption of classical behavior for rotation
           may cause significant error
 Rotational temperatures (Kelvin)      0.12181     0.06007     0.04552
 Rotational constants (GHZ):           2.53814     1.25171     0.94856
 Zero-point vibrational energy     414012.4 (Joules/Mol)
                                   98.95135 (Kcal/Mol)
 Warning -- explicit consideration of  12 degrees of freedom as
           vibrations may cause significant error
 Vibrational temperatures:     74.70   150.66   198.92   267.57   296.29
          (Kelvin)            375.62   418.51   529.67   606.18   727.93
                              768.63   870.59  1042.64  1130.65  1163.91
                             1194.32  1287.33  1319.63  1354.66  1432.77
                             1506.03  1518.39  1526.62  1544.01  1558.73
                             1565.79  1671.22  1696.46  1724.96  1756.06
                             1802.93  1811.38  1830.34  1947.14  1961.69
                             2071.54  2094.83  2102.69  2142.50  2187.64
                             2699.91  4255.20  4295.20  4410.21  4421.94
                             4486.78  4502.57  4507.25  4623.09  4644.58
                             5509.56

 Zero-point correction=                           0.157689 (Hartree/Particle)
 Thermal correction to Energy=                    0.166834
 Thermal correction to Enthalpy=                  0.167778
 Thermal correction to Gibbs Free Energy=         0.123265
 Sum of electronic and zero-point Energies=           -423.016900
 Sum of electronic and thermal Energies=              -423.007756
 Sum of electronic and thermal Enthalpies=            -423.006811
 Sum of electronic and thermal Free Energies=         -423.051324

                     E (Thermal)             CV                S
                      KCal/Mol        Cal/Mol-Kelvin    Cal/Mol-Kelvin
 Total                  104.690             33.707             93.685
 Electronic               0.000              0.000              0.000
 Translational            0.889              2.981             40.409
 Rotational               0.889              2.981             29.057
 Vibrational            102.912             27.745             24.219
 Vibration     1          0.596              1.977              4.743
 Vibration     2          0.605              1.945              3.365
 Vibration     3          0.614              1.915              2.828
 Vibration     4          0.632              1.859              2.268
 Vibration     5          0.640              1.831              2.079
 Vibration     6          0.669              1.744              1.655
 Vibration     7          0.687              1.691              1.469
 Vibration     8          0.741              1.538              1.088
 Vibration     9          0.784              1.424              0.888
 Vibration    10          0.861              1.237              0.643
 Vibration    11          0.889              1.174              0.578
 Vibration    12          0.964              1.021              0.441

 Normal termination of Gaussian 09 at Tue Jan 28 14:12:05 2020.
