 Gaussian 09, Revision D.01,
 Gaussian 09:  ES64L-G09RevD.01 24-Apr-2013

 -----------------------------
 # b3lyp 6-31G(2df,p) opt Freq
 -----------------------------

 -----
 titel
 -----
 Symbolic Z-matrix:
 Charge =  0 Multiplicity = 1

 SCF Done:  E(RB3LYP) =  -423.233851928     A.U. after   14 cycles
 Optimization completed.
    -- Stationary point found.
 Normal termination of Gaussian 09 at Tue Jan 28 03:01:07 2020.

 ----------------------------------------------------------------------
 #N Geom=AllCheck Guess=TCheck SCRF=Check GenChk RB3LYP/6-31G(2df,p) Fr
 eq
 ----------------------------------------------------------------------

 Structure from the checkpoint file:  "/scratch/puck/g09_14d71b01-5aa4-4c5a-83a9-e5225e2d6d35/Gau-109121.chk"
 -----
 titel
 -----
 Charge =  0 Multiplicity = 1

                         Standard orientation:
 ---------------------------------------------------------------------
 Center     Atomic      Atomic             Coordinates (Angstroms)
 Number     Number       Type             X           Y           Z
 ---------------------------------------------------------------------
      1          6           0       -2.847761   -0.740801   -0.319368
      2          6           0       -1.426389   -0.215766   -0.451594
      3          6           0       -1.199096    1.319034   -0.289512
      4          6           0       -0.028665    1.032140    0.671453
      5          8           0        1.244880    1.051567    0.015970
      6          6           0        1.773837   -0.197270   -0.141017
      7          8           0        2.828025   -0.377996   -0.674869
      8          6           0        0.829962   -1.239305    0.464925
      9          6           0       -0.447191   -0.465643    0.744664
     10          1           0       -3.310312   -0.395799    0.612657
     11          1           0       -3.474753   -0.396026   -1.148725
     12          1           0       -2.870187   -1.836189   -0.317740
     13          1           0       -0.985085   -0.580071   -1.385823
     14          1           0       -0.946277    1.893601   -1.182659
     15          1           0       -2.030854    1.808572    0.226284
     16          1           0        0.050414    1.626889    1.584017
     17          1           0        0.715514   -2.074651   -0.230238
     18          1           0        1.299568   -1.633054    1.372954
     19          1           0       -0.959456   -0.756175    1.663163
 ---------------------------------------------------------------------

 SCF Done:  E(RB3LYP) =  -423.233851928     A.U. after    1 cycles

 The electronic state is 1-A.
 Alpha  occ. eigenvalues --  -19.17830 -19.11862 -10.30126 -10.24758 -10.20326
 Alpha  occ. eigenvalues --  -10.20296 -10.20209 -10.19154 -10.18658  -1.09590
 Alpha  occ. eigenvalues --   -1.01838  -0.85875  -0.77125  -0.73641  -0.65589
 Alpha  occ. eigenvalues --   -0.63907  -0.57861  -0.54812  -0.50795  -0.48209
 Alpha  occ. eigenvalues --   -0.46724  -0.45410  -0.44234  -0.42239  -0.40819
 Alpha  occ. eigenvalues --   -0.39469  -0.38736  -0.37052  -0.35447  -0.34271
 Alpha  occ. eigenvalues --   -0.31380  -0.30782  -0.28325  -0.26331
 Alpha virt. eigenvalues --    0.01638   0.07778   0.08419   0.09782   0.11248
 Alpha virt. eigenvalues --    0.12685   0.13581   0.14665   0.15818   0.16402
 Alpha virt. eigenvalues --    0.17332   0.18259   0.19267   0.19906   0.20234

 Mulliken charges:
               1
     1  C   -0.413518
     2  C    0.030990
     3  C   -0.257751
     4  C    0.100733
     5  O   -0.228955
     6  C    0.419921
     7  O   -0.331135
     8  C   -0.382933
     9  C   -0.044786
    10  H    0.113881
    11  H    0.121957
    12  H    0.119163
    13  H    0.082223
    14  H    0.119130
    15  H    0.105200
    16  H    0.089826
    17  H    0.138975
    18  H    0.138249
    19  H    0.078829
 Sum of Mulliken charges =   0.00000

 Dipole moment (field-independent basis, Debye):
    X=             -3.9964    Y=             -0.6123    Z=              1.7042  Tot=              4.3875
 Quadrupole moment (field-independent basis, Debye-Ang):
   XX=            -63.8039   YY=            -52.2924   ZZ=            -51.4582
   XY=             -1.0832   XZ=              3.9945   YZ=              0.0226

  Exact polarizability:  87.648  -4.077  72.969  -2.057   0.454  64.513
 Approx polarizability: 117.313  -7.631 107.652  -8.314   2.319 100.369

                      1                      2                      3
                      A                      A                      A
 Frequencies --     67.9927               113.1778               215.8309
 Red. masses --      3.3303                 4.5342                 1.4457
 Frc consts  --      0.0091                 0.0342                 0.0397
 IR Inten    --      2.9567                 0.5077                 0.4855

                      4                      5                      6
                      A                      A                      A
 Frequencies --    247.4129               289.7752               353.3561
 Red. masses --      1.6118                 2.2147                 3.4398
 Frc consts  --      0.0581                 0.1096                 0.2531
 IR Inten    --      0.5999                 0.4017                 0.6352

                      7                      8                      9
                      A                      A                      A
 Frequencies --    420.0986               496.6979               559.1868
 Red. masses --      2.1630                 4.2420                 2.7525
 Frc consts  --      0.2249                 0.6166                 0.5071
 IR Inten    --      0.6840                 3.0121                 4.0438

                     10                     11                     12
                      A                      A                      A
 Frequencies --    628.5769               673.2948               758.5259
 Red. masses --      4.3010                 4.7985                 3.5674
 Frc consts  --      1.0012                 1.2816                 1.2093
 IR Inten    --      1.4898                 8.5033                 0.1060

                     13                     14                     15
                      A                      A                      A
 Frequencies --    788.9827               818.3823               865.2191
 Red. masses --      2.2453                 4.1833                 2.0244
 Frc consts  --      0.8235                 1.6507                 0.8929
 IR Inten    --      5.2529                 3.0979                 0.5185

                     16                     17                     18
                      A                      A                      A
 Frequencies --    887.1253               907.4513               955.4484
 Red. masses --      2.1868                 2.1291                 1.7995
 Frc consts  --      1.0140                 1.0330                 0.9679
 IR Inten    --      4.7692                14.5833                13.4885

                     19                     20                     21
                      A                      A                      A
 Frequencies --    966.4061              1027.1393              1043.8658
 Red. masses --      1.5404                 2.1743                 1.7549
 Frc consts  --      0.8476                 1.3516                 1.1267
 IR Inten    --     14.4561                33.3698                 6.1593

                     22                     23                     24
                      A                      A                      A
 Frequencies --   1097.7769              1114.2896              1126.6650
 Red. masses --      1.8023                 2.9759                 2.4403
 Frc consts  --      1.2797                 2.1770                 1.8250
 IR Inten    --      3.0929                41.0784                21.5389

                     25                     26                     27
                      A                      A                      A
 Frequencies --   1151.1605              1162.8929              1213.5660
 Red. masses --      2.3154                 1.7202                 1.5361
 Frc consts  --      1.8078                 1.3706                 1.3329
 IR Inten    --    116.5154                48.6348                18.3643

                     28                     29                     30
                      A                      A                      A
 Frequencies --   1220.6853              1262.2268              1277.6430
 Red. masses --      1.6182                 1.5086                 1.5611
 Frc consts  --      1.4206                 1.4162                 1.5014
 IR Inten    --      6.6131                 1.5207                 4.3284

                     31                     32                     33
                      A                      A                      A
 Frequencies --   1284.8286              1292.7785              1317.7112
 Red. masses --      1.5409                 1.5903                 1.4626
 Frc consts  --      1.4987                 1.5659                 1.4963
 IR Inten    --     22.0608                12.1860                 2.0386

                     34                     35                     36
                      A                      A                      A
 Frequencies --   1371.6431              1381.2095              1411.1354
 Red. masses --      1.4596                 1.4664                 1.2575
 Frc consts  --      1.6179                 1.6483                 1.4753
 IR Inten    --     20.3005                 0.1021                 1.1727

                     37                     38                     39
                      A                      A                      A
 Frequencies --   1461.9095              1468.9862              1494.3290
 Red. masses --      1.0900                 1.1148                 1.0435
 Frc consts  --      1.3725                 1.4174                 1.3729
 IR Inten    --      6.6868                 2.6175                 5.8672

                     40                     41                     42
                      A                      A                      A
 Frequencies --   1496.4372              1882.3044              3024.0821
 Red. masses --      1.0495                12.9250                 1.0353
 Frc consts  --      1.3847                26.9811                 5.5785
 IR Inten    --      2.3161               395.8335                24.5112

                     43                     44                     45
                      A                      A                      A
 Frequencies --   3041.2798              3056.0129              3058.0803
 Red. masses --      1.0847                 1.0645                 1.0616
 Frc consts  --      5.9113                 5.8576                 5.8494
 IR Inten    --      8.4014                 9.8424                22.7734

                     46                     47                     48
                      A                      A                      A
 Frequencies --   3082.3619              3091.6097              3095.5036
 Red. masses --      1.0877                 1.1005                 1.1003
 Frc consts  --      6.0885                 6.1977                 6.2117
 IR Inten    --     41.0365                18.0626                18.4554

                     49                     50                     51
                      A                      A                      A
 Frequencies --   3099.7634              3109.3552              3122.9833
 Red. masses --      1.0893                 1.0988                 1.1054
 Frc consts  --      6.1669                 6.2593                 6.3517
 IR Inten    --     35.8355                10.0005                20.4962

 - Thermochemistry -
 -------------------
 Temperature   298.150 Kelvin.  Pressure   1.00000 Atm.
 Atom     1 has atomic number  6 and mass  12.00000

 Molecular mass:   126.06808 amu.
 Principal axes and moments of inertia in atomic units:
                           1         2         3
     Eigenvalues --   509.685091496.040391725.38150
           X            0.99990   0.00197   0.01420
           Y           -0.00181   0.99994  -0.01064
           Z           -0.01422   0.01062   0.99984
 This molecule is an asymmetric top.
 Rotational symmetry number  1.
 Warning -- assumption of classical behavior for rotation
           may cause significant error
 Rotational temperatures (Kelvin)      0.16994     0.05790     0.05020
 Rotational constants (GHZ):           3.54089     1.20635     1.04600
 Zero-point vibrational energy     420817.3 (Joules/Mol)
                                  100.57775 (Kcal/Mol)
 Warning -- explicit consideration of   9 degrees of freedom as
           vibrations may cause significant error
 Vibrational temperatures:     97.83   162.84   310.53   355.97   416.92
          (Kelvin)            508.40   604.43   714.64   804.54   904.38
                              968.72  1091.35  1135.17  1177.47  1244.86
                             1276.37  1305.62  1374.68  1390.44  1477.82
                             1501.89  1579.45  1603.21  1621.02  1656.26
                             1673.14  1746.05  1756.29  1816.06  1838.24
                             1848.58  1860.02  1895.89  1973.49  1987.25
                             2030.31  2103.36  2113.54  2150.00  2153.04
                             2708.21  4350.97  4375.72  4396.92  4399.89
                             4434.83  4448.13  4453.73  4459.86  4473.66
                             4493.27

 Zero-point correction=                           0.160281 (Hartree/Particle)
 Thermal correction to Energy=                    0.168222
 Thermal correction to Enthalpy=                  0.169166
 Thermal correction to Gibbs Free Energy=         0.127459
 Sum of electronic and zero-point Energies=           -423.073571
 Sum of electronic and thermal Energies=              -423.065630
 Sum of electronic and thermal Enthalpies=            -423.064686
 Sum of electronic and thermal Free Energies=         -423.106393

                     E (Thermal)             CV                S
                      KCal/Mol        Cal/Mol-Kelvin    Cal/Mol-Kelvin
 Total                  105.561             30.576             87.780
 Electronic               0.000              0.000              0.000
 Translational            0.889              2.981             40.409
 Rotational               0.889              2.981             28.666
 Vibrational            103.783             24.614             18.705
 Vibration     1          0.598              1.969              4.211
 Vibration     2          0.607              1.939              3.214
 Vibration     3          0.645              1.817              1.994
 Vibration     4          0.661              1.767              1.749
 Vibration     5          0.686              1.693              1.475
 Vibration     6          0.730              1.568              1.151
 Vibration     7          0.783              1.427              0.892
 Vibration     8          0.852              1.257              0.666
 Vibration     9          0.915              1.120              0.525

 Normal termination of Gaussian 09 at Tue Jan 28 03:44:21 2020.
