 Gaussian 09, Revision D.01,
 Gaussian 09:  ES64L-G09RevD.01 24-Apr-2013

 -----------------------------
 # b3lyp 6-31G(2df,p) opt Freq
 -----------------------------

 -----
 titel
 -----
 Symbolic Z-matrix:
 Charge =  0 Multiplicity = 1

 SCF Done:  E(RB3LYP) =  -423.114893412     A.U. after   14 cycles
 Optimization completed.
    -- Stationary point found.
 Normal termination of Gaussian 09 at Tue Jan 28 14:27:39 2020.

 ----------------------------------------------------------------------
 #N Geom=AllCheck Guess=TCheck SCRF=Check GenChk RB3LYP/6-31G(2df,p) Fr
 eq
 ----------------------------------------------------------------------

 Structure from the checkpoint file:  "/scratch/puck/g09_25860aab-4089-4eb6-aa62-0baa410fe4b2/Gau-34946.chk"
 -----
 titel
 -----
 Charge =  0 Multiplicity = 1

                         Standard orientation:
 ---------------------------------------------------------------------
 Center     Atomic      Atomic             Coordinates (Angstroms)
 Number     Number       Type             X           Y           Z
 ---------------------------------------------------------------------
      1          6           0        3.500009    0.388212   -0.066770
      2          8           0        2.367460   -0.441439    0.037005
      3          6           0        1.171893    0.223343   -0.305638
      4          6           0        0.038446   -0.754668   -0.153859
      5          8           0       -0.611116   -0.828106    1.114194
      6          6           0       -1.372650   -0.333623   -0.005522
      7          6           0       -2.491900   -1.241039   -0.476218
      8          6           0       -1.702433    1.074630    0.035041
      9          6           0       -2.026659    2.232290    0.041549
     10          1           0        3.434332    1.255646    0.608513
     11          1           0        4.369976   -0.211279    0.211259
     12          1           0        3.638946    0.763567   -1.093553
     13          1           0        0.997037    1.096332    0.339466
     14          1           0        1.211872    0.580797   -1.350373
     15          1           0        0.220740   -1.723036   -0.622795
     16          1           0       -2.158663   -2.281360   -0.467239
     17          1           0       -3.358306   -1.144483    0.184400
     18          1           0       -2.805155   -0.972791   -1.489577
     19          1           0       -2.301769    3.258092    0.058807
 ---------------------------------------------------------------------

 SCF Done:  E(RB3LYP) =  -423.114893412     A.U. after    1 cycles

 The electronic state is 1-A.
 Alpha  occ. eigenvalues --  -19.15503 -19.14247 -10.26752 -10.24272 -10.23233
 Alpha  occ. eigenvalues --  -10.22542 -10.19021 -10.18967 -10.18534  -1.07853
 Alpha  occ. eigenvalues --   -1.03541  -0.78408  -0.75278  -0.73339  -0.66828
 Alpha  occ. eigenvalues --   -0.63424  -0.60721  -0.53306  -0.50392  -0.50198
 Alpha  occ. eigenvalues --   -0.48036  -0.45764  -0.44853  -0.42242  -0.41070
 Alpha  occ. eigenvalues --   -0.40025  -0.37822  -0.37033  -0.33129  -0.32241
 Alpha  occ. eigenvalues --   -0.28514  -0.27467  -0.26462  -0.25513
 Alpha virt. eigenvalues --    0.02384   0.04214   0.08652   0.10744   0.11138
 Alpha virt. eigenvalues --    0.11950   0.13639   0.14132   0.15058   0.15317
 Alpha virt. eigenvalues --    0.16615   0.17351   0.18314   0.20258   0.21143

 Mulliken charges:
               1
     1  C   -0.223842
     2  O   -0.234878
     3  C   -0.098477
     4  C    0.003420
     5  O   -0.277556
     6  C    0.193573
     7  C   -0.473063
     8  C    0.300165
     9  C   -0.434313
    10  H    0.108047
    11  H    0.129556
    12  H    0.102686
    13  H    0.109532
    14  H    0.091616
    15  H    0.099076
    16  H    0.132519
    17  H    0.139566
    18  H    0.132598
    19  H    0.199775
 Sum of Mulliken charges =   0.00000

 Dipole moment (field-independent basis, Debye):
    X=             -0.0372    Y=              1.2094    Z=             -1.9709  Tot=              2.3127
 Quadrupole moment (field-independent basis, Debye-Ang):
   XX=            -47.8231   YY=            -48.7997   ZZ=            -56.0181
   XY=              1.6836   XZ=              0.5451   YZ=              2.1174

  Exact polarizability:  93.136  -6.802  87.326   0.418   1.440  57.768
 Approx polarizability: 111.765 -18.012 138.252   0.589  -1.870  91.742

                      1                      2                      3
                      A                      A                      A
 Frequencies --     63.3263                80.0307                95.3235
 Red. masses --      2.7850                 2.3103                 3.9393
 Frc consts  --      0.0066                 0.0087                 0.0211
 IR Inten    --      0.6892                 3.7345                 0.6168

                      4                      5                      6
                      A                      A                      A
 Frequencies --    169.7367               180.5214               210.2532
 Red. masses --      1.7868                 3.1528                 1.6206
 Frc consts  --      0.0303                 0.0605                 0.0422
 IR Inten    --      0.2466                 1.9388                 0.7924

                      7                      8                      9
                      A                      A                      A
 Frequencies --    225.9715               259.7492               320.7442
 Red. masses --      1.2982                 2.4413                 2.8938
 Frc consts  --      0.0391                 0.0970                 0.1754
 IR Inten    --      1.3927                 3.8966                 1.9247

                     10                     11                     12
                      A                      A                      A
 Frequencies --    342.5297               421.1868               527.0773
 Red. masses --      5.1075                 3.7589                 3.0224
 Frc consts  --      0.3531                 0.3929                 0.4947
 IR Inten    --      1.0168                 0.7539                 3.6350

                     13                     14                     15
                      A                      A                      A
 Frequencies --    558.0795               602.7891               632.3305
 Red. masses --      5.8031                 4.9674                 1.2246
 Frc consts  --      1.0649                 1.0634                 0.2885
 IR Inten    --     11.1846                 3.6321                45.1435

                     16                     17                     18
                      A                      A                      A
 Frequencies --    663.9411               675.4683               809.4533
 Red. masses --      1.2628                 4.7622                 3.3649
 Frc consts  --      0.3280                 1.2802                 1.2990
 IR Inten    --     34.0973                 3.1996                20.9802

                     19                     20                     21
                      A                      A                      A
 Frequencies --    899.5716               968.3970               979.8045
 Red. masses --      3.0966                 1.7410                 3.5039
 Frc consts  --      1.4764                 0.9620                 1.9819
 IR Inten    --     28.1935                 0.3771                23.0846

                     22                     23                     24
                      A                      A                      A
 Frequencies --   1057.0013              1089.0696              1101.7146
 Red. masses --      2.0609                 2.1201                 1.6753
 Frc consts  --      1.3566                 1.4815                 1.1980
 IR Inten    --     10.5957                 6.5738                 4.6513

                     25                     26                     27
                      A                      A                      A
 Frequencies --   1124.1714              1167.3308              1185.5249
 Red. masses --      2.4278                 4.2458                 1.3362
 Frc consts  --      1.8077                 3.4088                 1.1065
 IR Inten    --     52.7081               132.6263                 5.5983

                     28                     29                     30
                      A                      A                      A
 Frequencies --   1227.5450              1242.2093              1264.9930
 Red. masses --      1.6636                 2.1429                 1.2688
 Frc consts  --      1.4769                 1.9482                 1.1963
 IR Inten    --     36.6834                32.7410                 3.4875

                     31                     32                     33
                      A                      A                      A
 Frequencies --   1323.3375              1390.8863              1408.8285
 Red. masses --      1.4816                 1.6100                 1.2591
 Frc consts  --      1.5287                 1.8351                 1.4725
 IR Inten    --      9.8889                18.6625                 3.7501

                     34                     35                     36
                      A                      A                      A
 Frequencies --   1465.7069              1478.0859              1483.2487
 Red. masses --      1.5237                 1.1072                 1.2140
 Frc consts  --      1.9287                 1.4252                 1.5736
 IR Inten    --     14.4944                 2.0718                 4.2269

                     37                     38                     39
                      A                      A                      A
 Frequencies --   1484.8502              1495.4652              1497.0218
 Red. masses --      1.0664                 1.1237                 1.1674
 Frc consts  --      1.3853                 1.4807                 1.5414
 IR Inten    --      8.0431                 3.9424                 5.0980

                     40                     41                     42
                      A                      A                      A
 Frequencies --   1518.7297              2236.1456              2947.7747
 Red. masses --      1.1188                 5.9562                 1.0642
 Frc consts  --      1.5204                17.5477                 5.4485
 IR Inten    --      2.2998                 0.9360                36.0074

                     43                     44                     45
                      A                      A                      A
 Frequencies --   2969.9635              3013.7418              3022.2895
 Red. masses --      1.0397                 1.1012                 1.0933
 Frc consts  --      5.4032                 5.8930                 5.8837
 IR Inten    --     68.2351                70.2644                13.5932

                     46                     47                     48
                      A                      A                      A
 Frequencies --   3045.6719              3103.1789              3116.7527
 Red. masses --      1.0344                 1.0874                 1.0959
 Frc consts  --      5.6535                 6.1694                 6.2720
 IR Inten    --     13.6567                22.3391                29.9850

                     49                     50                     51
                      A                      A                      A
 Frequencies --   3117.3865              3132.7374              3500.5248
 Red. masses --      1.1015                 1.1028                 1.1619
 Frc consts  --      6.3070                 6.3764                 8.3888
 IR Inten    --     12.5689                15.3070                68.6161

 - Thermochemistry -
 -------------------
 Temperature   298.150 Kelvin.  Pressure   1.00000 Atm.
 Atom     1 has atomic number  6 and mass  12.00000

 Molecular mass:   126.06808 amu.
 Principal axes and moments of inertia in atomic units:
                           1         2         3
     Eigenvalues --   613.773821954.431232351.34430
           X            0.99952   0.03051   0.00459
           Y           -0.03062   0.99916   0.02735
           Z           -0.00376  -0.02747   0.99962
 This molecule is an asymmetric top.
 Rotational symmetry number  1.
 Warning -- assumption of classical behavior for rotation
           may cause significant error
 Rotational temperatures (Kelvin)      0.14112     0.04432     0.03684
 Rotational constants (GHZ):           2.94040     0.92341     0.76754
 Zero-point vibrational energy     406121.3 (Joules/Mol)
                                   97.06531 (Kcal/Mol)
 Warning -- explicit consideration of  14 degrees of freedom as
           vibrations may cause significant error
 Vibrational temperatures:     91.11   115.15   137.15   244.21   259.73
          (Kelvin)            302.51   325.12   373.72   461.48   492.82
                              605.99   758.35   802.95   867.28   909.78
                              955.26   971.85  1164.62  1294.28  1393.31
                             1409.72  1520.79  1566.93  1585.12  1617.43
                             1679.53  1705.70  1766.16  1787.26  1820.04
                             1903.99  2001.17  2026.99  2108.82  2126.63
                             2134.06  2136.37  2151.64  2153.88  2185.11
                             3217.31  4241.18  4273.11  4336.10  4348.40
                             4382.04  4464.78  4484.31  4485.22  4507.30
                             5036.47

 Zero-point correction=                           0.154683 (Hartree/Particle)
 Thermal correction to Energy=                    0.165031
 Thermal correction to Enthalpy=                  0.165975
 Thermal correction to Gibbs Free Energy=         0.118846
 Sum of electronic and zero-point Energies=           -422.960210
 Sum of electronic and thermal Energies=              -422.949862
 Sum of electronic and thermal Enthalpies=            -422.948918
 Sum of electronic and thermal Free Energies=         -422.996048

                     E (Thermal)             CV                S
                      KCal/Mol        Cal/Mol-Kelvin    Cal/Mol-Kelvin
 Total                  103.559             36.665             99.192
 Electronic               0.000              0.000              0.000
 Translational            0.889              2.981             40.409
 Rotational               0.889              2.981             29.424
 Vibrational            101.781             30.704             29.360
 Vibration     1          0.597              1.972              4.351
 Vibration     2          0.600              1.963              3.890
 Vibration     3          0.603              1.953              3.548
 Vibration     4          0.625              1.880              2.438
 Vibration     5          0.629              1.866              2.323
 Vibration     6          0.642              1.825              2.041
 Vibration     7          0.650              1.801              1.911
 Vibration     8          0.668              1.746              1.663
 Vibration     9          0.706              1.634              1.306
 Vibration    10          0.722              1.590              1.200
 Vibration    11          0.784              1.424              0.888
 Vibration    12          0.882              1.190              0.594
 Vibration    13          0.914              1.122              0.528
 Vibration    14          0.961              1.026              0.445

 Optimization completed.
    -- Stationary point found.
 Normal termination of Gaussian 09 at Tue Jan 28 15:01:25 2020.
