 Gaussian 09, Revision D.01,
 Gaussian 09:  ES64L-G09RevD.01 24-Apr-2013

 -----------------------------
 # b3lyp 6-31G(2df,p) opt Freq
 -----------------------------

 -----
 titel
 -----
 Symbolic Z-matrix:
 Charge =  0 Multiplicity = 1

 SCF Done:  E(RB3LYP) =  -423.114508642     A.U. after   13 cycles
 Optimization completed.
    -- Stationary point found.
 Normal termination of Gaussian 09 at Tue Jan 28 02:55:10 2020.

 ----------------------------------------------------------------------
 #N Geom=AllCheck Guess=TCheck SCRF=Check GenChk RB3LYP/6-31G(2df,p) Fr
 eq
 ----------------------------------------------------------------------

 Structure from the checkpoint file:  "/scratch/puck/g09_5773226d-c19b-4bd4-8225-00df554f1d5d/Gau-92261.chk"
 -----
 titel
 -----
 Charge =  0 Multiplicity = 1

                         Standard orientation:
 ---------------------------------------------------------------------
 Center     Atomic      Atomic             Coordinates (Angstroms)
 Number     Number       Type             X           Y           Z
 ---------------------------------------------------------------------
      1          8           0       -2.383641   -0.462103   -0.746543
      2          6           0       -1.578675    0.170255    0.229141
      3          6           0       -0.679182    1.261165   -0.487101
      4          6           0        0.628718    0.611248   -0.076878
      5          6           0        0.427632    0.341713    1.461086
      6          6           0       -0.491045   -0.761470    0.895798
      7          6           0        0.456468   -0.893855   -0.318945
      8          6           0        2.013064   -0.805746   -0.392889
      9          8           0        1.970889    0.657737   -0.550105
     10          1           0       -2.894519   -1.151491   -0.308994
     11          1           0       -2.201599    0.623314    1.013676
     12          1           0       -0.860803    1.243778   -1.563300
     13          1           0       -0.851430    2.268631   -0.100131
     14          1           0        1.326675   -0.027380    1.952488
     15          1           0       -0.033207    1.129794    2.062854
     16          1           0       -0.883540   -1.585484    1.497013
     17          1           0        0.007249   -1.234797   -1.251157
     18          1           0        2.587578   -1.098959    0.491312
     19          1           0        2.443727   -1.272335   -1.281849
 ---------------------------------------------------------------------

 SCF Done:  E(RB3LYP) =  -423.114508642     A.U. after    1 cycles

 The electronic state is 1-A.
 Alpha  occ. eigenvalues --  -19.14271 -19.13460 -10.24200 -10.23798 -10.23643
 Alpha  occ. eigenvalues --  -10.20018 -10.18567 -10.18144 -10.18015  -1.04085
 Alpha  occ. eigenvalues --   -1.02506  -0.87642  -0.73641  -0.69586  -0.66764
 Alpha  occ. eigenvalues --   -0.63710  -0.56486  -0.52892  -0.51078  -0.50029
 Alpha  occ. eigenvalues --   -0.47686  -0.44996  -0.42408  -0.40990  -0.39862
 Alpha  occ. eigenvalues --   -0.37994  -0.37120  -0.34903  -0.33143  -0.32730
 Alpha  occ. eigenvalues --   -0.30404  -0.26954  -0.26053  -0.24066
 Alpha virt. eigenvalues --    0.07226   0.07758   0.09729   0.11430   0.11942
 Alpha virt. eigenvalues --    0.13299   0.14296   0.15196   0.16287   0.17633
 Alpha virt. eigenvalues --    0.18294   0.18937   0.19953   0.20223   0.22007

 Mulliken charges:
               1
     1  O   -0.435910
     2  C    0.147389
     3  C   -0.323480
     4  C    0.475118
     5  C   -0.296795
     6  C   -0.116378
     7  C   -0.072156
     8  C   -0.162421
     9  O   -0.362047
    10  H    0.281525
    11  H    0.069565
    12  H    0.122474
    13  H    0.101155
    14  H    0.107794
    15  H    0.090426
    16  H    0.054294
    17  H    0.093299
    18  H    0.110076
    19  H    0.116071
 Sum of Mulliken charges =   0.00000

 Dipole moment (field-independent basis, Debye):
    X=             -1.2704    Y=             -1.5533    Z=              1.5880  Tot=              2.5590
 Quadrupole moment (field-independent basis, Debye-Ang):
   XX=            -53.6110   YY=            -51.5922   ZZ=            -53.8344
   XY=             -1.5105   XZ=             -1.9894   YZ=              0.8279

  Exact polarizability:  83.363  -3.578  69.503  -1.848   1.970  70.142
 Approx polarizability: 115.663  -0.846 107.893  -3.057   2.400 107.071

                      1                      2                      3
                      A                      A                      A
 Frequencies --    169.0311               274.4743               296.3719
 Red. masses --      3.9038                 3.3733                 1.2340
 Frc consts  --      0.0657                 0.1497                 0.0639
 IR Inten    --      0.2597                 1.7106                84.0329

                      4                      5                      6
                      A                      A                      A
 Frequencies --    338.8895               393.3935               453.5669
 Red. masses --      2.3382                 2.9625                 4.2568
 Frc consts  --      0.1582                 0.2701                 0.5160
 IR Inten    --     29.2496                 6.2940                 4.4947

                      7                      8                      9
                      A                      A                      A
 Frequencies --    468.3761               480.1633               601.9663
 Red. masses --      2.3745                 2.4615                 3.8697
 Frc consts  --      0.3069                 0.3344                 0.8262
 IR Inten    --      4.4010                 2.5436                 8.2859

                     10                     11                     12
                      A                      A                      A
 Frequencies --    662.2665               748.7017               796.3120
 Red. masses --      2.9403                 3.9209                 3.3590
 Frc consts  --      0.7598                 1.2950                 1.2550
 IR Inten    --      1.3873                11.4292                 7.7251

                     13                     14                     15
                      A                      A                      A
 Frequencies --    815.8792               839.6286               882.0290
 Red. masses --      3.1813                 2.2421                 2.5646
 Frc consts  --      1.2477                 0.9313                 1.1755
 IR Inten    --      0.1370                 0.7314                15.9538

                     16                     17                     18
                      A                      A                      A
 Frequencies --    897.9828               929.8243               953.7346
 Red. masses --      2.5695                 3.5867                 2.5221
 Frc consts  --      1.2208                 1.8270                 1.3517
 IR Inten    --     15.6015                20.1298                 8.7903

                     19                     20                     21
                      A                      A                      A
 Frequencies --    980.9484              1007.8786              1030.0932
 Red. masses --      2.3037                 1.6356                 1.8613
 Frc consts  --      1.3061                 0.9789                 1.1636
 IR Inten    --     36.5187                30.1732                11.4128

                     22                     23                     24
                      A                      A                      A
 Frequencies --   1050.4937              1075.1376              1092.7783
 Red. masses --      1.3415                 1.7754                 1.9053
 Frc consts  --      0.8722                 1.2091                 1.3405
 IR Inten    --      1.0648                 3.1828                11.4544

                     25                     26                     27
                      A                      A                      A
 Frequencies --   1105.6164              1154.5200              1161.1600
 Red. masses --      2.1528                 1.1583                 2.3251
 Frc consts  --      1.5505                 0.9097                 1.8470
 IR Inten    --     35.1261                 0.5429                17.4327

                     28                     29                     30
                      A                      A                      A
 Frequencies --   1186.5578              1196.9133              1215.7780
 Red. masses --      1.4740                 1.5457                 1.7432
 Frc consts  --      1.2227                 1.3047                 1.5181
 IR Inten    --      3.5409                 4.0586                26.6435

                     31                     32                     33
                      A                      A                      A
 Frequencies --   1245.2288              1251.9513              1271.8172
 Red. masses --      1.3222                 1.5771                 1.4475
 Frc consts  --      1.2079                 1.4564                 1.3795
 IR Inten    --     41.4095                28.2168                 8.2061

                     34                     35                     36
                      A                      A                      A
 Frequencies --   1289.8786              1331.0681              1340.8317
 Red. masses --      2.0139                 1.7595                 1.5061
 Frc consts  --      1.9742                 1.8367                 1.5953
 IR Inten    --     15.6806                66.3313                13.8173

                     37                     38                     39
                      A                      A                      A
 Frequencies --   1356.6440              1415.2203              1493.3898
 Red. masses --      1.4975                 1.3880                 1.1017
 Frc consts  --      1.6239                 1.6379                 1.4476
 IR Inten    --     10.3529                 3.2073                 2.1572

                     40                     41                     42
                      A                      A                      A
 Frequencies --   1506.6638              1527.2485              2994.6939
 Red. masses --      1.1359                 1.1052                 1.0853
 Frc consts  --      1.5192                 1.5189                 5.7347
 IR Inten    --      0.9368                 4.3244                48.8462

                     43                     44                     45
                      A                      A                      A
 Frequencies --   3046.7224              3063.7535              3067.9213
 Red. masses --      1.0577                 1.0643                 1.0616
 Frc consts  --      5.7847                 5.8862                 5.8869
 IR Inten    --     56.7580                20.3273                55.1507

                     46                     47                     48
                      A                      A                      A
 Frequencies --   3078.9956              3102.6247              3120.4763
 Red. masses --      1.0861                 1.1049                 1.0926
 Frc consts  --      6.0667                 6.2663                 6.2685
 IR Inten    --     57.0015                13.3595                25.7611

                     49                     50                     51
                      A                      A                      A
 Frequencies --   3128.1194              3146.8660              3808.0371
 Red. masses --      1.1055                 1.1023                 1.0659
 Frc consts  --      6.3735                 6.4311                 9.1067
 IR Inten    --     21.2130                23.1381                21.6178

 - Thermochemistry -
 -------------------
 Temperature   298.150 Kelvin.  Pressure   1.00000 Atm.
 Atom     1 has atomic number  8 and mass  15.99491

 Molecular mass:   126.06808 amu.
 Principal axes and moments of inertia in atomic units:
                           1         2         3
     Eigenvalues --   534.050751257.995581273.62946
           X            0.99962  -0.02524  -0.01148
           Y            0.02759   0.94596   0.32309
           Z            0.00271  -0.32329   0.94630
 This molecule is an asymmetric top.
 Rotational symmetry number  1.
 Warning -- assumption of classical behavior for rotation
           may cause significant error
 Rotational temperatures (Kelvin)      0.16218     0.06885     0.06801
 Rotational constants (GHZ):           3.37934     1.43462     1.41701
 Zero-point vibrational energy     423768.8 (Joules/Mol)
                                  101.28319 (Kcal/Mol)
 Warning -- explicit consideration of   9 degrees of freedom as
           vibrations may cause significant error
 Vibrational temperatures:    243.20   394.91   426.41   487.59   566.00
          (Kelvin)            652.58   673.89   690.85   866.09   952.85
                             1077.21  1145.71  1173.87  1208.04  1269.04
                             1292.00  1337.81  1372.21  1411.36  1450.11
                             1482.07  1511.42  1546.88  1572.26  1590.73
                             1661.09  1670.65  1707.19  1722.09  1749.23
                             1791.60  1801.28  1829.86  1855.85  1915.11
                             1929.16  1951.91  2036.18  2148.65  2167.75
                             2197.37  4308.69  4383.55  4408.05  4414.05
                             4429.98  4463.98  4489.66  4500.66  4527.63
                             5478.91

 Zero-point correction=                           0.161405 (Hartree/Particle)
 Thermal correction to Energy=                    0.168379
 Thermal correction to Enthalpy=                  0.169324
 Thermal correction to Gibbs Free Energy=         0.130497
 Sum of electronic and zero-point Energies=           -422.953104
 Sum of electronic and thermal Energies=              -422.946129
 Sum of electronic and thermal Enthalpies=            -422.945185
 Sum of electronic and thermal Free Energies=         -422.984012

                     E (Thermal)             CV                S
                      KCal/Mol        Cal/Mol-Kelvin    Cal/Mol-Kelvin
 Total                  105.660             29.507             81.718
 Electronic               0.000              0.000              0.000
 Translational            0.889              2.981             40.409
 Rotational               0.889              2.981             28.239
 Vibrational            103.882             23.545             13.070
 Vibration     1          0.625              1.881              2.446
 Vibration     2          0.677              1.720              1.568
 Vibration     3          0.690              1.680              1.437
 Vibration     4          0.719              1.598              1.217
 Vibration     5          0.761              1.484              0.987
 Vibration     6          0.812              1.353              0.785
 Vibration     7          0.826              1.320              0.742
 Vibration     8          0.837              1.294              0.710
 Vibration     9          0.960              1.028              0.446

 Optimization completed.
    -- Stationary point found.
 Normal termination of Gaussian 09 at Tue Jan 28 03:45:30 2020.
