 Gaussian 09, Revision D.01,
 Gaussian 09:  ES64L-G09RevD.01 24-Apr-2013

 -----------------------------
 # b3lyp 6-31G(2df,p) opt Freq
 -----------------------------

 -----
 titel
 -----
 Symbolic Z-matrix:
 Charge =  0 Multiplicity = 1

 SCF Done:  E(RB3LYP) =  -423.203916551     A.U. after   14 cycles
 Optimization completed.
    -- Stationary point found.
 Normal termination of Gaussian 09 at Tue Jan 28 03:57:16 2020.

 ----------------------------------------------------------------------
 #N Geom=AllCheck Guess=TCheck SCRF=Check GenChk RB3LYP/6-31G(2df,p) Fr
 eq
 ----------------------------------------------------------------------

 Structure from the checkpoint file:  "/scratch/puck/g09_fe6adb0c-505f-4241-8043-b9efce15991a/Gau-3130.chk"
 -----
 titel
 -----
 Charge =  0 Multiplicity = 1

                         Standard orientation:
 ---------------------------------------------------------------------
 Center     Atomic      Atomic             Coordinates (Angstroms)
 Number     Number       Type             X           Y           Z
 ---------------------------------------------------------------------
      1          6           0        2.737820   -0.302382   -0.098677
      2          6           0        1.258841   -0.326474   -0.459830
      3          8           0        0.605457   -1.146560    0.505357
      4          6           0       -0.751570   -1.400117    0.202656
      5          6           0       -1.601791   -0.156900   -0.075326
      6          8           0       -2.798731   -0.260711   -0.229351
      7          6           0       -0.872611    1.126926   -0.237187
      8          6           0        0.120523    1.601312    0.825218
      9          6           0        0.630891    1.059716   -0.467893
     10          1           0        3.139871   -1.318662   -0.086409
     11          1           0        3.300776    0.287580   -0.828038
     12          1           0        2.881222    0.140121    0.891224
     13          1           0        1.135702   -0.779738   -1.459465
     14          1           0       -0.846930   -2.050124   -0.684448
     15          1           0       -1.176882   -1.942521    1.051348
     16          1           0       -1.452473    1.895384   -0.735735
     17          1           0        0.148433    2.671150    0.994942
     18          1           0        0.242321    0.989388    1.710410
     19          1           0        1.041530    1.753096   -1.195643
 ---------------------------------------------------------------------

 SCF Done:  E(RB3LYP) =  -423.203916551     A.U. after    1 cycles

 The electronic state is 1-A.
 Alpha  occ. eigenvalues --  -19.15198 -19.12248 -10.26618 -10.24697 -10.23648
 Alpha  occ. eigenvalues --  -10.20837 -10.20390 -10.20360 -10.18273  -1.05071
 Alpha  occ. eigenvalues --   -1.03129  -0.87669  -0.78194  -0.70731  -0.65152
 Alpha  occ. eigenvalues --   -0.64881  -0.58635  -0.54044  -0.51325  -0.49380
 Alpha  occ. eigenvalues --   -0.47601  -0.45726  -0.43414  -0.41678  -0.39876
 Alpha  occ. eigenvalues --   -0.39496  -0.38505  -0.37579  -0.36658  -0.33534
 Alpha  occ. eigenvalues --   -0.30629  -0.29404  -0.28292  -0.23119
 Alpha virt. eigenvalues --   -0.01495   0.07653   0.09996   0.10997   0.12294
 Alpha virt. eigenvalues --    0.13047   0.13650   0.16199   0.16429   0.17321
 Alpha virt. eigenvalues --    0.17745   0.18155   0.19073   0.20114   0.22292

 Mulliken charges:
               1
     1  C   -0.397475
     2  C    0.102488
     3  O   -0.258719
     4  C   -0.185714
     5  C    0.364325
     6  O   -0.325856
     7  C   -0.146462
     8  C   -0.293886
     9  C   -0.032530
    10  H    0.126828
    11  H    0.116695
    12  H    0.128630
    13  H    0.070530
    14  H    0.121104
    15  H    0.140062
    16  H    0.108020
    17  H    0.124007
    18  H    0.140882
    19  H    0.097071
 Sum of Mulliken charges =   0.00000

 Dipole moment (field-independent basis, Debye):
    X=              2.8037    Y=              1.0431    Z=             -0.5170  Tot=              3.0358
 Quadrupole moment (field-independent basis, Debye-Ang):
   XX=            -62.8658   YY=            -49.9921   ZZ=            -51.7666
   XY=              0.5993   XZ=             -2.4627   YZ=              0.2753

  Exact polarizability:  89.609   3.646  76.004  -0.031   1.121  62.595
 Approx polarizability: 128.290   7.516 105.961   2.485   1.263  99.799

                      1                      2                      3
                      A                      A                      A
 Frequencies --     76.1902               189.8969               215.5255
 Red. masses --      3.9747                 3.0888                 1.2584
 Frc consts  --      0.0136                 0.0656                 0.0344
 IR Inten    --      3.7556                 1.4359                 1.6752

                      4                      5                      6
                      A                      A                      A
 Frequencies --    230.9640               284.3264               323.1165
 Red. masses --      1.8354                 2.4951                 3.5265
 Frc consts  --      0.0577                 0.1188                 0.2169
 IR Inten    --      1.0458                 2.9944                 3.4151

                      7                      8                      9
                      A                      A                      A
 Frequencies --    410.9199               421.9922               480.7935
 Red. masses --      4.7190                 4.8581                 4.4630
 Frc consts  --      0.4695                 0.5097                 0.6079
 IR Inten    --     18.0960                 2.5685                 3.8503

                     10                     11                     12
                      A                      A                      A
 Frequencies --    583.8487               623.0569               646.7850
 Red. masses --      2.7505                 2.6526                 5.1111
 Frc consts  --      0.5524                 0.6067                 1.2597
 IR Inten    --      2.0635                 1.1175                 1.9360

                     13                     14                     15
                      A                      A                      A
 Frequencies --    748.2944               773.4187               842.3684
 Red. masses --      2.8545                 2.0788                 1.6192
 Frc consts  --      0.9417                 0.7326                 0.6769
 IR Inten    --      7.5847                 1.6879                13.0260

                     16                     17                     18
                      A                      A                      A
 Frequencies --    864.6980               928.8943               938.4825
 Red. masses --      2.0356                 2.4810                 2.2978
 Frc consts  --      0.8967                 1.2613                 1.1924
 IR Inten    --     12.3852                 6.4734                20.0470

                     19                     20                     21
                      A                      A                      A
 Frequencies --    995.3705              1018.4107              1053.9823
 Red. masses --      1.5934                 2.4358                 1.9615
 Frc consts  --      0.9301                 1.4885                 1.2838
 IR Inten    --      5.3001                 0.3732                15.8087

                     22                     23                     24
                      A                      A                      A
 Frequencies --   1068.3678              1093.0790              1118.8935
 Red. masses --      1.4789                 1.3978                 1.5891
 Frc consts  --      0.9946                 0.9840                 1.1722
 IR Inten    --      6.9284                 8.5278                35.0964

                     25                     26                     27
                      A                      A                      A
 Frequencies --   1130.9261              1147.6131              1162.7970
 Red. masses --      1.7203                 3.2492                 1.7941
 Frc consts  --      1.2963                 2.5212                 1.4292
 IR Inten    --     37.3340                44.1836                 6.4151

                     28                     29                     30
                      A                      A                      A
 Frequencies --   1194.7253              1260.1948              1274.5250
 Red. masses --      1.6277                 1.6634                 1.4195
 Frc consts  --      1.3688                 1.5564                 1.3586
 IR Inten    --      3.1982                28.7329                41.0758

                     31                     32                     33
                      A                      A                      A
 Frequencies --   1343.8830              1357.2067              1371.7440
 Red. masses --      1.6538                 1.3834                 1.6052
 Frc consts  --      1.7598                 1.5013                 1.7796
 IR Inten    --     32.4883                 4.7493                 5.3037

                     34                     35                     36
                      A                      A                      A
 Frequencies --   1379.6379              1402.2197              1409.7855
 Red. masses --      1.5740                 1.5054                 1.3761
 Frc consts  --      1.7652                 1.7439                 1.6114
 IR Inten    --     13.4434                 1.3637                13.3559

                     37                     38                     39
                      A                      A                      A
 Frequencies --   1454.9337              1479.8533              1485.0465
 Red. masses --      1.0838                 1.2980                 1.0748
 Frc consts  --      1.3517                 1.6749                 1.3965
 IR Inten    --      6.0271                 1.7605                 4.3480

                     40                     41                     42
                      A                      A                      A
 Frequencies --   1497.0334              1800.9711              2945.6786
 Red. masses --      1.0558                11.9720                 1.0822
 Frc consts  --      1.3941                22.8786                 5.5327
 IR Inten    --      3.1820               222.5601                45.0815

                     43                     44                     45
                      A                      A                      A
 Frequencies --   2965.2870              3045.6527              3098.9208
 Red. masses --      1.0707                 1.0346                 1.0901
 Frc consts  --      5.5467                 5.6542                 6.1676
 IR Inten    --     40.4466                14.7106                10.4291

                     46                     47                     48
                      A                      A                      A
 Frequencies --   3120.2603              3126.4583              3149.1639
 Red. masses --      1.1016                 1.1025                 1.0553
 Frc consts  --      6.3189                 6.3496                 6.1663
 IR Inten    --     16.6010                18.8339                 9.5106

                     49                     50                     51
                      A                      A                      A
 Frequencies --   3156.1492              3180.2231              3241.7421
 Red. masses --      1.0877                 1.0906                 1.1167
 Frc consts  --      6.3837                 6.4985                 6.9144
 IR Inten    --     11.7491                 6.1931                 2.2786

 - Thermochemistry -
 -------------------
 Temperature   298.150 Kelvin.  Pressure   1.00000 Atm.
 Atom     1 has atomic number  6 and mass  12.00000

 Molecular mass:   126.06808 amu.
 Principal axes and moments of inertia in atomic units:
                           1         2         3
     Eigenvalues --   585.428961278.374461644.23859
           X            0.99997   0.00101  -0.00797
           Y           -0.00091   0.99991   0.01308
           Z            0.00798  -0.01307   0.99988
 This molecule is an asymmetric top.
 Rotational symmetry number  1.
 Warning -- assumption of classical behavior for rotation
           may cause significant error
 Rotational temperatures (Kelvin)      0.14795     0.06775     0.05268
 Rotational constants (GHZ):           3.08277     1.41175     1.09762
 Zero-point vibrational energy     419376.7 (Joules/Mol)
                                  100.23343 (Kcal/Mol)
 Warning -- explicit consideration of  10 degrees of freedom as
           vibrations may cause significant error
 Vibrational temperatures:    109.62   273.22   310.09   332.31   409.08
          (Kelvin)            464.89   591.22   607.15   691.75   840.03
                              896.44   930.58  1076.63  1112.78  1211.98
                             1244.11  1336.47  1350.27  1432.11  1465.26
                             1516.44  1537.14  1572.69  1609.84  1627.15
                             1651.16  1673.00  1718.94  1813.14  1833.75
                             1933.55  1952.72  1973.63  1984.99  2017.48
                             2028.36  2093.32  2129.18  2136.65  2153.89
                             2591.19  4238.17  4266.38  4382.01  4458.65
                             4489.35  4498.27  4530.94  4540.99  4575.63
                             4664.14

 Zero-point correction=                           0.159732 (Hartree/Particle)
 Thermal correction to Energy=                    0.167845
 Thermal correction to Enthalpy=                  0.168789
 Thermal correction to Gibbs Free Energy=         0.127156
 Sum of electronic and zero-point Energies=           -423.044184
 Sum of electronic and thermal Energies=              -423.036072
 Sum of electronic and thermal Enthalpies=            -423.035128
 Sum of electronic and thermal Free Energies=         -423.076760

                     E (Thermal)             CV                S
                      KCal/Mol        Cal/Mol-Kelvin    Cal/Mol-Kelvin
 Total                  105.324             31.570             87.623
 Electronic               0.000              0.000              0.000
 Translational            0.889              2.981             40.409
 Rotational               0.889              2.981             28.600
 Vibrational            103.547             25.609             18.615
 Vibration     1          0.599              1.965              3.987
 Vibration     2          0.633              1.854              2.229
 Vibration     3          0.645              1.817              1.996
 Vibration     4          0.653              1.794              1.871
 Vibration     5          0.683              1.703              1.508
 Vibration     6          0.708              1.629              1.294
 Vibration     7          0.775              1.447              0.923
 Vibration     8          0.784              1.422              0.885
 Vibration     9          0.837              1.293              0.708
 Vibration    10          0.941              1.066              0.478

 Optimization completed.
    -- Stationary point found.
 Normal termination of Gaussian 09 at Tue Jan 28 04:44:36 2020.
