 Gaussian 09, Revision D.01,
 Gaussian 09:  ES64L-G09RevD.01 24-Apr-2013

 -----------------------------
 # b3lyp 6-31G(2df,p) opt Freq
 -----------------------------

 -----
 titel
 -----
 Symbolic Z-matrix:
 Charge =  0 Multiplicity = 1

 SCF Done:  E(RB3LYP) =  -423.194174998     A.U. after   14 cycles
 Optimization completed.
    -- Stationary point found.
 Normal termination of Gaussian 09 at Mon Jan 27 22:08:28 2020.

 ----------------------------------------------------------------------
 #N Geom=AllCheck Guess=TCheck SCRF=Check GenChk RB3LYP/6-31G(2df,p) Fr
 eq
 ----------------------------------------------------------------------

 Structure from the checkpoint file:  "/scratch/puck/g09_6c553538-cd79-47e6-9300-d064e72437cd/Gau-51383.chk"
 -----
 titel
 -----
 Charge =  0 Multiplicity = 1

                         Standard orientation:
 ---------------------------------------------------------------------
 Center     Atomic      Atomic             Coordinates (Angstroms)
 Number     Number       Type             X           Y           Z
 ---------------------------------------------------------------------
      1          6           0       -0.561202    1.967065   -0.562727
      2          6           0       -0.303393    0.785199    0.389202
      3          6           0       -1.439777   -0.240327    0.256349
      4          8           0       -2.569686   -0.126807    0.649104
      5          6           0       -0.853722   -1.442132   -0.493137
      6          8           0        0.434301   -1.036575   -0.920669
      7          6           0        0.895232   -0.066299    0.006704
      8          6           0        2.289445    0.412925   -0.186750
      9          6           0        1.955438   -0.491250    0.990586
     10          1           0        0.226757    2.719174   -0.465528
     11          1           0       -0.580348    1.630649   -1.603747
     12          1           0       -1.521626    2.435633   -0.331726
     13          1           0       -0.259439    1.140226    1.422289
     14          1           0       -0.813242   -2.304571    0.192065
     15          1           0       -1.459609   -1.718102   -1.360432
     16          1           0        2.845742   -0.023842   -1.008558
     17          1           0        2.508301    1.457601    0.006022
     18          1           0        2.294946   -1.519266    0.933780
     19          1           0        1.949476   -0.061534    1.987000
 ---------------------------------------------------------------------

 SCF Done:  E(RB3LYP) =  -423.194174998     A.U. after    1 cycles

 The electronic state is 1-A.
 Alpha  occ. eigenvalues --  -19.15382 -19.13959 -10.27409 -10.24675 -10.23864
 Alpha  occ. eigenvalues --  -10.20290 -10.19248 -10.18992 -10.18834  -1.06117
 Alpha  occ. eigenvalues --   -1.04367  -0.86035  -0.79244  -0.71795  -0.66859
 Alpha  occ. eigenvalues --   -0.61206  -0.56759  -0.55285  -0.50552  -0.48718
 Alpha  occ. eigenvalues --   -0.47540  -0.46072  -0.43407  -0.42358  -0.40432
 Alpha  occ. eigenvalues --   -0.39560  -0.38249  -0.37109  -0.36665  -0.34463
 Alpha  occ. eigenvalues --   -0.32522  -0.30771  -0.25158  -0.23999
 Alpha virt. eigenvalues --   -0.02453   0.08094   0.09844   0.10845   0.11717
 Alpha virt. eigenvalues --    0.12911   0.13786   0.15561   0.16356   0.16698
 Alpha virt. eigenvalues --    0.17971   0.18498   0.19668   0.21263   0.22677

 Mulliken charges:
               1
     1  C   -0.397666
     2  C   -0.196552
     3  C    0.373864
     4  O   -0.308648
     5  C   -0.195450
     6  O   -0.290299
     7  C    0.450568
     8  C   -0.339879
     9  C   -0.337034
    10  H    0.122070
    11  H    0.132176
    12  H    0.135860
    13  H    0.104383
    14  H    0.122081
    15  H    0.138511
    16  H    0.129657
    17  H    0.118469
    18  H    0.123316
    19  H    0.114574
 Sum of Mulliken charges =   0.00000

 Dipole moment (field-independent basis, Debye):
    X=              1.8253    Y=              0.4516    Z=              0.0794  Tot=              1.8820
 Quadrupole moment (field-independent basis, Debye-Ang):
   XX=            -60.5196   YY=            -50.0935   ZZ=            -53.3091
   XY=              1.4867   XZ=              3.7899   YZ=             -0.3025

  Exact polarizability:  84.832   2.264  76.149   0.378  -0.346  65.042
 Approx polarizability: 118.930   3.218 105.488  -3.951   0.962 101.042

                      1                      2                      3
                      A                      A                      A
 Frequencies --     59.6371               145.6522               196.0581
 Red. masses --      4.3607                 2.6320                 2.7231
 Frc consts  --      0.0091                 0.0329                 0.0617
 IR Inten    --      2.1957                 6.2775                 1.3995

                      4                      5                      6
                      A                      A                      A
 Frequencies --    216.8635               231.4406               279.0119
 Red. masses --      2.0689                 1.1899                 3.0639
 Frc consts  --      0.0573                 0.0376                 0.1405
 IR Inten    --      0.2577                 0.1892                 1.1784

                      7                      8                      9
                      A                      A                      A
 Frequencies --    336.7169               466.5047               486.4625
 Red. masses --      2.6731                 3.8851                 4.0398
 Frc consts  --      0.1786                 0.4982                 0.5633
 IR Inten    --      6.5061                 9.4967                 3.7433

                     10                     11                     12
                      A                      A                      A
 Frequencies --    542.5008               568.1490               644.3167
 Red. masses --      3.8611                 2.6519                 5.9052
 Frc consts  --      0.6695                 0.5044                 1.4444
 IR Inten    --      1.3311                 3.2896                 1.7239

                     13                     14                     15
                      A                      A                      A
 Frequencies --    759.2672               763.0974               784.0370
 Red. masses --      3.2156                 1.2773                 1.8296
 Frc consts  --      1.0922                 0.4382                 0.6626
 IR Inten    --      4.9575                 6.2694                 7.3501

                     16                     17                     18
                      A                      A                      A
 Frequencies --    878.1196               893.6916               943.9448
 Red. masses --      1.9439                 1.4429                 1.7698
 Frc consts  --      0.8831                 0.6790                 0.9291
 IR Inten    --     11.5638                 3.9428                 1.5962

                     19                     20                     21
                      A                      A                      A
 Frequencies --    956.6053               976.9939              1012.6231
 Red. masses --      2.2593                 2.6768                 2.3696
 Frc consts  --      1.2181                 1.5054                 1.4316
 IR Inten    --      9.3194                13.4752                 9.0221

                     22                     23                     24
                      A                      A                      A
 Frequencies --   1046.2202              1065.8503              1079.7670
 Red. masses --      1.4118                 2.0993                 1.4691
 Frc consts  --      0.9105                 1.4051                 1.0092
 IR Inten    --      3.4496                 1.2025                 3.2269

                     25                     26                     27
                      A                      A                      A
 Frequencies --   1094.9727              1105.6033              1150.7304
 Red. masses --      4.9276                 2.6241                 2.8233
 Frc consts  --      3.4809                 1.8898                 2.2027
 IR Inten    --     85.2765                10.5140                16.2275

                     28                     29                     30
                      A                      A                      A
 Frequencies --   1189.0616              1212.3461              1226.1448
 Red. masses --      1.2723                 1.2418                 1.5321
 Frc consts  --      1.0598                 1.0753                 1.3572
 IR Inten    --      0.4128                 4.1567                18.3882

                     31                     32                     33
                      A                      A                      A
 Frequencies --   1259.8160              1304.4730              1342.0385
 Red. masses --      2.1720                 1.4994                 1.5272
 Frc consts  --      2.0311                 1.5032                 1.6206
 IR Inten    --     58.7247                21.3713                 2.7387

                     34                     35                     36
                      A                      A                      A
 Frequencies --   1384.2218              1402.4777              1451.2587
 Red. masses --      1.9182                 1.2864                 1.0910
 Frc consts  --      2.1655                 1.4908                 1.3538
 IR Inten    --      5.7299                 4.0641                 2.1499

                     37                     38                     39
                      A                      A                      A
 Frequencies --   1474.8309              1493.7193              1495.9701
 Red. masses --      1.0906                 1.0953                 1.1353
 Frc consts  --      1.3976                 1.4399                 1.4969
 IR Inten    --      8.0984                 9.5002                 0.3980

                     40                     41                     42
                      A                      A                      A
 Frequencies --   1505.1157              1860.0381              2979.6332
 Red. masses --      1.3922                12.6370                 1.0695
 Frc consts  --      1.8582                25.7595                 5.5945
 IR Inten    --     16.5168               194.6135                33.9335

                     43                     44                     45
                      A                      A                      A
 Frequencies --   3042.0667              3077.3552              3095.2396
 Red. masses --      1.0336                 1.0851                 1.0915
 Frc consts  --      5.6356                 6.0547                 6.1614
 IR Inten    --     17.9897                 6.0534                12.4762

                     46                     47                     48
                      A                      A                      A
 Frequencies --   3116.4250              3123.1879              3130.4481
 Red. masses --      1.1019                 1.1025                 1.0524
 Frc consts  --      6.3055                 6.3362                 6.0765
 IR Inten    --     17.9591                15.2881                11.9573

                     49                     50                     51
                      A                      A                      A
 Frequencies --   3136.2258              3216.8893              3230.5051
 Red. masses --      1.0565                 1.1183                 1.1156
 Frc consts  --      6.1227                 6.8184                 6.8598
 IR Inten    --      6.6059                 0.2862                 9.2705

 - Thermochemistry -
 -------------------
 Temperature   298.150 Kelvin.  Pressure   1.00000 Atm.
 Atom     1 has atomic number  6 and mass  12.00000

 Molecular mass:   126.06808 amu.
 Principal axes and moments of inertia in atomic units:
                           1         2         3
     Eigenvalues --   665.808731246.480271524.28683
           X            0.99970   0.00236   0.02445
           Y           -0.00152   0.99941  -0.03417
           Z           -0.02452   0.03412   0.99912
 This molecule is an asymmetric top.
 Rotational symmetry number  1.
 Warning -- assumption of classical behavior for rotation
           may cause significant error
 Rotational temperatures (Kelvin)      0.13009     0.06949     0.05682
 Rotational constants (GHZ):           2.71060     1.44787     1.18399
 Zero-point vibrational energy     415309.5 (Joules/Mol)
                                   99.26135 (Kcal/Mol)
 Warning -- explicit consideration of  11 degrees of freedom as
           vibrations may cause significant error
 Vibrational temperatures:     85.80   209.56   282.08   312.02   332.99
          (Kelvin)            401.44   484.46   671.20   699.91   780.54
                              817.44   927.03  1092.41  1097.93  1128.05
                             1263.42  1285.82  1358.12  1376.34  1405.67
                             1456.94  1505.28  1533.52  1553.54  1575.42
                             1590.71  1655.64  1710.79  1744.29  1764.15
                             1812.59  1876.84  1930.89  1991.58  2017.85
                             2088.03  2121.95  2149.13  2152.36  2165.52
                             2676.18  4287.02  4376.85  4427.62  4453.35
                             4483.83  4493.57  4504.01  4512.32  4628.38
                             4647.97

 Zero-point correction=                           0.158183 (Hartree/Particle)
 Thermal correction to Energy=                    0.166738
 Thermal correction to Enthalpy=                  0.167682
 Thermal correction to Gibbs Free Energy=         0.124908
 Sum of electronic and zero-point Energies=           -423.035992
 Sum of electronic and thermal Energies=              -423.027437
 Sum of electronic and thermal Enthalpies=            -423.026493
 Sum of electronic and thermal Free Energies=         -423.069267

                     E (Thermal)             CV                S
                      KCal/Mol        Cal/Mol-Kelvin    Cal/Mol-Kelvin
 Total                  104.629             32.610             90.026
 Electronic               0.000              0.000              0.000
 Translational            0.889              2.981             40.409
 Rotational               0.889              2.981             28.627
 Vibrational            102.852             26.649             20.990
 Vibration     1          0.597              1.974              4.469
 Vibration     2          0.617              1.907              2.728
 Vibration     3          0.636              1.845              2.170
 Vibration     4          0.646              1.815              1.985
 Vibration     5          0.653              1.793              1.868
 Vibration     6          0.679              1.712              1.540
 Vibration     7          0.717              1.602              1.228
 Vibration     8          0.824              1.324              0.747
 Vibration     9          0.842              1.280              0.693
 Vibration    10          0.898              1.156              0.560
 Vibration    11          0.924              1.100              0.508

 Optimization completed.
    -- Stationary point found.
 Normal termination of Gaussian 09 at Mon Jan 27 23:50:47 2020.
