 Gaussian 09, Revision D.01,
 Gaussian 09:  ES64L-G09RevD.01 24-Apr-2013

 -----------------------------
 # b3lyp 6-31G(2df,p) opt Freq
 -----------------------------

 -----
 titel
 -----
 Symbolic Z-matrix:
 Charge =  0 Multiplicity = 1

 SCF Done:  E(RB3LYP) =  -423.168746430     A.U. after   14 cycles
 Optimization completed.
    -- Stationary point found.
 Normal termination of Gaussian 09 at Tue Jan 28 12:40:16 2020.

 ----------------------------------------------------------------------
 #N Geom=AllCheck Guess=TCheck SCRF=Check GenChk RB3LYP/6-31G(2df,p) Fr
 eq
 ----------------------------------------------------------------------

 Structure from the checkpoint file:  "/scratch/puck/g09_a8aebc70-3e9b-4975-b50c-7832ebea87b5/Gau-116167.chk"
 -----
 titel
 -----
 Charge =  0 Multiplicity = 1

                         Standard orientation:
 ---------------------------------------------------------------------
 Center     Atomic      Atomic             Coordinates (Angstroms)
 Number     Number       Type             X           Y           Z
 ---------------------------------------------------------------------
      1          6           0       -0.255758    1.997277    0.097200
      2          6           0        0.226388    0.766039   -0.687244
      3          6           0        1.691910    0.424650   -0.410410
      4          8           0        1.964873    0.090414    0.952840
      5          6           0        1.774623   -0.985513   -0.000429
      6          6           0        0.379075   -1.510410   -0.016261
      7          6           0       -0.487127   -0.546833   -0.357331
      8          6           0       -1.979291   -0.700827   -0.402243
      9          8           0       -2.649523    0.029651    0.624468
     10          1           0        0.266614    2.896206   -0.246133
     11          1           0       -1.329861    2.149081   -0.019788
     12          1           0       -0.042963    1.864426    1.161447
     13          1           0        0.106963    0.967878   -1.762390
     14          1           0        2.490352    0.949488   -0.929281
     15          1           0        2.641762   -1.619428   -0.156853
     16          1           0        0.116710   -2.531969    0.234835
     17          1           0       -2.380279   -0.302246   -1.341733
     18          1           0       -2.238373   -1.769657   -0.361094
     19          1           0       -2.252645   -0.230604    1.462832
 ---------------------------------------------------------------------

 SCF Done:  E(RB3LYP) =  -423.168746430     A.U. after    1 cycles

 The electronic state is 1-A.
 Alpha  occ. eigenvalues --  -19.14639 -19.13949 -10.23597 -10.23440 -10.23221
 Alpha  occ. eigenvalues --  -10.19727 -10.19394 -10.18806 -10.17140  -1.06606
 Alpha  occ. eigenvalues --   -1.01834  -0.83172  -0.75112  -0.70955  -0.65917
 Alpha  occ. eigenvalues --   -0.63154  -0.57455  -0.53863  -0.52823  -0.48645
 Alpha  occ. eigenvalues --   -0.45117  -0.44656  -0.43971  -0.41312  -0.40240
 Alpha  occ. eigenvalues --   -0.38714  -0.37632  -0.35545  -0.33984  -0.33298
 Alpha  occ. eigenvalues --   -0.30718  -0.27689  -0.26000  -0.24412
 Alpha virt. eigenvalues --   -0.00985   0.08795   0.10007   0.11633   0.12474
 Alpha virt. eigenvalues --    0.12691   0.14672   0.15271   0.16339   0.16704
 Alpha virt. eigenvalues --    0.17366   0.17834   0.18769   0.20946   0.22122

 Mulliken charges:
               1
     1  C   -0.397489
     2  C   -0.113546
     3  C    0.032304
     4  O   -0.260394
     5  C    0.002537
     6  C   -0.199660
     7  C    0.268306
     8  C   -0.165646
     9  O   -0.405499
    10  H    0.108534
    11  H    0.137080
    12  H    0.128700
    13  H    0.083032
    14  H    0.093546
    15  H    0.097284
    16  H    0.099205
    17  H    0.111708
    18  H    0.095210
    19  H    0.284788
 Sum of Mulliken charges =   0.00000

 Dipole moment (field-independent basis, Debye):
    X=              0.3873    Y=             -1.1552    Z=             -1.3565  Tot=              1.8234
 Quadrupole moment (field-independent basis, Debye-Ang):
   XX=            -58.3375   YY=            -50.0459   ZZ=            -52.3269
   XY=              0.9620   XZ=             -3.3564   YZ=             -2.0599

  Exact polarizability:  86.435  -4.201  82.848   1.444  -3.808  60.156
 Approx polarizability: 121.081 -12.488 123.832   7.197  -7.615  99.895

                      1                      2                      3
                      A                      A                      A
 Frequencies --     69.4869               132.4178               184.8550
 Red. masses --      3.8459                 3.2966                 3.5389
 Frc consts  --      0.0109                 0.0341                 0.0712
 IR Inten    --      2.8380                 0.7514                 0.7726

                      4                      5                      6
                      A                      A                      A
 Frequencies --    225.4154               241.2760               311.7047
 Red. masses --      1.3283                 1.8979                 1.7642
 Frc consts  --      0.0398                 0.0651                 0.1010
 IR Inten    --      2.4327                 6.1128                33.3826

                      7                      8                      9
                      A                      A                      A
 Frequencies --    341.1317               386.9517               458.3029
 Red. masses --      3.0822                 1.5793                 5.6632
 Frc consts  --      0.2113                 0.1393                 0.7008
 IR Inten    --      4.6918                98.2800                 6.0122

                     10                     11                     12
                      A                      A                      A
 Frequencies --    484.2950               632.3849               685.6270
 Red. masses --      2.7341                 3.6421                 4.4151
 Frc consts  --      0.3778                 0.8582                 1.2228
 IR Inten    --      0.9249                 9.4475                 3.5479

                     13                     14                     15
                      A                      A                      A
 Frequencies --    724.6132               790.3385               828.9528
 Red. masses --      4.2414                 2.6309                 4.1374
 Frc consts  --      1.3121                 0.9682                 1.6751
 IR Inten    --      3.0251                 3.0307                 6.8332

                     16                     17                     18
                      A                      A                      A
 Frequencies --    854.2978               870.0943               913.7301
 Red. masses --      2.2640                 1.6671                 2.4837
 Frc consts  --      0.9735                 0.7436                 1.2218
 IR Inten    --     11.5068                30.7589                17.2429

                     19                     20                     21
                      A                      A                      A
 Frequencies --    957.8049               993.1633              1017.9330
 Red. masses --      1.7866                 1.8751                 1.4430
 Frc consts  --      0.9657                 1.0897                 0.8809
 IR Inten    --     19.6344                14.7141                 6.1753

                     22                     23                     24
                      A                      A                      A
 Frequencies --   1028.7871              1053.2742              1097.5381
 Red. masses --      2.5723                 2.7707                 1.8013
 Frc consts  --      1.6041                 1.8110                 1.2784
 IR Inten    --     30.0446                31.8231                 0.4062

                     25                     26                     27
                      A                      A                      A
 Frequencies --   1112.2036              1119.3917              1184.8590
 Red. masses --      1.4954                 1.7438                 1.6756
 Frc consts  --      1.0899                 1.2874                 1.3860
 IR Inten    --      3.6750                 3.4862                29.9030

                     28                     29                     30
                      A                      A                      A
 Frequencies --   1202.5874              1253.7444              1289.8314
 Red. masses --      1.3865                 1.4265                 1.3007
 Frc consts  --      1.1814                 1.3212                 1.2749
 IR Inten    --      6.3264                 5.1400                 2.8589

                     31                     32                     33
                      A                      A                      A
 Frequencies --   1305.4549              1322.2907              1349.8205
 Red. masses --      1.6585                 1.6767                 1.6834
 Frc consts  --      1.6653                 1.7272                 1.8071
 IR Inten    --      0.8582                 0.9472                 6.7640

                     34                     35                     36
                      A                      A                      A
 Frequencies --   1369.3762              1400.7248              1417.8380
 Red. masses --      1.4120                 1.5879                 1.4596
 Frc consts  --      1.5601                 1.8356                 1.7288
 IR Inten    --      1.8164                 9.0410                34.2185

                     37                     38                     39
                      A                      A                      A
 Frequencies --   1423.8249              1489.0732              1501.3884
 Red. masses --      1.5221                 1.0456                 1.0887
 Frc consts  --      1.8180                 1.3660                 1.4459
 IR Inten    --     30.6120                 7.1148                 1.0820

                     40                     41                     42
                      A                      A                      A
 Frequencies --   1507.6481              1685.6592              2988.5786
 Red. masses --      1.0572                 7.5904                 1.0668
 Frc consts  --      1.4158                12.7074                 5.6138
 IR Inten    --      3.8681                 2.8391                59.3498

                     43                     44                     45
                      A                      A                      A
 Frequencies --   2995.4838              3043.5373              3055.7548
 Red. masses --      1.0817                 1.0373                 1.0953
 Frc consts  --      5.7186                 5.6611                 6.0257
 IR Inten    --     24.9539                27.4927                26.9530

                     46                     47                     48
                      A                      A                      A
 Frequencies --   3113.1618              3140.5462              3141.9411
 Red. masses --      1.0999                 1.0906                 1.1000
 Frc consts  --      6.2808                 6.3379                 6.3977
 IR Inten    --     19.9291                25.1737                 9.5419

                     49                     50                     51
                      A                      A                      A
 Frequencies --   3166.7281              3196.2752              3808.2305
 Red. masses --      1.0921                 1.0954                 1.0662
 Frc consts  --      6.4526                 6.5936                 9.1106
 IR Inten    --     34.1792                13.5196                16.9782

 - Thermochemistry -
 -------------------
 Temperature   298.150 Kelvin.  Pressure   1.00000 Atm.
 Atom     1 has atomic number  6 and mass  12.00000

 Molecular mass:   126.06808 amu.
 Principal axes and moments of inertia in atomic units:
                           1         2         3
     Eigenvalues --   636.190791327.562361666.72207
           X            0.99996   0.00441  -0.00770
           Y           -0.00448   0.99995  -0.00892
           Z            0.00766   0.00896   0.99993
 This molecule is an asymmetric top.
 Rotational symmetry number  1.
 Warning -- assumption of classical behavior for rotation
           may cause significant error
 Rotational temperatures (Kelvin)      0.13614     0.06524     0.05197
 Rotational constants (GHZ):           2.83679     1.35944     1.08281
 Zero-point vibrational energy     417917.4 (Joules/Mol)
                                   99.88465 (Kcal/Mol)
 Warning -- explicit consideration of  10 degrees of freedom as
           vibrations may cause significant error
 Vibrational temperatures:     99.98   190.52   265.96   324.32   347.14
          (Kelvin)            448.47   490.81   556.74   659.39   696.79
                              909.86   986.46  1042.56  1137.12  1192.68
                             1229.14  1251.87  1314.65  1378.07  1428.94
                             1464.58  1480.19  1515.42  1579.11  1600.21
                             1610.55  1704.75  1730.25  1803.86  1855.78
                             1878.26  1902.48  1942.09  1970.22  2015.33
                             2039.95  2048.56  2142.44  2160.16  2169.17
                             2425.28  4299.89  4309.83  4378.97  4396.54
                             4479.14  4518.54  4520.55  4556.21  4598.72
                             5479.19

 Zero-point correction=                           0.159176 (Hartree/Particle)
 Thermal correction to Energy=                    0.167755
 Thermal correction to Enthalpy=                  0.168699
 Thermal correction to Gibbs Free Energy=         0.125904
 Sum of electronic and zero-point Energies=           -423.009570
 Sum of electronic and thermal Energies=              -423.000992
 Sum of electronic and thermal Enthalpies=            -423.000047
 Sum of electronic and thermal Free Energies=         -423.042843

                     E (Thermal)             CV                S
                      KCal/Mol        Cal/Mol-Kelvin    Cal/Mol-Kelvin
 Total                  105.268             32.616             90.071
 Electronic               0.000              0.000              0.000
 Translational            0.889              2.981             40.409
 Rotational               0.889              2.981             28.733
 Vibrational            103.490             26.654             20.929
 Vibration     1          0.598              1.969              4.168
 Vibration     2          0.613              1.921              2.911
 Vibration     3          0.631              1.861              2.279
 Vibration     4          0.650              1.802              1.915
 Vibration     5          0.658              1.777              1.793
 Vibration     6          0.700              1.651              1.353
 Vibration     7          0.721              1.593              1.207
 Vibration     8          0.755              1.498              1.012
 Vibration     9          0.816              1.343              0.771
 Vibration    10          0.840              1.285              0.699

 Optimization completed.
    -- Stationary point found.
 Normal termination of Gaussian 09 at Tue Jan 28 13:23:05 2020.
