 Gaussian 09, Revision D.01,
 Gaussian 09:  ES64L-G09RevD.01 24-Apr-2013

 -----------------------------
 # b3lyp 6-31G(2df,p) opt Freq
 -----------------------------

 -----
 titel
 -----
 Symbolic Z-matrix:
 Charge =  0 Multiplicity = 1

 SCF Done:  E(RB3LYP) =  -423.157991356     A.U. after   12 cycles
 Optimization completed.
    -- Stationary point found.
 Normal termination of Gaussian 09 at Mon Jan 27 18:18:24 2020.

 ----------------------------------------------------------------------
 #N Geom=AllCheck Guess=TCheck SCRF=Check GenChk RB3LYP/6-31G(2df,p) Fr
 eq
 ----------------------------------------------------------------------

 Structure from the checkpoint file:  "/scratch/puck/g09_627d837a-ccad-437e-b307-0e652fc82f51/Gau-53220.chk"
 -----
 titel
 -----
 Charge =  0 Multiplicity = 1

                         Standard orientation:
 ---------------------------------------------------------------------
 Center     Atomic      Atomic             Coordinates (Angstroms)
 Number     Number       Type             X           Y           Z
 ---------------------------------------------------------------------
      1          6           0       -1.534762    1.689815    0.126453
      2          6           0       -0.366878    0.742294   -0.001096
      3          6           0        0.925500    1.249601   -0.643418
      4          8           0        1.981720    0.468561   -0.078083
      5          6           0        1.367945   -0.651940    0.542872
      6          6           0        0.592831   -1.529081   -0.498111
      7          6           0       -0.657946   -0.741066   -0.117941
      8          8           0       -1.959406   -1.148147   -0.334433
      9          6           0        0.023223   -0.178016    1.136733
     10          1           0       -1.251768    2.582023    0.695669
     11          1           0       -1.883373    2.017322   -0.859430
     12          1           0       -2.378847    1.210182    0.625821
     13          1           0        0.917447    1.148740   -1.737968
     14          1           0        1.101375    2.305041   -0.400756
     15          1           0        2.103372   -1.146745    1.174662
     16          1           0        0.952543   -1.506199   -1.532276
     17          1           0        0.515972   -2.569115   -0.161118
     18          1           0       -2.070337   -2.023241    0.054099
     19          1           0       -0.284369   -0.070959    2.168469
 ---------------------------------------------------------------------

 SCF Done:  E(RB3LYP) =  -423.157991356     A.U. after    1 cycles

 The electronic state is 1-A.
 Alpha  occ. eigenvalues --  -19.15386 -19.13019 -10.24301 -10.23401 -10.22088
 Alpha  occ. eigenvalues --  -10.19794 -10.18200 -10.18136 -10.17809  -1.04383
 Alpha  occ. eigenvalues --   -1.02999  -0.88019  -0.77044  -0.68885  -0.67816
 Alpha  occ. eigenvalues --   -0.62617  -0.56528  -0.54827  -0.51437  -0.47629
 Alpha  occ. eigenvalues --   -0.46568  -0.44710  -0.41660  -0.40822  -0.39699
 Alpha  occ. eigenvalues --   -0.39122  -0.38424  -0.37848  -0.34231  -0.32545
 Alpha  occ. eigenvalues --   -0.30449  -0.26722  -0.24180  -0.23622
 Alpha virt. eigenvalues --    0.06955   0.10226   0.10810   0.11280   0.12183
 Alpha virt. eigenvalues --    0.15022   0.15088   0.15935   0.16151   0.17410
 Alpha virt. eigenvalues --    0.18009   0.19172   0.19689   0.20956   0.22291

 Mulliken charges:
               1
     1  C   -0.489630
     2  C    0.260443
     3  C   -0.146682
     4  O   -0.263541
     5  C    0.083237
     6  C   -0.322656
     7  C    0.343077
     8  O   -0.459176
     9  C   -0.223135
    10  H    0.116049
    11  H    0.123624
    12  H    0.133004
    13  H    0.096591
    14  H    0.100314
    15  H    0.084705
    16  H    0.100078
    17  H    0.089742
    18  H    0.285452
    19  H    0.088501
 Sum of Mulliken charges =   0.00000

 Dipole moment (field-independent basis, Debye):
    X=             -1.0441    Y=             -1.1329    Z=              0.8824  Tot=              1.7755
 Quadrupole moment (field-independent basis, Debye-Ang):
   XX=            -58.9362   YY=            -47.2361   ZZ=            -52.0847
   XY=             -0.0989   XZ=             -1.3856   YZ=             -2.0818

  Exact polarizability:  74.328  -1.846  82.260  -0.093  -1.729  66.641
 Approx polarizability: 107.260   1.624 114.735   2.925  -3.070 105.174

                      1                      2                      3
                      A                      A                      A
 Frequencies --    176.4506               203.7974               208.7715
 Red. masses --      1.1293                 2.5097                 2.6516
 Frc consts  --      0.0207                 0.0614                 0.0681
 IR Inten    --      0.6738                 0.0747                 1.0255

                      4                      5                      6
                      A                      A                      A
 Frequencies --    272.0925               295.8420               339.9546
 Red. masses --      2.6114                 1.4342                 1.9059
 Frc consts  --      0.1139                 0.0740                 0.1298
 IR Inten    --      9.8098                44.4909                37.4761

                      7                      8                      9
                      A                      A                      A
 Frequencies --    382.2453               446.8212               466.2804
 Red. masses --      3.3938                 3.4432                 2.0683
 Frc consts  --      0.2922                 0.4050                 0.2649
 IR Inten    --     17.3289                 1.8884                 1.2315

                     10                     11                     12
                      A                      A                      A
 Frequencies --    599.3197               619.8018               697.5013
 Red. masses --      5.4187                 3.7970                 3.5199
 Frc consts  --      1.1467                 0.8594                 1.0090
 IR Inten    --      0.6060                 2.9096                 4.6347

                     13                     14                     15
                      A                      A                      A
 Frequencies --    729.1815               784.7871               853.3425
 Red. masses --      3.2626                 4.2144                 2.4280
 Frc consts  --      1.0221                 1.5293                 1.0417
 IR Inten    --      5.0931                 3.6777                 7.2930

                     16                     17                     18
                      A                      A                      A
 Frequencies --    884.0200               907.6489               941.6498
 Red. masses --      2.1881                 1.4521                 2.0852
 Frc consts  --      1.0075                 0.7048                 1.0894
 IR Inten    --      7.8714                 5.8533                 3.9968

                     19                     20                     21
                      A                      A                      A
 Frequencies --    958.2968               981.0007              1008.7642
 Red. masses --      2.9169                 2.0829                 1.6504
 Frc consts  --      1.5782                 1.1810                 0.9895
 IR Inten    --     48.9191                 2.5073                 4.2843

                     22                     23                     24
                      A                      A                      A
 Frequencies --   1031.0481              1067.0673              1082.3467
 Red. masses --      2.6238                 2.2823                 2.4589
 Frc consts  --      1.6434                 1.5311                 1.6972
 IR Inten    --     31.2520                 5.3798                62.0513

                     25                     26                     27
                      A                      A                      A
 Frequencies --   1123.2637              1135.6791              1172.0805
 Red. masses --      1.7283                 1.7719                 1.6879
 Frc consts  --      1.2848                 1.3464                 1.3662
 IR Inten    --      9.0836                17.1874                 9.1777

                     28                     29                     30
                      A                      A                      A
 Frequencies --   1211.8775              1216.4056              1234.3993
 Red. masses --      1.6214                 1.4906                 1.7075
 Frc consts  --      1.4030                 1.2994                 1.5330
 IR Inten    --     10.9389                 8.4665                13.3335

                     31                     32                     33
                      A                      A                      A
 Frequencies --   1264.7734              1293.9171              1299.5662
 Red. masses --      1.9718                 1.5569                 1.8660
 Frc consts  --      1.8584                 1.5358                 1.8567
 IR Inten    --     16.4782               109.2976                25.9295

                     34                     35                     36
                      A                      A                      A
 Frequencies --   1352.3673              1380.4547              1417.2563
 Red. masses --      1.9887                 1.6703                 1.3498
 Frc consts  --      2.1429                 1.8754                 1.5975
 IR Inten    --     20.6551                23.1594                 0.6115

                     37                     38                     39
                      A                      A                      A
 Frequencies --   1446.2002              1489.2675              1493.0636
 Red. masses --      2.1202                 1.0545                 1.1330
 Frc consts  --      2.6127                 1.3780                 1.4881
 IR Inten    --      5.9903                 4.5191                 0.3870

                     40                     41                     42
                      A                      A                      A
 Frequencies --   1505.4277              1525.1048              2999.2462
 Red. masses --      1.1900                 1.1069                 1.0613
 Frc consts  --      1.5889                 1.5168                 5.6248
 IR Inten    --      8.8655                 1.9778                60.0094

                     43                     44                     45
                      A                      A                      A
 Frequencies --   3030.7986              3033.0235              3042.2659
 Red. masses --      1.0526                 1.0441                 1.1005
 Frc consts  --      5.6966                 5.6592                 6.0010
 IR Inten    --     57.3122                12.9363                54.1043

                     46                     47                     48
                      A                      A                      A
 Frequencies --   3083.6222              3088.3433              3129.6850
 Red. masses --      1.1081                 1.1010                 1.0981
 Frc consts  --      6.2080                 6.1873                 6.3369
 IR Inten    --     29.1052                23.0439                11.7954

                     49                     50                     51
                      A                      A                      A
 Frequencies --   3135.3494              3203.6061              3790.9050
 Red. masses --      1.0907                 1.0953                 1.0659
 Frc consts  --      6.3170                 6.6229                 9.0248
 IR Inten    --     33.5432                 6.8598                19.8848

 - Thermochemistry -
 -------------------
 Temperature   298.150 Kelvin.  Pressure   1.00000 Atm.
 Atom     1 has atomic number  6 and mass  12.00000

 Molecular mass:   126.06808 amu.
 Principal axes and moments of inertia in atomic units:
                           1         2         3
     Eigenvalues --   712.05713 937.820571345.99951
           X            0.99319  -0.11564  -0.01415
           Y            0.11554   0.99327  -0.00761
           Z            0.01494   0.00592   0.99987
 This molecule is an asymmetric top.
 Rotational symmetry number  1.
 Warning -- assumption of classical behavior for rotation
           may cause significant error
 Rotational temperatures (Kelvin)      0.12164     0.09236     0.06435
 Rotational constants (GHZ):           2.53455     1.92440     1.34082
 Zero-point vibrational energy     418908.2 (Joules/Mol)
                                  100.12146 (Kcal/Mol)
 Warning -- explicit consideration of  11 degrees of freedom as
           vibrations may cause significant error
 Vibrational temperatures:    253.87   293.22   300.38   391.48   425.65
          (Kelvin)            489.12   549.97   642.88   670.87   862.29
                              891.76  1003.55  1049.13  1129.13  1227.77
                             1271.91  1305.90  1354.82  1378.77  1411.44
                             1451.38  1483.45  1535.27  1557.25  1616.12
                             1633.99  1686.36  1743.62  1750.13  1776.02
                             1819.72  1861.66  1869.78  1945.75  1986.16
                             2039.11  2080.76  2142.72  2148.18  2165.97
                             2194.28  4315.24  4360.64  4363.84  4377.14
                             4436.64  4443.43  4502.91  4511.06  4609.27
                             5454.26

 Zero-point correction=                           0.159554 (Hartree/Particle)
 Thermal correction to Energy=                    0.167414
 Thermal correction to Enthalpy=                  0.168358
 Thermal correction to Gibbs Free Energy=         0.127841
 Sum of electronic and zero-point Energies=           -422.998438
 Sum of electronic and thermal Energies=              -422.990578
 Sum of electronic and thermal Enthalpies=            -422.989634
 Sum of electronic and thermal Free Energies=         -423.030150

                     E (Thermal)             CV                S
                      KCal/Mol        Cal/Mol-Kelvin    Cal/Mol-Kelvin
 Total                  105.054             31.672             85.275
 Electronic               0.000              0.000              0.000
 Translational            0.889              2.981             40.409
 Rotational               0.889              2.981             28.288
 Vibrational            103.276             25.710             16.579
 Vibration     1          0.628              1.871              2.366
 Vibration     2          0.639              1.834              2.099
 Vibration     3          0.642              1.827              2.054
 Vibration     4          0.675              1.725              1.583
 Vibration     5          0.690              1.681              1.440
 Vibration     6          0.720              1.596              1.212
 Vibration     7          0.752              1.508              1.030
 Vibration     8          0.806              1.368              0.805
 Vibration     9          0.824              1.325              0.748
 Vibration    10          0.957              1.033              0.451
 Vibration    11          0.980              0.990              0.417

 Normal termination of Gaussian 09 at Mon Jan 27 19:04:03 2020.
