 Gaussian 09, Revision D.01,
 Gaussian 09:  ES64L-G09RevD.01 24-Apr-2013

 -----------------------------
 # b3lyp 6-31G(2df,p) opt Freq
 -----------------------------

 -----
 titel
 -----
 Symbolic Z-matrix:
 Charge =  0 Multiplicity = 1

 SCF Done:  E(RB3LYP) =  -423.124446726     A.U. after   13 cycles
 Optimization completed.
    -- Stationary point found.
 Normal termination of Gaussian 09 at Mon Jan 27 18:37:14 2020.

 ----------------------------------------------------------------------
 #N Geom=AllCheck Guess=TCheck SCRF=Check GenChk RB3LYP/6-31G(2df,p) Fr
 eq
 ----------------------------------------------------------------------

 Structure from the checkpoint file:  "/scratch/puck/g09_ac0aa7cf-f871-4a15-8d0f-6e925b59f648/Gau-75819.chk"
 -----
 titel
 -----
 Charge =  0 Multiplicity = 1

                         Standard orientation:
 ---------------------------------------------------------------------
 Center     Atomic      Atomic             Coordinates (Angstroms)
 Number     Number       Type             X           Y           Z
 ---------------------------------------------------------------------
      1          8           0        0.278493    1.898805    0.171598
      2          6           0        0.362400    0.620818   -0.374765
      3          6           0        1.856623    0.180458   -0.480392
      4          6           0        1.650701   -0.773677    0.755641
      5          6           0        0.141289   -0.686754    0.496068
      6          6           0       -0.384397   -1.344081   -0.831823
      7          6           0       -0.892315    0.076317   -1.075779
      8          8           0       -1.852058    0.241667    0.029534
      9          6           0       -1.158774   -0.356358    1.189515
     10          1           0       -0.664181    2.062233    0.316134
     11          1           0        2.139621   -0.326656   -1.403365
     12          1           0        2.533672    1.019585   -0.318269
     13          1           0        2.109925   -1.764658    0.718367
     14          1           0        1.944754   -0.279464    1.685318
     15          1           0        0.402330   -1.675587   -1.507169
     16          1           0       -1.152239   -2.112610   -0.728488
     17          1           0       -1.373143    0.452706   -1.980352
     18          1           0       -1.052909    0.397601    1.976798
     19          1           0       -1.752464   -1.197273    1.561181
 ---------------------------------------------------------------------

 SCF Done:  E(RB3LYP) =  -423.124446726     A.U. after    1 cycles

 The electronic state is 1-A.
 Alpha  occ. eigenvalues --  -19.14060 -19.13959 -10.23633 -10.23154 -10.22973
 Alpha  occ. eigenvalues --  -10.19387 -10.19302 -10.19091 -10.18602  -1.04956
 Alpha  occ. eigenvalues --   -1.00831  -0.86356  -0.75487  -0.72132  -0.65197
 Alpha  occ. eigenvalues --   -0.62620  -0.57259  -0.54437  -0.51499  -0.49394
 Alpha  occ. eigenvalues --   -0.46567  -0.45796  -0.41611  -0.40554  -0.39583
 Alpha  occ. eigenvalues --   -0.37534  -0.37101  -0.35176  -0.33754  -0.32801
 Alpha  occ. eigenvalues --   -0.31695  -0.29640  -0.25727  -0.22484
 Alpha virt. eigenvalues --    0.07844   0.08896   0.09599   0.12012   0.12408
 Alpha virt. eigenvalues --    0.13476   0.14098   0.14413   0.15911   0.17068
 Alpha virt. eigenvalues --    0.17433   0.19390   0.19895   0.20482   0.21196

 Mulliken charges:
               1
     1  O   -0.486902
     2  C    0.466684
     3  C   -0.315817
     4  C   -0.328695
     5  C    0.221120
     6  C   -0.273820
     7  C   -0.015643
     8  O   -0.319886
     9  C   -0.185860
    10  H    0.290060
    11  H    0.112012
    12  H    0.121371
    13  H    0.100720
    14  H    0.117699
    15  H    0.107259
    16  H    0.105705
    17  H    0.073477
    18  H    0.105130
    19  H    0.105385
 Sum of Mulliken charges =   0.00000

 Dipole moment (field-independent basis, Debye):
    X=              0.6581    Y=             -1.3596    Z=             -0.0494  Tot=              1.5113
 Quadrupole moment (field-independent basis, Debye-Ang):
   XX=            -55.4432   YY=            -54.2544   ZZ=            -50.5804
   XY=             -1.6109   XZ=             -0.8147   YZ=              0.2503

  Exact polarizability:  79.722   0.325  71.555  -0.570   0.660  71.353
 Approx polarizability: 115.458  -0.044 110.426  -0.908   0.235 108.337

                      1                      2                      3
                      A                      A                      A
 Frequencies --    227.5215               261.0968               303.5727
 Red. masses --      2.1901                 4.0754                 3.5096
 Frc consts  --      0.0668                 0.1637                 0.1906
 IR Inten    --      1.0847                 1.3129                 2.8459

                      4                      5                      6
                      A                      A                      A
 Frequencies --    350.3570               406.3189               483.5971
 Red. masses --      2.8547                 2.5801                 2.2024
 Frc consts  --      0.2065                 0.2510                 0.3035
 IR Inten    --     10.5406                 2.5260                 4.5894

                      7                      8                      9
                      A                      A                      A
 Frequencies --    507.3320               555.5740               573.2906
 Red. masses --      2.4665                 1.4739                 2.4159
 Frc consts  --      0.3740                 0.2680                 0.4678
 IR Inten    --     15.2953                44.9683                20.8272

                     10                     11                     12
                      A                      A                      A
 Frequencies --    643.6131               687.0931               746.0084
 Red. masses --      3.2667                 2.5198                 2.6306
 Frc consts  --      0.7973                 0.7009                 0.8626
 IR Inten    --      5.9042                 1.7202                 6.1304

                     13                     14                     15
                      A                      A                      A
 Frequencies --    798.4190               833.8089               850.3404
 Red. masses --      2.0726                 4.3654                 4.7651
 Frc consts  --      0.7784                 1.7882                 2.0301
 IR Inten    --      6.8757                28.0478                19.0313

                     16                     17                     18
                      A                      A                      A
 Frequencies --    856.5832               902.8940               917.4547
 Red. masses --      3.2936                 2.4252                 3.4077
 Frc consts  --      1.4239                 1.1649                 1.6900
 IR Inten    --      5.8832                10.0093                 2.7011

                     19                     20                     21
                      A                      A                      A
 Frequencies --    955.0459               969.5023               981.5798
 Red. masses --      2.4132                 1.5395                 2.3928
 Frc consts  --      1.2969                 0.8526                 1.3583
 IR Inten    --     14.6463                 1.6921                18.0490

                     22                     23                     24
                      A                      A                      A
 Frequencies --   1035.0397              1048.7406              1092.3481
 Red. masses --      1.4839                 1.6649                 1.9336
 Frc consts  --      0.9366                 1.0789                 1.3594
 IR Inten    --     11.8765                15.2231                43.5736

                     25                     26                     27
                      A                      A                      A
 Frequencies --   1104.9130              1161.5389              1189.3140
 Red. masses --      1.6584                 1.5800                 1.5159
 Frc consts  --      1.1928                 1.2560                 1.2634
 IR Inten    --     13.7674                11.5757                11.9069

                     28                     29                     30
                      A                      A                      A
 Frequencies --   1199.3775              1220.7909              1230.1762
 Red. masses --      1.6021                 1.4647                 1.5836
 Frc consts  --      1.3578                 1.2862                 1.4120
 IR Inten    --      5.3276                 3.5961                21.9802

                     31                     32                     33
                      A                      A                      A
 Frequencies --   1235.0981              1253.3006              1259.3337
 Red. masses --      1.4987                 1.3641                 1.4818
 Frc consts  --      1.3470                 1.2624                 1.3846
 IR Inten    --      1.1670                11.7730                 5.3100

                     34                     35                     36
                      A                      A                      A
 Frequencies --   1303.4050              1309.6372              1366.2984
 Red. masses --      1.8147                 2.6330                 2.0984
 Frc consts  --      1.8164                 2.6608                 2.3080
 IR Inten    --      2.9143                45.5831                14.7027

                     37                     38                     39
                      A                      A                      A
 Frequencies --   1396.1704              1465.3923              1484.3152
 Red. masses --      1.6609                 1.0952                 1.1251
 Frc consts  --      1.9075                 1.3857                 1.4605
 IR Inten    --     78.6908                 2.0793                 1.7882

                     40                     41                     42
                      A                      A                      A
 Frequencies --   1499.2027              1525.1823              3036.7120
 Red. masses --      1.1086                 1.1074                 1.0553
 Frc consts  --      1.4681                 1.5178                 5.7336
 IR Inten    --      7.9386                 1.1340                63.3234

                     43                     44                     45
                      A                      A                      A
 Frequencies --   3059.8358              3082.3263              3085.2851
 Red. masses --      1.0576                 1.1057                 1.0637
 Frc consts  --      5.8340                 6.1892                 5.9659
 IR Inten    --     45.8171                12.9003                39.2258

                     46                     47                     48
                      A                      A                      A
 Frequencies --   3089.0746              3106.3718              3112.1659
 Red. masses --      1.0628                 1.0894                 1.1080
 Frc consts  --      5.9751                 6.1936                 6.3230
 IR Inten    --     20.7043                53.8000                15.0375

                     49                     50                     51
                      A                      A                      A
 Frequencies --   3145.0210              3159.6916              3744.1226
 Red. masses --      1.1087                 1.1064                 1.0644
 Frc consts  --      6.4611                 6.5078                 8.7910
 IR Inten    --     18.0962                18.2887                29.0636

 - Thermochemistry -
 -------------------
 Temperature   298.150 Kelvin.  Pressure   1.00000 Atm.
 Atom     1 has atomic number  8 and mass  15.99491

 Molecular mass:   126.06808 amu.
 Principal axes and moments of inertia in atomic units:
                           1         2         3
     Eigenvalues --   678.75381 926.438971086.55219
           X            0.99985  -0.01417  -0.00963
           Y            0.01440   0.99958   0.02511
           Z            0.00927  -0.02525   0.99964
 This molecule is an asymmetric top.
 Rotational symmetry number  1.
 Warning -- assumption of classical behavior for rotation
           may cause significant error
 Rotational temperatures (Kelvin)      0.12761     0.09349     0.07971
 Rotational constants (GHZ):           2.65890     1.94804     1.66098
 Zero-point vibrational energy     423544.9 (Joules/Mol)
                                  101.22967 (Kcal/Mol)
 Warning -- explicit consideration of   9 degrees of freedom as
           vibrations may cause significant error
 Vibrational temperatures:    327.35   375.66   436.77   504.08   584.60
          (Kelvin)            695.79   729.94   799.35   824.84   926.01
                              988.57  1073.34  1148.75  1199.66  1223.45
                             1232.43  1299.06  1320.01  1374.10  1394.90
                             1412.27  1489.19  1508.90  1571.64  1589.72
                             1671.19  1711.16  1725.63  1756.44  1769.95
                             1777.03  1803.22  1811.90  1875.31  1884.27
                             1965.80  2008.78  2108.37  2135.60  2157.02
                             2194.39  4369.15  4402.42  4434.77  4439.03
                             4444.48  4469.37  4477.71  4524.98  4546.09
                             5386.95

 Zero-point correction=                           0.161320 (Hartree/Particle)
 Thermal correction to Energy=                    0.168191
 Thermal correction to Enthalpy=                  0.169136
 Thermal correction to Gibbs Free Energy=         0.130720
 Sum of electronic and zero-point Energies=           -422.963127
 Sum of electronic and thermal Energies=              -422.956255
 Sum of electronic and thermal Enthalpies=            -422.955311
 Sum of electronic and thermal Free Energies=         -422.993727

                     E (Thermal)             CV                S
                      KCal/Mol        Cal/Mol-Kelvin    Cal/Mol-Kelvin
 Total                  105.542             29.678             80.853
 Electronic               0.000              0.000              0.000
 Translational            0.889              2.981             40.409
 Rotational               0.889              2.981             28.015
 Vibrational            103.764             23.716             12.430
 Vibration     1          0.651              1.799              1.898
 Vibration     2          0.669              1.744              1.654
 Vibration     3          0.695              1.667              1.397
 Vibration     4          0.727              1.575              1.165
 Vibration     5          0.771              1.456              0.940
 Vibration     6          0.840              1.286              0.700
 Vibration     7          0.863              1.234              0.640
 Vibration     8          0.911              1.128              0.533
 Vibration     9          0.930              1.089              0.498

 Normal termination of Gaussian 09 at Mon Jan 27 19:37:41 2020.
