 Gaussian 09, Revision D.01,
 Gaussian 09:  ES64L-G09RevD.01 24-Apr-2013

 -----------------------------
 # b3lyp 6-31G(2df,p) opt Freq
 -----------------------------

 -----
 titel
 -----
 Symbolic Z-matrix:
 Charge =  0 Multiplicity = 1

 SCF Done:  E(RB3LYP) =  -423.155878241     A.U. after   14 cycles
 Optimization completed.
    -- Stationary point found.
 Normal termination of Gaussian 09 at Mon Jan 27 12:09:50 2020.

 ----------------------------------------------------------------------
 #N Geom=AllCheck Guess=TCheck SCRF=Check GenChk RB3LYP/6-31G(2df,p) Fr
 eq
 ----------------------------------------------------------------------

 Structure from the checkpoint file:  "/scratch/puck/g09_7e30b799-507f-427b-8f38-de0f0afcfde9/Gau-44875.chk"
 -----
 titel
 -----
 Charge =  0 Multiplicity = 1

                         Standard orientation:
 ---------------------------------------------------------------------
 Center     Atomic      Atomic             Coordinates (Angstroms)
 Number     Number       Type             X           Y           Z
 ---------------------------------------------------------------------
      1          6           0        2.517484    0.647443    0.393377
      2          6           0        2.477684   -0.708477   -0.261905
      3          6           0        1.417730    0.309845   -0.588893
      4          6           0        0.023600    0.129126   -0.093222
      5          6           0       -0.950455    1.295515   -0.064009
      6          8           0       -2.240743    0.733455    0.141115
      7          6           0       -2.246723   -0.625919   -0.282731
      8          6           0       -0.806339   -1.075598   -0.223241
      9          8           0       -0.176593   -0.749902    1.025026
     10          1           0        2.247650    0.697881    1.442317
     11          1           0        3.278618    1.355075    0.085067
     12          1           0        3.212778   -0.939523   -1.024325
     13          1           0        2.177125   -1.544529    0.358395
     14          1           0        1.475952    0.788888   -1.562382
     15          1           0       -0.755929    1.998409    0.752617
     16          1           0       -0.892453    1.843968   -1.018932
     17          1           0       -2.909841   -1.181670    0.388510
     18          1           0       -2.621925   -0.732838   -1.314237
     19          1           0       -0.471168   -1.985700   -0.712408
 ---------------------------------------------------------------------

 SCF Done:  E(RB3LYP) =  -423.155878241     A.U. after    1 cycles

 The electronic state is 1-A.
 Alpha  occ. eigenvalues --  -19.15272 -19.13848 -10.24322 -10.23668 -10.23210
 Alpha  occ. eigenvalues --  -10.22971 -10.20049 -10.18872 -10.18760  -1.08480
 Alpha  occ. eigenvalues --   -1.02188  -0.86076  -0.74863  -0.72522  -0.63429
 Alpha  occ. eigenvalues --   -0.60823  -0.59168  -0.56462  -0.52735  -0.48937
 Alpha  occ. eigenvalues --   -0.47547  -0.46392  -0.45686  -0.43030  -0.39758
 Alpha  occ. eigenvalues --   -0.37172  -0.36846  -0.36065  -0.34697  -0.33369
 Alpha  occ. eigenvalues --   -0.29978  -0.28181  -0.25625  -0.25241
 Alpha virt. eigenvalues --    0.08390   0.09521   0.10706   0.11542   0.12057
 Alpha virt. eigenvalues --    0.13024   0.13876   0.14622   0.14944   0.16345
 Alpha virt. eigenvalues --    0.17586   0.18210   0.19541   0.19892   0.22851

 Mulliken charges:
               1
     1  C   -0.263487
     2  C   -0.269722
     3  C   -0.117948
     4  C    0.394643
     5  C   -0.136881
     6  O   -0.257785
     7  C   -0.100822
     8  C   -0.052197
     9  O   -0.289929
    10  H    0.127925
    11  H    0.113122
    12  H    0.110665
    13  H    0.130675
    14  H    0.088675
    15  H    0.118410
    16  H    0.090445
    17  H    0.119268
    18  H    0.093597
    19  H    0.101344
 Sum of Mulliken charges =   0.00000

 Dipole moment (field-independent basis, Debye):
    X=              1.1099    Y=             -0.2953    Z=             -2.0366  Tot=              2.3381
 Quadrupole moment (field-independent basis, Debye-Ang):
   XX=            -54.6100   YY=            -50.9361   ZZ=            -53.6985
   XY=              4.1301   XZ=              0.5557   YZ=              1.1941

  Exact polarizability:  87.597   5.743  74.480   1.575   1.831  62.876
 Approx polarizability: 110.662   7.634 111.344   2.935   0.989 102.090

                      1                      2                      3
                      A                      A                      A
 Frequencies --     76.0873               148.6945               181.5942
 Red. masses --      2.9761                 3.0300                 3.3178
 Frc consts  --      0.0102                 0.0395                 0.0645
 IR Inten    --      0.1499                 0.7779                 1.6734

                      4                      5                      6
                      A                      A                      A
 Frequencies --    214.9663               289.8676               365.5774
 Red. masses --      2.4687                 2.6346                 3.4234
 Frc consts  --      0.0672                 0.1304                 0.2696
 IR Inten    --      4.0376                 0.5723                 3.7536

                      7                      8                      9
                      A                      A                      A
 Frequencies --    450.6591               464.7288               625.0667
 Red. masses --      4.2659                 2.8540                 2.7322
 Frc consts  --      0.5105                 0.3632                 0.6289
 IR Inten    --      4.2127                 2.2126                 5.1036

                     10                     11                     12
                      A                      A                      A
 Frequencies --    699.8827               769.5790               794.3847
 Red. masses --      5.6287                 4.4087                 1.1022
 Frc consts  --      1.6245                 1.5384                 0.4098
 IR Inten    --      4.3707                16.0336                 2.1317

                     13                     14                     15
                      A                      A                      A
 Frequencies --    826.0044               879.1138               896.2466
 Red. masses --      1.2421                 3.3773                 3.4834
 Frc consts  --      0.4993                 1.5378                 1.6486
 IR Inten    --      8.0744                15.2693                15.5323

                     16                     17                     18
                      A                      A                      A
 Frequencies --    912.0847               927.8040               932.1452
 Red. masses --      2.5539                 4.1703                 2.9096
 Frc consts  --      1.2518                 2.1151                 1.4895
 IR Inten    --     27.0509                 3.8888                11.2646

                     19                     20                     21
                      A                      A                      A
 Frequencies --    982.3345              1015.7499              1057.7790
 Red. masses --      2.0560                 1.8888                 1.9932
 Frc consts  --      1.1689                 1.1482                 1.3140
 IR Inten    --      5.2606                 7.4041                20.9944

                     22                     23                     24
                      A                      A                      A
 Frequencies --   1068.1163              1090.4656              1093.1416
 Red. masses --      1.4126                 1.8567                 1.4784
 Frc consts  --      0.9495                 1.3008                 1.0409
 IR Inten    --      2.4463                 9.9053                 6.5082

                     25                     26                     27
                      A                      A                      A
 Frequencies --   1116.7727              1131.1345              1140.0487
 Red. masses --      3.7486                 1.1311                 1.8319
 Frc consts  --      2.7545                 0.8527                 1.4028
 IR Inten    --     66.7290                 0.2707                 5.8534

                     28                     29                     30
                      A                      A                      A
 Frequencies --   1181.4427              1203.8128              1221.5892
 Red. masses --      2.3699                 1.3343                 1.2955
 Frc consts  --      1.9490                 1.1392                 1.1391
 IR Inten    --      5.1012                 1.3153                12.2203

                     31                     32                     33
                      A                      A                      A
 Frequencies --   1227.8826              1244.1506              1280.3133
 Red. masses --      1.5318                 1.2348                 1.4005
 Frc consts  --      1.3607                 1.1262                 1.3526
 IR Inten    --      5.5204                 0.8891                 4.4918

                     34                     35                     36
                      A                      A                      A
 Frequencies --   1349.9293              1378.5032              1406.4553
 Red. masses --      1.3817                 1.9235                 1.6165
 Frc consts  --      1.4835                 2.1536                 1.8840
 IR Inten    --      0.6661                 6.8827                 3.4138

                     37                     38                     39
                      A                      A                      A
 Frequencies --   1459.4063              1479.8140              1498.6324
 Red. masses --      1.0931                 3.0822                 1.0937
 Frc consts  --      1.3717                 3.9767                 1.4472
 IR Inten    --      1.9632                 6.2149                 0.5161

                     40                     41                     42
                      A                      A                      A
 Frequencies --   1502.2089              1510.6206              2966.9313
 Red. masses --      1.5343                 1.1081                 1.0689
 Frc consts  --      2.0400                 1.4898                 5.5439
 IR Inten    --      1.6058                 1.4956                71.0652

                     43                     44                     45
                      A                      A                      A
 Frequencies --   2974.3719              3069.5107              3073.1965
 Red. masses --      1.0713                 1.0910                 1.0933
 Frc consts  --      5.5843                 6.0565                 6.0836
 IR Inten    --     64.3106                29.5066                24.5948

                     46                     47                     48
                      A                      A                      A
 Frequencies --   3138.2885              3141.5536              3147.0993
 Red. masses --      1.0520                 1.0623                 1.0815
 Frc consts  --      6.1047                 6.1770                 6.3108
 IR Inten    --     14.4463                13.0427                 9.1442

                     49                     50                     51
                      A                      A                      A
 Frequencies --   3161.6416              3222.0858              3237.2214
 Red. masses --      1.0918                 1.1182                 1.1160
 Frc consts  --      6.4301                 6.8397                 6.8908
 IR Inten    --     16.0445                 1.4691                10.7137

 - Thermochemistry -
 -------------------
 Temperature   298.150 Kelvin.  Pressure   1.00000 Atm.
 Atom     1 has atomic number  6 and mass  12.00000

 Molecular mass:   126.06808 amu.
 Principal axes and moments of inertia in atomic units:
                           1         2         3
     Eigenvalues --   441.750901497.858711687.31201
           X            0.99990   0.01302   0.00493
           Y           -0.01318   0.99931   0.03462
           Z           -0.00447  -0.03468   0.99939
 This molecule is an asymmetric top.
 Rotational symmetry number  1.
 Warning -- assumption of classical behavior for rotation
           may cause significant error
 Rotational temperatures (Kelvin)      0.19607     0.05783     0.05133
 Rotational constants (GHZ):           4.08543     1.20488     1.06960
 Zero-point vibrational energy     420048.9 (Joules/Mol)
                                  100.39409 (Kcal/Mol)
 Warning -- explicit consideration of   8 degrees of freedom as
           vibrations may cause significant error
 Vibrational temperatures:    109.47   213.94   261.27   309.29   417.05
          (Kelvin)            525.98   648.40   668.64   899.33  1006.97
                             1107.25  1142.94  1188.43  1264.85  1289.50
                             1312.28  1334.90  1341.15  1413.36  1461.44
                             1521.91  1536.78  1568.93  1572.78  1606.78
                             1627.45  1640.27  1699.83  1732.02  1757.59
                             1766.65  1790.05  1842.08  1942.24  1983.36
                             2023.57  2099.76  2129.12  2156.20  2161.34
                             2173.44  4268.75  4279.45  4416.34  4421.64
                             4515.29  4519.99  4527.97  4548.89  4635.86
                             4657.63

 Zero-point correction=                           0.159988 (Hartree/Particle)
 Thermal correction to Energy=                    0.167818
 Thermal correction to Enthalpy=                  0.168763
 Thermal correction to Gibbs Free Energy=         0.127418
 Sum of electronic and zero-point Energies=           -422.995890
 Sum of electronic and thermal Energies=              -422.988060
 Sum of electronic and thermal Enthalpies=            -422.987116
 Sum of electronic and thermal Free Energies=         -423.028460

                     E (Thermal)             CV                S
                      KCal/Mol        Cal/Mol-Kelvin    Cal/Mol-Kelvin
 Total                  105.308             30.248             87.017
 Electronic               0.000              0.000              0.000
 Translational            0.889              2.981             40.409
 Rotational               0.889              2.981             28.503
 Vibrational            103.530             24.286             18.106
 Vibration     1          0.599              1.965              3.989
 Vibration     2          0.618              1.904              2.689
 Vibration     3          0.630              1.865              2.312
 Vibration     4          0.645              1.818              2.001
 Vibration     5          0.686              1.693              1.475
 Vibration     6          0.739              1.543              1.098
 Vibration     7          0.809              1.359              0.794
 Vibration     8          0.822              1.328              0.752

 Optimization completed.
    -- Stationary point found.
 Normal termination of Gaussian 09 at Mon Jan 27 12:51:59 2020.
