 Gaussian 09, Revision D.01,
 Gaussian 09:  ES64L-G09RevD.01 24-Apr-2013

 -----------------------------
 # b3lyp 6-31G(2df,p) opt Freq
 -----------------------------

 -----
 titel
 -----
 Symbolic Z-matrix:
 Charge =  0 Multiplicity = 1

 SCF Done:  E(RB3LYP) =  -423.110862963     A.U. after   13 cycles
 Optimization completed.
    -- Stationary point found.
 Normal termination of Gaussian 09 at Tue Jan 28 14:05:29 2020.

 ----------------------------------------------------------------------
 #N Geom=AllCheck Guess=TCheck SCRF=Check GenChk RB3LYP/6-31G(2df,p) Fr
 eq
 ----------------------------------------------------------------------

 Structure from the checkpoint file:  "/scratch/puck/g09_e93026f5-1d0b-4caa-8798-26b500d1fa99/Gau-122918.chk"
 -----
 titel
 -----
 Charge =  0 Multiplicity = 1

                         Standard orientation:
 ---------------------------------------------------------------------
 Center     Atomic      Atomic             Coordinates (Angstroms)
 Number     Number       Type             X           Y           Z
 ---------------------------------------------------------------------
      1          6           0        3.003642    0.111797    0.094618
      2          6           0        1.654444    0.583817   -0.458361
      3          6           0        0.490712    0.303270    0.483069
      4          6           0       -0.064842   -1.150039    0.609930
      5          8           0       -0.375806   -1.540610   -0.762997
      6          6           0       -1.452387   -0.607111   -0.683773
      7          6           0       -1.511101   -0.568062    0.810191
      8          6           0       -0.951656    0.640171    0.081029
      9          8           0       -1.552897    1.876832   -0.005585
     10          1           0        3.818255    0.332939   -0.601700
     11          1           0        3.237180    0.601076    1.046992
     12          1           0        3.003402   -0.969650    0.268823
     13          1           0        1.697094    1.663514   -0.654777
     14          1           0        1.451769    0.093496   -1.416450
     15          1           0        0.677612    0.698198    1.488905
     16          1           0        0.430718   -1.929375    1.183916
     17          1           0       -2.220287   -0.599720   -1.446624
     18          1           0       -2.294474   -0.701805    1.542126
     19          1           0       -1.384515    2.238489   -0.882767
 ---------------------------------------------------------------------

 SCF Done:  E(RB3LYP) =  -423.110862963     A.U. after    1 cycles

 The electronic state is 1-A.
 Alpha  occ. eigenvalues --  -19.15678 -19.13643 -10.24374 -10.24206 -10.23767
 Alpha  occ. eigenvalues --  -10.19198 -10.18792 -10.17525 -10.17223  -1.06511
 Alpha  occ. eigenvalues --   -1.03596  -0.85332  -0.77736  -0.70980  -0.65378
 Alpha  occ. eigenvalues --   -0.59894  -0.57520  -0.54514  -0.54011  -0.47290
 Alpha  occ. eigenvalues --   -0.46037  -0.44830  -0.43207  -0.40432  -0.40255
 Alpha  occ. eigenvalues --   -0.38309  -0.37219  -0.34610  -0.34228  -0.32660
 Alpha  occ. eigenvalues --   -0.30755  -0.28673  -0.25717  -0.21916
 Alpha virt. eigenvalues --    0.06794   0.07479   0.10047   0.11869   0.13514
 Alpha virt. eigenvalues --    0.13767   0.14652   0.15230   0.15561   0.17087
 Alpha virt. eigenvalues --    0.17806   0.19109   0.19530   0.20499   0.21335

 Mulliken charges:
               1
     1  C   -0.381138
     2  C   -0.214250
     3  C   -0.043513
     4  C    0.047162
     5  O   -0.290064
     6  C    0.008330
     7  C   -0.195808
     8  C    0.308934
     9  O   -0.457435
    10  H    0.112891
    11  H    0.112135
    12  H    0.118689
    13  H    0.089108
    14  H    0.112160
    15  H    0.076908
    16  H    0.087197
    17  H    0.110376
    18  H    0.106929
    19  H    0.291390
 Sum of Mulliken charges =   0.00000

 Dipole moment (field-independent basis, Debye):
    X=              0.0301    Y=              0.7906    Z=             -0.0572  Tot=              0.7932
 Quadrupole moment (field-independent basis, Debye-Ang):
   XX=            -52.4006   YY=            -55.3799   ZZ=            -50.9027
   XY=              0.9823   XZ=              2.3509   YZ=             -5.9117

  Exact polarizability:  82.883   0.845  71.199   1.355  -3.257  67.508
 Approx polarizability: 106.212  -1.273 109.910   1.532  -1.762 108.171

                      1                      2                      3
                      A                      A                      A
 Frequencies --     75.1767               155.0835               183.0297
 Red. masses --      2.5691                 2.8600                 1.5781
 Frc consts  --      0.0086                 0.0405                 0.0311
 IR Inten    --      0.0151                 0.1399                 0.4036

                      4                      5                      6
                      A                      A                      A
 Frequencies --    249.4826               274.1545               280.8702
 Red. masses --      1.5121                 1.9655                 1.9855
 Frc consts  --      0.0555                 0.0870                 0.0923
 IR Inten    --     20.5433                16.7328                42.2538

                      7                      8                      9
                      A                      A                      A
 Frequencies --    342.5496               424.6222               557.7013
 Red. masses --      2.6859                 3.5775                 4.5840
 Frc consts  --      0.1857                 0.3800                 0.8400
 IR Inten    --     36.2363                 4.4766                 3.7728

                     10                     11                     12
                      A                      A                      A
 Frequencies --    562.0843               644.3088               740.1413
 Red. masses --      3.1061                 3.1400                 2.7086
 Frc consts  --      0.5782                 0.7680                 0.8742
 IR Inten    --      2.7187                 2.5342                17.5715

                     13                     14                     15
                      A                      A                      A
 Frequencies --    761.4552               803.2683               820.7583
 Red. masses --      2.2824                 1.7388                 1.8807
 Frc consts  --      0.7797                 0.6610                 0.7465
 IR Inten    --      5.2706                15.5722                 0.9270

                     16                     17                     18
                      A                      A                      A
 Frequencies --    839.1415               877.2757               916.7747
 Red. masses --      1.9670                 2.0467                 2.5942
 Frc consts  --      0.8161                 0.9280                 1.2847
 IR Inten    --      6.4948                 1.8367                25.8178

                     19                     20                     21
                      A                      A                      A
 Frequencies --    940.1687               944.4170               972.3974
 Red. masses --      2.4252                 1.8210                 2.3233
 Frc consts  --      1.2630                 0.9569                 1.2943
 IR Inten    --      8.4136                14.9519                25.8553

                     22                     23                     24
                      A                      A                      A
 Frequencies --   1021.5931              1032.1724              1079.3439
 Red. masses --      3.4600                 2.2640                 1.7536
 Frc consts  --      2.1276                 1.4211                 1.2036
 IR Inten    --      8.3805                 8.6232                 8.0802

                     25                     26                     27
                      A                      A                      A
 Frequencies --   1101.2111              1125.1858              1142.6455
 Red. masses --      2.0929                 1.6784                 2.0010
 Frc consts  --      1.4953                 1.2520                 1.5393
 IR Inten    --      1.3041                 3.8792                 2.5088

                     28                     29                     30
                      A                      A                      A
 Frequencies --   1152.7424              1194.3445              1210.4809
 Red. masses --      2.1916                 1.5191                 1.6839
 Frc consts  --      1.7158                 1.2767                 1.4537
 IR Inten    --      5.2157                13.9917                 5.9564

                     31                     32                     33
                      A                      A                      A
 Frequencies --   1272.2802              1288.9528              1305.6108
 Red. masses --      1.6529                 1.5375                 2.1833
 Frc consts  --      1.5764                 1.5050                 2.1928
 IR Inten    --    115.5854                 6.9958                31.7974

                     34                     35                     36
                      A                      A                      A
 Frequencies --   1313.4300              1339.8085              1399.6107
 Red. masses --      1.3827                 1.3957                 1.6752
 Frc consts  --      1.4054                 1.4761                 1.9334
 IR Inten    --     23.1976                 4.0503                 1.7214

                     37                     38                     39
                      A                      A                      A
 Frequencies --   1413.8464              1444.0100              1485.7161
 Red. masses --      1.2414                 3.1963                 1.0707
 Frc consts  --      1.4621                 3.9268                 1.3925
 IR Inten    --      1.8365                30.8106                 0.8542

                     40                     41                     42
                      A                      A                      A
 Frequencies --   1500.9490              1504.8073              3019.6192
 Red. masses --      1.0439                 1.0595                 1.0663
 Frc consts  --      1.3856                 1.4135                 5.7284
 IR Inten    --      5.6726                 3.9130                25.2180

                     43                     44                     45
                      A                      A                      A
 Frequencies --   3030.3342              3043.0151              3072.5578
 Red. masses --      1.0363                 1.0833                 1.0948
 Frc consts  --      5.6066                 5.9101                 6.0898
 IR Inten    --     26.3112                17.4911                 4.1901

                     46                     47                     48
                      A                      A                      A
 Frequencies --   3099.2055              3103.4378              3149.4410
 Red. masses --      1.1016                 1.1007                 1.0927
 Frc consts  --      6.2339                 6.2461                 6.3861
 IR Inten    --     44.6518                35.0338                28.1761

                     49                     50                     51
                      A                      A                      A
 Frequencies --   3203.2225              3222.2959              3795.2540
 Red. masses --      1.0912                 1.1021                 1.0661
 Frc consts  --      6.5967                 6.7425                 9.0476
 IR Inten    --     12.7236                 6.3561                26.1797

 - Thermochemistry -
 -------------------
 Temperature   298.150 Kelvin.  Pressure   1.00000 Atm.
 Atom     1 has atomic number  6 and mass  12.00000

 Molecular mass:   126.06808 amu.
 Principal axes and moments of inertia in atomic units:
                           1         2         3
     Eigenvalues --   673.996531234.485491583.53318
           X            0.99983   0.01822   0.00410
           Y           -0.01801   0.99881  -0.04535
           Z           -0.00492   0.04527   0.99896
 This molecule is an asymmetric top.
 Rotational symmetry number  1.
 Warning -- assumption of classical behavior for rotation
           may cause significant error
 Rotational temperatures (Kelvin)      0.12851     0.07016     0.05470
 Rotational constants (GHZ):           2.67767     1.46194     1.13969
 Zero-point vibrational energy     415295.5 (Joules/Mol)
                                   99.25801 (Kcal/Mol)
 Warning -- explicit consideration of  10 degrees of freedom as
           vibrations may cause significant error
 Vibrational temperatures:    108.16   223.13   263.34   358.95   394.45
          (Kelvin)            404.11   492.85   610.94   802.41   808.71
                              927.02  1064.90  1095.56  1155.72  1180.89
                             1207.34  1262.20  1319.03  1352.69  1358.80
                             1399.06  1469.84  1485.06  1552.93  1584.40
                             1618.89  1644.01  1658.54  1718.39  1741.61
                             1830.53  1854.51  1878.48  1889.73  1927.68
                             2013.73  2034.21  2077.61  2137.61  2159.53
                             2165.08  4344.55  4359.97  4378.21  4420.72
                             4459.06  4465.15  4531.34  4608.72  4636.16
                             5460.52

 Zero-point correction=                           0.158178 (Hartree/Particle)
 Thermal correction to Energy=                    0.166515
 Thermal correction to Enthalpy=                  0.167460
 Thermal correction to Gibbs Free Energy=         0.125272
 Sum of electronic and zero-point Energies=           -422.952685
 Sum of electronic and thermal Energies=              -422.944348
 Sum of electronic and thermal Enthalpies=            -422.943403
 Sum of electronic and thermal Free Energies=         -422.985591

                     E (Thermal)             CV                S
                      KCal/Mol        Cal/Mol-Kelvin    Cal/Mol-Kelvin
 Total                  104.490             32.375             88.791
 Electronic               0.000              0.000              0.000
 Translational            0.889              2.981             40.409
 Rotational               0.889              2.981             28.668
 Vibrational            102.713             26.413             19.715
 Vibration     1          0.599              1.966              4.013
 Vibration     2          0.620              1.897              2.609
 Vibration     3          0.631              1.863              2.297
 Vibration     4          0.662              1.764              1.734
 Vibration     5          0.676              1.721              1.570
 Vibration     6          0.681              1.709              1.528
 Vibration     7          0.722              1.590              1.200
 Vibration     8          0.787              1.417              0.876
 Vibration     9          0.913              1.123              0.528
 Vibration    10          0.918              1.113              0.520

 Optimization completed.
    -- Stationary point found.
 Normal termination of Gaussian 09 at Tue Jan 28 14:45:59 2020.
