 Gaussian 09, Revision D.01,
 Gaussian 09:  ES64L-G09RevD.01 24-Apr-2013

 -----------------------------
 # b3lyp 6-31G(2df,p) opt Freq
 -----------------------------

 -----
 titel
 -----
 Symbolic Z-matrix:
 Charge =  0 Multiplicity = 1

 SCF Done:  E(RB3LYP) =  -423.147950659     A.U. after   13 cycles
 Optimization completed.
    -- Stationary point found.
 Normal termination of Gaussian 09 at Tue Jan 28 03:35:00 2020.

 ----------------------------------------------------------------------
 #N Geom=AllCheck Guess=TCheck SCRF=Check GenChk RB3LYP/6-31G(2df,p) Fr
 eq
 ----------------------------------------------------------------------

 Structure from the checkpoint file:  "/scratch/puck/g09_d6c7a760-7bcd-4301-a4fd-d4d8a8eaa531/Gau-79865.chk"
 -----
 titel
 -----
 Charge =  0 Multiplicity = 1

                         Standard orientation:
 ---------------------------------------------------------------------
 Center     Atomic      Atomic             Coordinates (Angstroms)
 Number     Number       Type             X           Y           Z
 ---------------------------------------------------------------------
      1          6           0        1.622470   -1.404391    0.674014
      2          6           0        0.872447   -0.719471   -0.472771
      3          6           0       -0.483183   -1.390229   -0.852672
      4          6           0       -1.529788   -0.394598   -0.356995
      5          8           0       -1.354074   -0.251877    1.097916
      6          6           0       -0.621914    0.948557    0.866530
      7          6           0       -0.953881    1.017737   -0.596467
      8          6           0        0.474845    0.727178   -0.150644
      9          8           0        1.437464    1.730502   -0.173326
     10          1           0        2.499665   -0.816826    0.963424
     11          1           0        0.970308   -1.504677    1.545766
     12          1           0        1.965630   -2.403047    0.383971
     13          1           0        1.529452   -0.688902   -1.352506
     14          1           0       -0.577256   -1.522394   -1.936658
     15          1           0       -0.612755   -2.368678   -0.381132
     16          1           0       -2.569713   -0.605858   -0.612012
     17          1           0       -0.579393    1.700402    1.645840
     18          1           0       -1.302925    1.818557   -1.233493
     19          1           0        1.723898    1.853729   -1.085893
 ---------------------------------------------------------------------

 SCF Done:  E(RB3LYP) =  -423.147950659     A.U. after    1 cycles

 The electronic state is 1-A.
 Alpha  occ. eigenvalues --  -19.15157 -19.13327 -10.23899 -10.23674 -10.23417
 Alpha  occ. eigenvalues --  -10.18921 -10.18652 -10.18238 -10.16553  -1.05622
 Alpha  occ. eigenvalues --   -1.03030  -0.83831  -0.77895  -0.72654  -0.64701
 Alpha  occ. eigenvalues --   -0.60657  -0.57870  -0.53788  -0.52826  -0.47562
 Alpha  occ. eigenvalues --   -0.46655  -0.45339  -0.42109  -0.40636  -0.40335
 Alpha  occ. eigenvalues --   -0.38897  -0.35814  -0.34741  -0.33911  -0.32721
 Alpha  occ. eigenvalues --   -0.30821  -0.30196  -0.24764  -0.22307
 Alpha virt. eigenvalues --    0.06600   0.08860   0.09900   0.12255   0.13001
 Alpha virt. eigenvalues --    0.13942   0.14376   0.15925   0.16748   0.17231
 Alpha virt. eigenvalues --    0.18129   0.18978   0.20043   0.21829   0.22054

 Mulliken charges:
               1
     1  C   -0.402627
     2  C   -0.037674
     3  C   -0.231664
     4  C    0.081536
     5  O   -0.309304
     6  C    0.066971
     7  C   -0.249652
     8  C    0.370873
     9  O   -0.482901
    10  H    0.119013
    11  H    0.136610
    12  H    0.104950
    13  H    0.057259
    14  H    0.095266
    15  H    0.109222
    16  H    0.081305
    17  H    0.110188
    18  H    0.097700
    19  H    0.282928
 Sum of Mulliken charges =   0.00000

 Dipole moment (field-independent basis, Debye):
    X=              0.1984    Y=              0.1972    Z=             -2.5934  Tot=              2.6084
 Quadrupole moment (field-independent basis, Debye-Ang):
   XX=            -53.5696   YY=            -52.4586   ZZ=            -51.7400
   XY=             -0.7472   XZ=              0.0655   YZ=             -0.8763

  Exact polarizability:  76.557   0.345  74.849   1.468   1.265  68.263
 Approx polarizability: 108.917   4.663 104.890  -0.388   0.607 109.450

                      1                      2                      3
                      A                      A                      A
 Frequencies --    122.7797               227.4163               248.0061
 Red. masses --      3.0699                 2.3356                 1.1475
 Frc consts  --      0.0273                 0.0712                 0.0416
 IR Inten    --      1.7372                 0.5014                 0.9353

                      4                      5                      6
                      A                      A                      A
 Frequencies --    295.3266               322.4978               371.5116
 Red. masses --      1.6790                 2.3076                 1.9455
 Frc consts  --      0.0863                 0.1414                 0.1582
 IR Inten    --     30.1579                13.5537                28.8549

                      7                      8                      9
                      A                      A                      A
 Frequencies --    394.5259               425.2896               539.2366
 Red. masses --      2.8087                 4.0575                 3.0864
 Frc consts  --      0.2576                 0.4324                 0.5288
 IR Inten    --     33.5193                 7.0883                 1.7076

                     10                     11                     12
                      A                      A                      A
 Frequencies --    580.4611               670.3960               724.3487
 Red. masses --      5.3463                 4.4369                 3.1252
 Frc consts  --      1.0613                 1.1749                 0.9661
 IR Inten    --      2.0705                 0.6638                11.3601

                     13                     14                     15
                      A                      A                      A
 Frequencies --    780.8428               823.2365               839.6260
 Red. masses --      3.8996                 1.4361                 2.4083
 Frc consts  --      1.4009                 0.5734                 1.0003
 IR Inten    --      9.9028                 3.8625                 7.6737

                     16                     17                     18
                      A                      A                      A
 Frequencies --    872.6516               903.4621               930.6580
 Red. masses --      2.2835                 1.9136                 2.6972
 Frc consts  --      1.0246                 0.9203                 1.3764
 IR Inten    --      3.7758                16.0280                22.3835

                     19                     20                     21
                      A                      A                      A
 Frequencies --    941.2040               988.2865              1003.3991
 Red. masses --      1.7374                 1.9429                 2.1018
 Frc consts  --      0.9068                 1.1180                 1.2468
 IR Inten    --     11.3166                15.5521                 8.0355

                     22                     23                     24
                      A                      A                      A
 Frequencies --   1032.1841              1041.5486              1081.9697
 Red. masses --      2.4571                 2.2484                 1.9774
 Frc consts  --      1.5424                 1.4371                 1.3639
 IR Inten    --     29.7168                 6.8950                 4.5092

                     25                     26                     27
                      A                      A                      A
 Frequencies --   1099.4648              1115.2489              1166.5195
 Red. masses --      1.9387                 1.7725                 2.2317
 Frc consts  --      1.3808                 1.2989                 1.7893
 IR Inten    --      3.0533                 1.1907                27.1812

                     28                     29                     30
                      A                      A                      A
 Frequencies --   1201.9892              1208.8711              1219.5872
 Red. masses --      1.3660                 1.5720                 1.6966
 Frc consts  --      1.1628                 1.3535                 1.4868
 IR Inten    --     33.4076                16.0552                26.3930

                     31                     32                     33
                      A                      A                      A
 Frequencies --   1260.0758              1281.4720              1315.8471
 Red. masses --      1.4892                 2.8374                 1.6874
 Frc consts  --      1.3931                 2.7453                 1.7214
 IR Inten    --     29.8193                34.7020                20.6933

                     34                     35                     36
                      A                      A                      A
 Frequencies --   1334.7573              1338.3821              1367.3426
 Red. masses --      1.4898                 1.4389                 1.7454
 Frc consts  --      1.5638                 1.5186                 1.9226
 IR Inten    --      2.0234                12.3918                 3.6732

                     37                     38                     39
                      A                      A                      A
 Frequencies --   1404.0722              1442.3494              1476.9015
 Red. masses --      1.2421                 2.5617                 1.0997
 Frc consts  --      1.4428                 3.1400                 1.4132
 IR Inten    --      4.9181                 4.1504                 2.8314

                     40                     41                     42
                      A                      A                      A
 Frequencies --   1496.5216              1508.1204              3002.7399
 Red. masses --      1.0433                 1.0524                 1.0834
 Frc consts  --      1.3767                 1.4103                 5.7552
 IR Inten    --      3.2693                 2.5488                33.7707

                     43                     44                     45
                      A                      A                      A
 Frequencies --   3034.8377              3041.4208              3093.5190
 Red. masses --      1.0364                 1.0619                 1.1016
 Frc consts  --      5.6240                 5.7875                 6.2111
 IR Inten    --     28.2267                32.1677                20.4268

                     46                     47                     48
                      A                      A                      A
 Frequencies --   3098.7030              3100.8058              3121.7815
 Red. masses --      1.0914                 1.1004                 1.1016
 Frc consts  --      6.1745                 6.2339                 6.3254
 IR Inten    --     36.4840                37.4661                18.1331

                     49                     50                     51
                      A                      A                      A
 Frequencies --   3186.2141              3210.0558              3779.1609
 Red. masses --      1.0913                 1.0990                 1.0660
 Frc consts  --      6.5275                 6.6721                 8.9698
 IR Inten    --     15.2904                 8.4030                13.7388

 - Thermochemistry -
 -------------------
 Temperature   298.150 Kelvin.  Pressure   1.00000 Atm.
 Atom     1 has atomic number  6 and mass  12.00000

 Molecular mass:   126.06808 amu.
 Principal axes and moments of inertia in atomic units:
                           1         2         3
     Eigenvalues --   805.52569 880.142741210.01818
           X            0.95983  -0.27799   0.03798
           Y            0.27837   0.96046  -0.00510
           Z           -0.03506   0.01547   0.99927
 This molecule is an asymmetric top.
 Rotational symmetry number  1.
 Warning -- assumption of classical behavior for rotation
           may cause significant error
 Rotational temperatures (Kelvin)      0.10752     0.09841     0.07158
 Rotational constants (GHZ):           2.24045     2.05051     1.49150
 Zero-point vibrational energy     419097.5 (Joules/Mol)
                                  100.16670 (Kcal/Mol)
 Warning -- explicit consideration of  10 degrees of freedom as
           vibrations may cause significant error
 Vibrational temperatures:    176.65   327.20   356.82   424.91   464.00
          (Kelvin)            534.52   567.63   611.90   775.84   835.15
                              964.55  1042.17  1123.46  1184.45  1208.03
                             1255.55  1299.88  1339.01  1354.18  1421.92
                             1443.67  1485.08  1498.55  1556.71  1581.88
                             1604.59  1678.36  1729.39  1739.29  1754.71
                             1812.97  1843.75  1893.21  1920.42  1925.63
                             1967.30  2020.14  2075.22  2124.93  2153.16
                             2169.85  4320.27  4366.45  4375.92  4450.88
                             4458.34  4461.36  4491.54  4584.25  4618.55
                             5437.36

 Zero-point correction=                           0.159626 (Hartree/Particle)
 Thermal correction to Energy=                    0.167317
 Thermal correction to Enthalpy=                  0.168261
 Thermal correction to Gibbs Free Energy=         0.127993
 Sum of electronic and zero-point Energies=           -422.988325
 Sum of electronic and thermal Energies=              -422.980634
 Sum of electronic and thermal Enthalpies=            -422.979690
 Sum of electronic and thermal Free Energies=         -423.019957

                     E (Thermal)             CV                S
                      KCal/Mol        Cal/Mol-Kelvin    Cal/Mol-Kelvin
 Total                  104.993             31.309             84.750
 Electronic               0.000              0.000              0.000
 Translational            0.889              2.981             40.409
 Rotational               0.889              2.981             28.241
 Vibrational            103.215             25.348             16.100
 Vibration     1          0.610              1.930              3.056
 Vibration     2          0.651              1.799              1.899
 Vibration     3          0.662              1.766              1.745
 Vibration     4          0.690              1.682              1.443
 Vibration     5          0.708              1.630              1.297
 Vibration     6          0.743              1.531              1.074
 Vibration     7          0.761              1.482              0.983
 Vibration     8          0.787              1.415              0.874
 Vibration     9          0.894              1.163              0.567
 Vibration    10          0.937              1.074              0.485

 Optimization completed.
    -- Stationary point found.
 Normal termination of Gaussian 09 at Tue Jan 28 04:20:16 2020.
