 Gaussian 09, Revision D.01,
 Gaussian 09:  ES64L-G09RevD.01 24-Apr-2013

 -----------------------------
 # b3lyp 6-31G(2df,p) opt Freq
 -----------------------------

 -----
 titel
 -----
 Symbolic Z-matrix:
 Charge =  0 Multiplicity = 1

 SCF Done:  E(RB3LYP) =  -423.178220072     A.U. after   13 cycles
 Optimization completed.
    -- Stationary point found.
 Normal termination of Gaussian 09 at Mon Jan 27 11:18:19 2020.

 ----------------------------------------------------------------------
 #N Geom=AllCheck Guess=TCheck SCRF=Check GenChk RB3LYP/6-31G(2df,p) Fr
 eq
 ----------------------------------------------------------------------

 Structure from the checkpoint file:  "/scratch/puck/g09_d0a07d54-5a1c-4a49-8a87-10e2d235424c/Gau-49387.chk"
 -----
 titel
 -----
 Charge =  0 Multiplicity = 1

                         Standard orientation:
 ---------------------------------------------------------------------
 Center     Atomic      Atomic             Coordinates (Angstroms)
 Number     Number       Type             X           Y           Z
 ---------------------------------------------------------------------
      1          6           0        0.000021    0.000000    1.527857
      2          6           0        0.000000   -0.759602    0.226008
      3          6           0        1.347521   -1.162317   -0.333268
      4          8           0        2.173437    0.000000   -0.211178
      5          6           0        1.347521    1.162317   -0.333268
      6          6           0        0.000000    0.759602    0.226009
      7          6           0       -1.347526    1.162341   -0.333212
      8          8           0       -2.173436    0.000000   -0.211260
      9          6           0       -1.347526   -1.162341   -0.333213
     10          1           0       -0.918217   -0.000001    2.105492
     11          1           0        0.918251   -0.000001    2.105502
     12          1           0        1.855809   -1.966017    0.208788
     13          1           0        1.239543   -1.469165   -1.387173
     14          1           0        1.855808    1.966018    0.208788
     15          1           0        1.239541    1.469165   -1.387172
     16          1           0       -1.855812    1.965959    0.208972
     17          1           0       -1.239586    1.469348   -1.387073
     18          1           0       -1.855812   -1.965959    0.208973
     19          1           0       -1.239588   -1.469349   -1.387073
 ---------------------------------------------------------------------

 SCF Done:  E(RB3LYP) =  -423.178220072     A.U. after    1 cycles

 The electronic state is 1-A.
 Alpha  occ. eigenvalues --  -19.14051 -19.14050 -10.23367 -10.23366 -10.23365
 Alpha  occ. eigenvalues --  -10.23365 -10.19832 -10.19807 -10.19056  -1.04294
 Alpha  occ. eigenvalues --   -1.03100  -0.86771  -0.75989  -0.71316  -0.67713
 Alpha  occ. eigenvalues --   -0.63458  -0.57377  -0.55168  -0.51718  -0.48626
 Alpha  occ. eigenvalues --   -0.46879  -0.46091  -0.44216  -0.43396  -0.40093
 Alpha  occ. eigenvalues --   -0.39806  -0.39355  -0.36614  -0.36385  -0.29745
 Alpha  occ. eigenvalues --   -0.29176  -0.28446  -0.25496  -0.25244
 Alpha virt. eigenvalues --    0.08890   0.09031   0.10309   0.11813   0.12451
 Alpha virt. eigenvalues --    0.13250   0.14108   0.15183   0.15820   0.16067
 Alpha virt. eigenvalues --    0.17226   0.18385   0.19438   0.19541   0.20718

 Mulliken charges:
               1
     1  C   -0.370229
     2  C    0.236507
     3  C   -0.161334
     4  O   -0.257740
     5  C   -0.161334
     6  C    0.236507
     7  C   -0.161328
     8  O   -0.257754
     9  C   -0.161328
    10  H    0.124524
    11  H    0.124528
    12  H    0.111774
    13  H    0.090472
    14  H    0.111774
    15  H    0.090472
    16  H    0.111772
    17  H    0.090473
    18  H    0.111772
    19  H    0.090473
 Sum of Mulliken charges =   0.00000

 Dipole moment (field-independent basis, Debye):
    X=              0.0001    Y=              0.0000    Z=             -0.1509  Tot=              0.1509
 Quadrupole moment (field-independent basis, Debye-Ang):
   XX=            -62.5555   YY=            -48.7631   ZZ=            -51.8237
   XY=              0.0000   XZ=             -0.0005   YZ=              0.0000

  Exact polarizability:  73.461   0.000  77.904   0.000   0.000  69.634
 Approx polarizability: 103.799   0.000 116.690   0.000   0.000 105.092

                      1                      2                      3
                      A                      A                      A
 Frequencies --    204.6246               206.9513               239.0627
 Red. masses --      5.0093                 2.0530                 2.5403
 Frc consts  --      0.1236                 0.0518                 0.0855
 IR Inten    --     13.0763                 0.0000                 2.5010

                      4                      5                      6
                      A                      A                      A
 Frequencies --    331.7391               336.3145               402.3077
 Red. masses --      1.9322                 2.6174                 1.9578
 Frc consts  --      0.1253                 0.1744                 0.1867
 IR Inten    --      0.8744                 3.3093                 0.1177

                      7                      8                      9
                      A                      A                      A
 Frequencies --    505.8800               559.0476               611.4936
 Red. masses --      2.9287                 7.9314                 3.8736
 Frc consts  --      0.4416                 1.4605                 0.8534
 IR Inten    --      0.7252                 0.0452                 0.0000

                     10                     11                     12
                      A                      A                      A
 Frequencies --    708.9440               764.8745               811.6866
 Red. masses --      3.6202                 3.4981                 3.4952
 Frc consts  --      1.0720                 1.2058                 1.3568
 IR Inten    --      0.1294                26.7092                 0.0031

                     13                     14                     15
                      A                      A                      A
 Frequencies --    905.9084               919.1051               940.5454
 Red. masses --      3.8079                 4.1218                 1.6371
 Frc consts  --      1.8412                 2.0515                 0.8532
 IR Inten    --      5.6352                54.0657                 8.5165

                     16                     17                     18
                      A                      A                      A
 Frequencies --    942.4694               942.6878              1005.5666
 Red. masses --      4.6023                 1.2301                 1.7294
 Frc consts  --      2.4086                 0.6441                 1.0303
 IR Inten    --      3.8212                 0.0000                 1.4941

                     19                     20                     21
                      A                      A                      A
 Frequencies --   1010.5263              1033.4860              1053.2495
 Red. masses --      1.9612                 3.3906                 3.4472
 Frc consts  --      1.1800                 2.1337                 2.2531
 IR Inten    --      0.0000                11.4904                 0.0000

                     22                     23                     24
                      A                      A                      A
 Frequencies --   1066.1524              1102.6191              1106.6929
 Red. masses --      1.4543                 3.3311                 2.1425
 Frc consts  --      0.9739                 2.3861                 1.5461
 IR Inten    --     48.9311                80.9141                 0.2316

                     25                     26                     27
                      A                      A                      A
 Frequencies --   1180.0196              1203.9626              1233.3634
 Red. masses --      1.9244                 1.0980                 1.3987
 Frc consts  --      1.5788                 0.9377                 1.2536
 IR Inten    --      0.6960                 0.0000                 5.7062

                     28                     29                     30
                      A                      A                      A
 Frequencies --   1245.3776              1252.2873              1273.7370
 Red. masses --      1.5459                 1.2256                 1.8242
 Frc consts  --      1.4127                 1.1325                 1.7437
 IR Inten    --     32.0024                 3.3631                 0.3399

                     31                     32                     33
                      A                      A                      A
 Frequencies --   1274.0490              1349.2407              1351.5204
 Red. masses --      1.5497                 1.2276                 2.8729
 Frc consts  --      1.4821                 1.3167                 3.0918
 IR Inten    --      0.0000                 0.0004                 2.0591

                     34                     35                     36
                      A                      A                      A
 Frequencies --   1394.1107              1395.5238              1406.1243
 Red. masses --      1.6601                 2.1533                 1.2808
 Frc consts  --      1.9010                 2.4708                 1.4920
 IR Inten    --     25.0386                 0.0000                 0.6304

                     37                     38                     39
                      A                      A                      A
 Frequencies --   1472.2493              1506.2433              1514.5182
 Red. masses --      1.4632                 1.0855                 1.0877
 Frc consts  --      1.8686                 1.4510                 1.4699
 IR Inten    --      3.9725                 0.0000                 0.7515

                     40                     41                     42
                      A                      A                      A
 Frequencies --   1515.7141              1526.8002              2958.5487
 Red. masses --      1.0955                 1.0975                 1.0700
 Frc consts  --      1.4829                 1.5073                 5.5179
 IR Inten    --      0.0423                 1.2522                 0.0001

                     43                     44                     45
                      A                      A                      A
 Frequencies --   2962.1957              2966.6952              2974.1746
 Red. masses --      1.0712                 1.0699                 1.0723
 Frc consts  --      5.5381                 5.5483                 5.5885
 IR Inten    --      1.1626               123.8928               159.3228

                     46                     47                     48
                      A                      A                      A
 Frequencies --   3069.7911              3071.7280              3071.9455
 Red. masses --      1.0904                 1.0929                 1.0909
 Frc consts  --      6.0540                 6.0755                 6.0657
 IR Inten    --      0.0039                42.6084                78.6131

                     49                     50                     51
                      A                      A                      A
 Frequencies --   3074.8957              3130.7937              3223.7280
 Red. masses --      1.0931                 1.0533                 1.1178
 Frc consts  --      6.0892                 6.0829                 6.8445
 IR Inten    --     23.2887                 8.7461                 3.1328

 - Thermochemistry -
 -------------------
 Temperature   298.150 Kelvin.  Pressure   1.00000 Atm.
 Atom     1 has atomic number  6 and mass  12.00000

 Molecular mass:   126.06808 amu.
 Principal axes and moments of inertia in atomic units:
                           1         2         3
     Eigenvalues --   556.521721117.433171296.40907
           X            1.00000   0.00000   0.00000
           Y            0.00000   1.00000   0.00000
           Z            0.00000   0.00000   1.00000
 This molecule is an asymmetric top.
 Rotational symmetry number  1.
 Warning -- assumption of classical behavior for rotation
           may cause significant error
 Rotational temperatures (Kelvin)      0.15563     0.07751     0.06681
 Rotational constants (GHZ):           3.24289     1.61508     1.39211
 Zero-point vibrational energy     426536.1 (Joules/Mol)
                                  101.94458 (Kcal/Mol)
 Warning -- explicit consideration of   9 degrees of freedom as
           vibrations may cause significant error
 Vibrational temperatures:    294.41   297.76   343.96   477.30   483.88
          (Kelvin)            578.83   727.85   804.34   879.80  1020.01
                             1100.48  1167.83  1303.40  1322.39  1353.23
                             1356.00  1356.32  1446.78  1453.92  1486.95
                             1515.39  1533.95  1586.42  1592.28  1697.78
                             1732.23  1774.53  1791.82  1801.76  1832.62
                             1833.07  1941.25  1944.53  2005.81  2007.84
                             2023.10  2118.24  2167.15  2179.05  2180.77
                             2196.72  4256.69  4261.93  4268.41  4279.17
                             4416.74  4419.53  4419.84  4424.08  4504.51
                             4638.22

 Zero-point correction=                           0.162459 (Hartree/Particle)
 Thermal correction to Energy=                    0.169412
 Thermal correction to Enthalpy=                  0.170357
 Thermal correction to Gibbs Free Energy=         0.131451
 Sum of electronic and zero-point Energies=           -423.015761
 Sum of electronic and thermal Energies=              -423.008808
 Sum of electronic and thermal Enthalpies=            -423.007863
 Sum of electronic and thermal Free Energies=         -423.046769

                     E (Thermal)             CV                S
                      KCal/Mol        Cal/Mol-Kelvin    Cal/Mol-Kelvin
 Total                  106.308             28.385             81.884
 Electronic               0.000              0.000              0.000
 Translational            0.889              2.981             40.409
 Rotational               0.889              2.981             28.180
 Vibrational            104.530             22.424             13.296
 Vibration     1          0.640              1.833              2.091
 Vibration     2          0.641              1.830              2.070
 Vibration     3          0.657              1.781              1.810
 Vibration     4          0.714              1.612              1.252
 Vibration     5          0.717              1.603              1.230
 Vibration     6          0.768              1.465              0.954
 Vibration     7          0.861              1.237              0.644
 Vibration     8          0.915              1.120              0.526
 Vibration     9          0.971              1.008              0.430

 Optimization completed.
    -- Stationary point found.
 Normal termination of Gaussian 09 at Mon Jan 27 12:09:42 2020.
