 Gaussian 09, Revision D.01,
 Gaussian 09:  ES64L-G09RevD.01 24-Apr-2013

 -----------------------------
 # b3lyp 6-31G(2df,p) opt Freq
 -----------------------------

 -----
 titel
 -----
 Symbolic Z-matrix:
 Charge =  0 Multiplicity = 1

 SCF Done:  E(RB3LYP) =  -423.124769396     A.U. after   14 cycles
 Optimization completed.
    -- Stationary point found.
 Normal termination of Gaussian 09 at Tue Jan 28 08:58:44 2020.

 ----------------------------------------------------------------------
 #N Geom=AllCheck Guess=TCheck SCRF=Check GenChk RB3LYP/6-31G(2df,p) Fr
 eq
 ----------------------------------------------------------------------

 Structure from the checkpoint file:  "/scratch/puck/g09_4934e577-a8c9-4b5b-8452-0a0f1c01b2a3/Gau-93599.chk"
 -----
 titel
 -----
 Charge =  0 Multiplicity = 1

                         Standard orientation:
 ---------------------------------------------------------------------
 Center     Atomic      Atomic             Coordinates (Angstroms)
 Number     Number       Type             X           Y           Z
 ---------------------------------------------------------------------
      1          6           0        2.977228   -0.115868   -0.043500
      2          6           0        1.636804   -0.776107    0.165603
      3          8           0        0.744912   -0.851490   -0.953035
      4          6           0        0.344181   -0.066739    0.179825
      5          6           0        0.289395    1.448872   -0.032668
      6          8           0       -1.009931    1.998583    0.037517
      7          6           0       -0.823706   -0.667589    0.965356
      8          6           0       -2.055023   -0.727183    0.180249
      9          6           0       -3.054735   -0.784363   -0.485827
     10          1           0        3.644773   -0.789087   -0.591200
     11          1           0        2.894207    0.813249   -0.610035
     12          1           0        3.445476    0.104286    0.922076
     13          1           0        1.686812   -1.705338    0.739146
     14          1           0        0.857568    1.949157    0.760634
     15          1           0        0.780097    1.673273   -0.989736
     16          1           0       -1.581298    1.516665   -0.572042
     17          1           0       -0.554196   -1.681055    1.281607
     18          1           0       -0.993836   -0.075048    1.871745
     19          1           0       -3.944310   -0.848976   -1.062273
 ---------------------------------------------------------------------

 SCF Done:  E(RB3LYP) =  -423.124769396     A.U. after    1 cycles

 The electronic state is 1-A.
 Alpha  occ. eigenvalues --  -19.14992 -19.13541 -10.24791 -10.24303 -10.23270
 Alpha  occ. eigenvalues --  -10.21619 -10.18940 -10.18907 -10.17662  -1.07363
 Alpha  occ. eigenvalues --   -1.01782  -0.79840  -0.75316  -0.73182  -0.69562
 Alpha  occ. eigenvalues --   -0.62431  -0.57608  -0.53414  -0.50682  -0.49318
 Alpha  occ. eigenvalues --   -0.47930  -0.46199  -0.43424  -0.42730  -0.41696
 Alpha  occ. eigenvalues --   -0.40379  -0.38630  -0.36670  -0.33462  -0.30705
 Alpha  occ. eigenvalues --   -0.28217  -0.27397  -0.26662  -0.25493
 Alpha virt. eigenvalues --    0.04285   0.05388   0.08339   0.09610   0.10314
 Alpha virt. eigenvalues --    0.11584   0.12287   0.12531   0.14410   0.15740
 Alpha virt. eigenvalues --    0.16784   0.17090   0.17976   0.19824   0.21593

 Mulliken charges:
               1
     1  C   -0.427865
     2  C    0.031966
     3  O   -0.286671
     4  C    0.311959
     5  C   -0.120754
     6  O   -0.416680
     7  C   -0.415873
     8  C    0.311674
     9  C   -0.453609
    10  H    0.133710
    11  H    0.131351
    12  H    0.125231
    13  H    0.085972
    14  H    0.112801
    15  H    0.106038
    16  H    0.291277
    17  H    0.133692
    18  H    0.144399
    19  H    0.201381
 Sum of Mulliken charges =   0.00000

 Dipole moment (field-independent basis, Debye):
    X=              1.2140    Y=             -0.5387    Z=              0.9462  Tot=              1.6307
 Quadrupole moment (field-independent basis, Debye-Ang):
   XX=            -46.7925   YY=            -57.5297   ZZ=            -52.6933
   XY=              1.6353   XZ=              4.5296   YZ=             -3.2112

  Exact polarizability: 102.671   0.736  66.751   9.046  -0.804  63.284
 Approx polarizability: 136.918  -1.482  95.627  21.263   2.330 105.777

                      1                      2                      3
                      A                      A                      A
 Frequencies --     47.6292                83.6100               127.6147
 Red. masses --      2.7127                 3.6146                 4.1289
 Frc consts  --      0.0036                 0.0149                 0.0396
 IR Inten    --      3.1916                 0.7780                 0.5767

                      4                      5                      6
                      A                      A                      A
 Frequencies --    163.0198               201.4989               231.1530
 Red. masses --      1.1217                 2.8707                 3.2831
 Frc consts  --      0.0176                 0.0687                 0.1034
 IR Inten    --      0.2946                 0.4851                 1.4316

                      7                      8                      9
                      A                      A                      A
 Frequencies --    275.5775               338.7427               371.6139
 Red. masses --      3.5234                 3.0302                 2.3586
 Frc consts  --      0.1577                 0.2049                 0.1919
 IR Inten    --      3.8920                 2.9444                32.1242

                     10                     11                     12
                      A                      A                      A
 Frequencies --    393.3186               426.0159               449.4221
 Red. masses --      4.4083                 1.2395                 3.5331
 Frc consts  --      0.4018                 0.1325                 0.4205
 IR Inten    --      3.8608               121.3861                18.2978

                     13                     14                     15
                      A                      A                      A
 Frequencies --    492.2239               564.8383               616.5728
 Red. masses --      3.6154                 3.9264                 1.2093
 Frc consts  --      0.5161                 0.7381                 0.2709
 IR Inten    --     16.7965                11.7763                42.3154

                     16                     17                     18
                      A                      A                      A
 Frequencies --    646.3084               739.6088               826.2387
 Red. masses --      1.2339                 4.3013                 3.4262
 Frc consts  --      0.3037                 1.3863                 1.3781
 IR Inten    --     45.9348                13.9664                 1.6415

                     19                     20                     21
                      A                      A                      A
 Frequencies --    887.4535               920.2044               937.0339
 Red. masses --      2.0893                 2.5529                 3.9579
 Frc consts  --      0.9695                 1.2737                 2.0475
 IR Inten    --     14.9993                12.9890                 2.4148

                     22                     23                     24
                      A                      A                      A
 Frequencies --    989.1033              1026.8220              1036.2732
 Red. masses --      1.4038                 2.2780                 2.0567
 Frc consts  --      0.8092                 1.4151                 1.3013
 IR Inten    --     11.7517                10.5325                42.7452

                     25                     26                     27
                      A                      A                      A
 Frequencies --   1101.7944              1124.5343              1167.5683
 Red. masses --      5.0630                 2.2433                 1.9026
 Frc consts  --      3.6213                 1.6714                 1.5281
 IR Inten    --     51.2953                15.7138                 8.2053

                     28                     29                     30
                      A                      A                      A
 Frequencies --   1190.1953              1241.9090              1268.4237
 Red. masses --      1.3992                 1.1926                 1.4996
 Frc consts  --      1.1678                 1.0838                 1.4215
 IR Inten    --      5.7535                 7.3300                 3.7834

                     31                     32                     33
                      A                      A                      A
 Frequencies --   1324.4972              1344.7761              1388.7967
 Red. masses --      1.6437                 1.3496                 1.2639
 Frc consts  --      1.6989                 1.4380                 1.4363
 IR Inten    --      2.8167                 2.4175                 6.4557

                     34                     35                     36
                      A                      A                      A
 Frequencies --   1409.2894              1434.7645              1450.7187
 Red. masses --      1.2596                 1.2433                 1.0884
 Frc consts  --      1.4739                 1.5079                 1.3496
 IR Inten    --      3.0688                29.9776                 8.9579

                     37                     38                     39
                      A                      A                      A
 Frequencies --   1465.0799              1488.2006              1497.8405
 Red. masses --      1.5483                 1.1055                 1.1090
 Frc consts  --      1.9580                 1.4426                 1.4659
 IR Inten    --     11.3718                 5.4565                 2.9725

                     40                     41                     42
                      A                      A                      A
 Frequencies --   1509.7781              2233.1146              3005.8738
 Red. masses --      1.4480                 5.9359                 1.0618
 Frc consts  --      1.9447                17.4406                 5.6525
 IR Inten    --      5.5956                 2.4029                40.5474

                     43                     44                     45
                      A                      A                      A
 Frequencies --   3037.8264              3040.7796              3059.9153
 Red. masses --      1.0582                 1.0382                 1.1009
 Frc consts  --      5.7537                 5.6561                 6.0733
 IR Inten    --      8.1197                22.4344                22.7038

                     46                     47                     48
                      A                      A                      A
 Frequencies --   3071.1053              3079.7289              3101.1660
 Red. masses --      1.0864                 1.1018                 1.1005
 Frc consts  --      6.0373                 6.1569                 6.2357
 IR Inten    --     25.9759                10.3345                15.7248

                     49                     50                     51
                      A                      A                      A
 Frequencies --   3138.6994              3503.7725              3788.6643
 Red. masses --      1.0995                 1.1617                 1.0662
 Frc consts  --      6.3818                 8.4029                 9.0167
 IR Inten    --     20.1763                71.4717                49.7318

 - Thermochemistry -
 -------------------
 Temperature   298.150 Kelvin.  Pressure   1.00000 Atm.
 Atom     1 has atomic number  6 and mass  12.00000

 Molecular mass:   126.06808 amu.
 Principal axes and moments of inertia in atomic units:
                           1         2         3
     Eigenvalues --   656.991341550.133721922.18485
           X            0.99993   0.00805   0.00818
           Y           -0.00776   0.99938  -0.03425
           Z           -0.00845   0.03418   0.99938
 This molecule is an asymmetric top.
 Rotational symmetry number  1.
 Warning -- assumption of classical behavior for rotation
           may cause significant error
 Rotational temperatures (Kelvin)      0.13183     0.05588     0.04506
 Rotational constants (GHZ):           2.74698     1.16425     0.93890
 Zero-point vibrational energy     408289.7 (Joules/Mol)
                                   97.58358 (Kcal/Mol)
 Warning -- explicit consideration of  15 degrees of freedom as
           vibrations may cause significant error
 Vibrational temperatures:     68.53   120.30   183.61   234.55   289.91
          (Kelvin)            332.58   396.49   487.37   534.67   565.90
                              612.94   646.62   708.20   812.68   887.11
                              929.89  1064.13  1188.77  1276.85  1323.97
                             1348.18  1423.10  1477.37  1490.96  1585.23
                             1617.95  1679.87  1712.42  1786.83  1824.98
                             1905.65  1934.83  1998.17  2027.65  2064.30
                             2087.26  2107.92  2141.19  2155.06  2172.23
                             3212.95  4324.78  4370.75  4375.00  4402.53
                             4418.63  4431.04  4461.88  4515.88  5041.14
                             5451.04

 Zero-point correction=                           0.155509 (Hartree/Particle)
 Thermal correction to Energy=                    0.165655
 Thermal correction to Enthalpy=                  0.166599
 Thermal correction to Gibbs Free Energy=         0.120170
 Sum of electronic and zero-point Energies=           -422.969260
 Sum of electronic and thermal Energies=              -422.959114
 Sum of electronic and thermal Enthalpies=            -422.958170
 Sum of electronic and thermal Free Energies=         -423.004599

                     E (Thermal)             CV                S
                      KCal/Mol        Cal/Mol-Kelvin    Cal/Mol-Kelvin
 Total                  103.950             36.938             97.718
 Electronic               0.000              0.000              0.000
 Translational            0.889              2.981             40.409
 Rotational               0.889              2.981             29.061
 Vibrational            102.173             30.976             28.249
 Vibration     1          0.595              1.978              4.913
 Vibration     2          0.601              1.960              3.804
 Vibration     3          0.611              1.926              2.982
 Vibration     4          0.623              1.888              2.514
 Vibration     5          0.638              1.838              2.119
 Vibration     6          0.653              1.793              1.870
 Vibration     7          0.677              1.719              1.561
 Vibration     8          0.719              1.598              1.218
 Vibration     9          0.743              1.530              1.073
 Vibration    10          0.761              1.484              0.988
 Vibration    11          0.788              1.414              0.872
 Vibration    12          0.808              1.362              0.798
 Vibration    13          0.848              1.267              0.678
 Vibration    14          0.921              1.107              0.514
 Vibration    15          0.976              0.997              0.422

 Optimization completed.
    -- Stationary point found.
 Normal termination of Gaussian 09 at Tue Jan 28 09:38:12 2020.
