 Gaussian 09, Revision D.01,
 Gaussian 09:  ES64L-G09RevD.01 24-Apr-2013

 -----------------------------
 # b3lyp 6-31G(2df,p) opt Freq
 -----------------------------

 -----
 titel
 -----
 Symbolic Z-matrix:
 Charge =  0 Multiplicity = 1

 SCF Done:  E(RB3LYP) =  -423.173859323     A.U. after   13 cycles
 Optimization completed.
    -- Stationary point found.
 Normal termination of Gaussian 09 at Tue Jan 28 09:16:48 2020.

 ----------------------------------------------------------------------
 #N Geom=AllCheck Guess=TCheck SCRF=Check GenChk RB3LYP/6-31G(2df,p) Fr
 eq
 ----------------------------------------------------------------------

 Structure from the checkpoint file:  "/scratch/puck/g09_9369bd11-198f-4240-a46a-2537904c3f66/Gau-82366.chk"
 -----
 titel
 -----
 Charge =  0 Multiplicity = 1

                         Standard orientation:
 ---------------------------------------------------------------------
 Center     Atomic      Atomic             Coordinates (Angstroms)
 Number     Number       Type             X           Y           Z
 ---------------------------------------------------------------------
      1          8           0        2.004806   -0.503259   -0.934560
      2          6           0        1.693459   -0.481135    0.465528
      3          6           0        0.199846   -0.374809    0.581617
      4          6           0       -0.406176    0.653746    1.520440
      5          6           0       -0.463395    0.885091    0.033683
      6          8           0        0.284609    1.933641   -0.496738
      7          6           0       -1.703323    0.413297   -0.655141
      8          6           0       -1.835107   -0.911791   -0.569236
      9          6           0       -0.671793   -1.558247    0.157305
     10          1           0        2.952711   -0.638549   -1.031315
     11          1           0        2.063398   -1.394047    0.956916
     12          1           0        2.171633    0.380418    0.950492
     13          1           0       -1.324411    0.412840    2.045972
     14          1           0        0.295757    1.269574    2.073759
     15          1           0        0.837368    1.546932   -1.188934
     16          1           0       -2.391599    1.101051   -1.132595
     17          1           0       -2.677574   -1.485217   -0.939432
     18          1           0       -1.007324   -2.156880    1.014479
     19          1           0       -0.116340   -2.236098   -0.504127
 ---------------------------------------------------------------------

 SCF Done:  E(RB3LYP) =  -423.173859323     A.U. after    1 cycles

 The electronic state is 1-A.
 Alpha  occ. eigenvalues --  -19.14441 -19.13187 -10.23231 -10.22945 -10.18787
 Alpha  occ. eigenvalues --  -10.18279 -10.18110 -10.17646 -10.17284  -1.02616
 Alpha  occ. eigenvalues --   -1.01464  -0.87417  -0.76606  -0.71794  -0.67061
 Alpha  occ. eigenvalues --   -0.59838  -0.55560  -0.54017  -0.51342  -0.49602
 Alpha  occ. eigenvalues --   -0.46437  -0.44682  -0.42757  -0.41774  -0.39325
 Alpha  occ. eigenvalues --   -0.38075  -0.37197  -0.35005  -0.33062  -0.32371
 Alpha  occ. eigenvalues --   -0.28304  -0.27402  -0.25253  -0.22411
 Alpha virt. eigenvalues --    0.02222   0.06135   0.11465   0.11754   0.13351
 Alpha virt. eigenvalues --    0.13578   0.14648   0.15802   0.16232   0.16919
 Alpha virt. eigenvalues --    0.17824   0.18452   0.21111   0.22073   0.23434

 Mulliken charges:
               1
     1  O   -0.429508
     2  C   -0.197734
     3  C    0.273801
     4  C   -0.381408
     5  C    0.382013
     6  O   -0.480614
     7  C   -0.157639
     8  C   -0.070756
     9  C   -0.342995
    10  H    0.289413
    11  H    0.092468
    12  H    0.098232
    13  H    0.109894
    14  H    0.114644
    15  H    0.288000
    16  H    0.097325
    17  H    0.093526
    18  H    0.105403
    19  H    0.115938
 Sum of Mulliken charges =   0.00000

 Dipole moment (field-independent basis, Debye):
    X=              1.4805    Y=             -1.6725    Z=              0.3919  Tot=              2.2678
 Quadrupole moment (field-independent basis, Debye-Ang):
   XX=            -44.4652   YY=            -56.3212   ZZ=            -52.5178
   XY=             -0.5407   XZ=             -0.4080   YZ=             -0.5368

  Exact polarizability:  80.250   0.985  79.794   3.158   0.508  67.518
 Approx polarizability: 107.644   1.358 130.426   2.629  -0.841 102.417

                      1                      2                      3
                      A                      A                      A
 Frequencies --     90.5408               142.6513               219.3452
 Red. masses --      3.7626                 4.3613                 2.5572
 Frc consts  --      0.0182                 0.0523                 0.0725
 IR Inten    --      4.9814                 0.9907                 1.5188

                      4                      5                      6
                      A                      A                      A
 Frequencies --    263.2163               296.6153               335.9810
 Red. masses --      2.7175                 1.9091                 1.3846
 Frc consts  --      0.1109                 0.0990                 0.0921
 IR Inten    --     14.1201                19.8192                66.5418

                      7                      8                      9
                      A                      A                      A
 Frequencies --    398.4154               411.8603               458.8022
 Red. masses --      2.5127                 1.9157                 1.5501
 Frc consts  --      0.2350                 0.1915                 0.1922
 IR Inten    --     13.0563                66.2188                34.2087

                     10                     11                     12
                      A                      A                      A
 Frequencies --    485.0577               552.2432               570.8293
 Red. masses --      2.3971                 2.8071                 4.1951
 Frc consts  --      0.3323                 0.5044                 0.8054
 IR Inten    --      1.2320                 6.1395                11.7382

                     13                     14                     15
                      A                      A                      A
 Frequencies --    695.0147               755.5536               761.0099
 Red. masses --      3.7064                 1.5552                 4.4427
 Frc consts  --      1.0549                 0.5231                 1.5159
 IR Inten    --      8.9176                37.6621                 1.9776

                     16                     17                     18
                      A                      A                      A
 Frequencies --    796.4854               907.4835               915.8314
 Red. masses --      3.1016                 2.2842                 2.1449
 Frc consts  --      1.1593                 1.1083                 1.0599
 IR Inten    --      2.7192                 2.4013                 8.0137

                     19                     20                     21
                      A                      A                      A
 Frequencies --    947.9802               953.9818               970.1613
 Red. masses --      1.5984                 1.4635                 1.5075
 Frc consts  --      0.8463                 0.7847                 0.8360
 IR Inten    --      2.7901                 4.1413                 1.8238

                     22                     23                     24
                      A                      A                      A
 Frequencies --    988.4146              1005.2877              1035.1225
 Red. masses --      1.9015                 2.2007                 4.8231
 Frc consts  --      1.0945                 1.3103                 3.0448
 IR Inten    --      3.2223                 8.2895                43.7382

                     25                     26                     27
                      A                      A                      A
 Frequencies --   1070.1236              1093.8352              1146.0897
 Red. masses --      1.3157                 1.4890                 1.4642
 Frc consts  --      0.8877                 1.0497                 1.1331
 IR Inten    --      4.7512                32.1502                25.0330

                     28                     29                     30
                      A                      A                      A
 Frequencies --   1185.8193              1221.0597              1241.3106
 Red. masses --      1.5042                 1.5832                 1.2126
 Frc consts  --      1.2462                 1.3908                 1.1009
 IR Inten    --      5.9627                17.1230                17.3362

                     31                     32                     33
                      A                      A                      A
 Frequencies --   1256.0464              1284.3944              1321.2629
 Red. masses --      1.9955                 1.6158                 1.9128
 Frc consts  --      1.8549                 1.5705                 1.9674
 IR Inten    --     55.4966                49.0523                 9.2314

                     34                     35                     36
                      A                      A                      A
 Frequencies --   1361.8596              1378.2948              1404.3632
 Red. masses --      1.5246                 1.9625                 1.7916
 Frc consts  --      1.6659                 2.1965                 2.0819
 IR Inten    --     65.1164                 8.2406                 2.0394

                     37                     38                     39
                      A                      A                      A
 Frequencies --   1456.2736              1463.9401              1479.4622
 Red. masses --      1.6696                 1.1877                 1.2531
 Frc consts  --      2.0862                 1.4997                 1.6160
 IR Inten    --     21.3446                 2.3585                10.6456

                     40                     41                     42
                      A                      A                      A
 Frequencies --   1510.6312              1667.4753              2982.9842
 Red. masses --      1.0873                 6.3471                 1.0612
 Frc consts  --      1.4620                10.3979                 5.5635
 IR Inten    --      1.6288                 4.9051                59.7979

                     43                     44                     45
                      A                      A                      A
 Frequencies --   3015.5282              3029.5747              3045.8887
 Red. masses --      1.0587                 1.1009                 1.1024
 Frc consts  --      5.6722                 5.9533                 6.0259
 IR Inten    --     36.0512                36.4442                18.5191

                     46                     47                     48
                      A                      A                      A
 Frequencies --   3123.2613              3186.9884              3212.3315
 Red. masses --      1.0537                 1.0848                 1.1041
 Frc consts  --      6.0557                 6.4918                 6.7128
 IR Inten    --     14.0319                 6.7206                23.3898

                     49                     50                     51
                      A                      A                      A
 Frequencies --   3215.5652              3758.5879              3820.3838
 Red. masses --      1.1175                 1.0657                 1.0662
 Frc consts  --      6.8077                 8.8704                 9.1687
 IR Inten    --      5.6280                43.7962                19.1956

 - Thermochemistry -
 -------------------
 Temperature   298.150 Kelvin.  Pressure   1.00000 Atm.
 Atom     1 has atomic number  8 and mass  15.99491

 Molecular mass:   126.06808 amu.
 Principal axes and moments of inertia in atomic units:
                           1         2         3
     Eigenvalues --   791.958601064.481431299.69874
           X            0.99981   0.01209   0.01516
           Y           -0.01217   0.99991   0.00553
           Z           -0.01509  -0.00571   0.99987
 This molecule is an asymmetric top.
 Rotational symmetry number  1.
 Warning -- assumption of classical behavior for rotation
           may cause significant error
 Rotational temperatures (Kelvin)      0.10937     0.08137     0.06664
 Rotational constants (GHZ):           2.27883     1.69542     1.38858
 Zero-point vibrational energy     418042.3 (Joules/Mol)
                                   99.91451 (Kcal/Mol)
 Warning -- explicit consideration of  12 degrees of freedom as
           vibrations may cause significant error
 Vibrational temperatures:    130.27   205.24   315.59   378.71   426.76
          (Kelvin)            483.40   573.23   592.57   660.11   697.89
                              794.55   821.29   999.97  1087.07  1094.92
                             1145.96  1305.66  1317.68  1363.93  1372.57
                             1395.84  1422.11  1446.38  1489.31  1539.67
                             1573.78  1648.97  1706.13  1756.83  1785.97
                             1807.17  1847.95  1901.00  1959.41  1983.06
                             2020.56  2095.25  2106.28  2128.61  2173.46
                             2399.12  4291.84  4338.67  4358.88  4382.35
                             4493.67  4585.36  4621.82  4626.48  5407.76
                             5496.67

 Zero-point correction=                           0.159224 (Hartree/Particle)
 Thermal correction to Energy=                    0.167655
 Thermal correction to Enthalpy=                  0.168599
 Thermal correction to Gibbs Free Energy=         0.126614
 Sum of electronic and zero-point Energies=           -423.014635
 Sum of electronic and thermal Energies=              -423.006205
 Sum of electronic and thermal Enthalpies=            -423.005260
 Sum of electronic and thermal Free Energies=         -423.047246

                     E (Thermal)             CV                S
                      KCal/Mol        Cal/Mol-Kelvin    Cal/Mol-Kelvin
 Total                  105.205             33.315             88.365
 Electronic               0.000              0.000              0.000
 Translational            0.889              2.981             40.409
 Rotational               0.889              2.981             28.484
 Vibrational            103.427             27.353             19.472
 Vibration     1          0.602              1.956              3.648
 Vibration     2          0.616              1.911              2.768
 Vibration     3          0.647              1.812              1.964
 Vibration     4          0.670              1.740              1.640
 Vibration     5          0.690              1.680              1.436
 Vibration     6          0.717              1.604              1.231
 Vibration     7          0.765              1.474              0.968
 Vibration     8          0.776              1.444              0.920
 Vibration     9          0.817              1.341              0.770
 Vibration    10          0.841              1.283              0.697
 Vibration    11          0.908              1.135              0.540
 Vibration    12          0.927              1.094              0.503

 Optimization completed.
    -- Stationary point found.
 Normal termination of Gaussian 09 at Tue Jan 28 10:12:19 2020.
