 Gaussian 09, Revision D.01,
 Gaussian 09:  ES64L-G09RevD.01 24-Apr-2013

 -----------------------------
 # b3lyp 6-31G(2df,p) opt Freq
 -----------------------------

 -----
 titel
 -----
 Symbolic Z-matrix:
 Charge =  0 Multiplicity = 1

 SCF Done:  E(RB3LYP) =  -423.123720549     A.U. after   14 cycles
 Optimization completed.
    -- Stationary point found.
 Normal termination of Gaussian 09 at Tue Jan 28 09:02:01 2020.

 ----------------------------------------------------------------------
 #N Geom=AllCheck Guess=TCheck SCRF=Check GenChk RB3LYP/6-31G(2df,p) Fr
 eq
 ----------------------------------------------------------------------

 Structure from the checkpoint file:  "/scratch/puck/g09_a3771c8c-b082-4c20-af2e-bd11c1c7dcf6/Gau-94142.chk"
 -----
 titel
 -----
 Charge =  0 Multiplicity = 1

                         Standard orientation:
 ---------------------------------------------------------------------
 Center     Atomic      Atomic             Coordinates (Angstroms)
 Number     Number       Type             X           Y           Z
 ---------------------------------------------------------------------
      1          6           0       -1.437976    1.445126    1.092643
      2          6           0       -1.019572    0.643657   -0.159714
      3          6           0       -1.870917   -0.532410   -0.345885
      4          6           0       -2.581973   -1.491633   -0.484011
      5          6           0        0.464146    0.268208   -0.121901
      6          6           0        0.915462   -0.724554    0.944557
      7          8           0        2.257472   -1.115477    0.756346
      8          6           0        1.447325    1.196523   -0.691659
      9          8           0        1.053877    0.008942   -1.404149
     10          1           0       -2.472914    1.781338    0.996376
     11          1           0       -1.368482    0.834264    1.996337
     12          1           0       -0.795534    2.322272    1.214214
     13          1           0       -1.144472    1.288832   -1.038490
     14          1           0       -3.206637   -2.339770   -0.619427
     15          1           0        0.849218   -0.266872    1.937232
     16          1           0        0.233191   -1.587866    0.928256
     17          1           0        2.337046   -1.325505   -0.183723
     18          1           0        1.113124    2.130712   -1.140098
     19          1           0        2.465694    1.185367   -0.312441
 ---------------------------------------------------------------------

 SCF Done:  E(RB3LYP) =  -423.123720549     A.U. after    1 cycles

 The electronic state is 1-A.
 Alpha  occ. eigenvalues --  -19.16130 -19.13507 -10.25066 -10.23757 -10.23105
 Alpha  occ. eigenvalues --  -10.22557 -10.19355 -10.18527 -10.17648  -1.08171
 Alpha  occ. eigenvalues --   -1.01535  -0.82386  -0.73499  -0.71557  -0.66942
 Alpha  occ. eigenvalues --   -0.65874  -0.58247  -0.54102  -0.51505  -0.50168
 Alpha  occ. eigenvalues --   -0.46838  -0.46459  -0.44553  -0.42074  -0.41202
 Alpha  occ. eigenvalues --   -0.39248  -0.38254  -0.37207  -0.33199  -0.31463
 Alpha  occ. eigenvalues --   -0.28753  -0.27898  -0.26910  -0.25738
 Alpha virt. eigenvalues --    0.04457   0.04705   0.08408   0.09378   0.09969
 Alpha virt. eigenvalues --    0.11302   0.12540   0.14202   0.14819   0.15665
 Alpha virt. eigenvalues --    0.16246   0.16898   0.17752   0.19765   0.22109

 Mulliken charges:
               1
     1  C   -0.399400
     2  C   -0.237920
     3  C    0.331292
     4  C   -0.465223
     5  C    0.382543
     6  C   -0.142019
     7  O   -0.419073
     8  C   -0.232191
     9  O   -0.289894
    10  H    0.133554
    11  H    0.135399
    12  H    0.120915
    13  H    0.116477
    14  H    0.199683
    15  H    0.115226
    16  H    0.111341
    17  H    0.292651
    18  H    0.114567
    19  H    0.132075
 Sum of Mulliken charges =   0.00000

 Dipole moment (field-independent basis, Debye):
    X=             -1.1286    Y=              1.5087    Z=              0.3970  Tot=              1.9255
 Quadrupole moment (field-independent basis, Debye-Ang):
   XX=            -54.5472   YY=            -48.5126   ZZ=            -56.2880
   XY=              3.7461   XZ=             -2.2575   YZ=              0.9588

  Exact polarizability:  84.992  12.534  81.278  -0.547   0.804  63.209
 Approx polarizability: 115.931  24.032 125.213  -0.032   3.437  96.552

                      1                      2                      3
                      A                      A                      A
 Frequencies --     56.7684               103.5619               155.0610
 Red. masses --      3.4577                 4.1526                 3.2034
 Frc consts  --      0.0066                 0.0262                 0.0454
 IR Inten    --      0.2678                 2.3404                 6.9352

                      4                      5                      6
                      A                      A                      A
 Frequencies --    179.5934               222.6735               237.3589
 Red. masses --      3.5655                 2.6307                 1.1340
 Frc consts  --      0.0678                 0.0769                 0.0376
 IR Inten    --      0.1207                 1.6383                 0.6782

                      7                      8                      9
                      A                      A                      A
 Frequencies --    276.1088               339.9114               353.2239
 Red. masses --      3.7851                 3.5064                 2.3836
 Frc consts  --      0.1700                 0.2387                 0.1752
 IR Inten    --      4.3639                 0.4062                33.9593

                     10                     11                     12
                      A                      A                      A
 Frequencies --    405.7913               483.0495               494.5559
 Red. masses --      5.4141                 1.5308                 2.3578
 Frc consts  --      0.5253                 0.2105                 0.3398
 IR Inten    --      0.8607                61.4442                36.9546

                     13                     14                     15
                      A                      A                      A
 Frequencies --    556.7959               610.7230               632.3717
 Red. masses --      3.9942                 3.6984                 1.2586
 Frc consts  --      0.7296                 0.8127                 0.2965
 IR Inten    --      8.6180                 7.1026                45.7564

                     16                     17                     18
                      A                      A                      A
 Frequencies --    646.8940               711.7183               835.2602
 Red. masses --      1.2461                 3.6157                 2.4175
 Frc consts  --      0.3072                 1.0791                 0.9937
 IR Inten    --     48.9001                 8.6794                11.6544

                     19                     20                     21
                      A                      A                      A
 Frequencies --    855.4667               914.4012               940.6712
 Red. masses --      2.8845                 1.7742                 3.0211
 Frc consts  --      1.2437                 0.8740                 1.5751
 IR Inten    --     19.7012                 2.0107                17.1439

                     22                     23                     24
                      A                      A                      A
 Frequencies --   1001.4399              1051.8385              1089.4352
 Red. masses --      1.6049                 2.1742                 2.4056
 Frc consts  --      0.9483                 1.4173                 1.6822
 IR Inten    --     11.6684                34.6708                 9.0867

                     25                     26                     27
                      A                      A                      A
 Frequencies --   1102.6599              1115.1628              1131.7975
 Red. masses --      4.5084                 1.6147                 1.3584
 Frc consts  --      3.2297                 1.1831                 1.0252
 IR Inten    --     58.5623                 1.4379                 2.5106

                     28                     29                     30
                      A                      A                      A
 Frequencies --   1171.8477              1230.2835              1253.6386
 Red. masses --      1.3432                 1.2040                 2.7832
 Frc consts  --      1.0868                 1.0737                 2.5771
 IR Inten    --      3.2636                18.9194                 4.9717

                     31                     32                     33
                      A                      A                      A
 Frequencies --   1281.1439              1320.3520              1375.6909
 Red. masses --      1.4594                 1.4441                 1.3730
 Frc consts  --      1.4113                 1.4833                 1.5309
 IR Inten    --      4.1164                 6.2752                18.9187

                     34                     35                     36
                      A                      A                      A
 Frequencies --   1406.2305              1423.7360              1441.9172
 Red. masses --      1.2464                 1.7456                 1.3263
 Frc consts  --      1.4521                 2.0847                 1.6247
 IR Inten    --      0.4335                 6.8895                45.7095

                     37                     38                     39
                      A                      A                      A
 Frequencies --   1492.2317              1502.4801              1507.1621
 Red. masses --      1.0458                 1.0512                 1.0903
 Frc consts  --      1.3721                 1.3981                 1.4592
 IR Inten    --      6.2423                 3.7036                 0.6595

                     40                     41                     42
                      A                      A                      A
 Frequencies --   1517.9948              2235.0822              2997.5811
 Red. masses --      1.4136                 5.9222                 1.0672
 Frc consts  --      1.9192                17.4310                 5.6500
 IR Inten    --      3.7467                 0.4542                38.5917

                     43                     44                     45
                      A                      A                      A
 Frequencies --   3028.2180              3047.2468              3073.1262
 Red. masses --      1.0824                 1.0350                 1.0939
 Frc consts  --      5.8482                 5.6626                 6.0870
 IR Inten    --      7.7004                14.3210                26.4467

                     46                     47                     48
                      A                      A                      A
 Frequencies --   3095.3749              3122.8180              3129.8796
 Red. masses --      1.0520                 1.1020                 1.1024
 Frc consts  --      5.9387                 6.3319                 6.3625
 IR Inten    --     21.0650                20.0461                17.4057

                     49                     50                     51
                      A                      A                      A
 Frequencies --   3192.7544              3503.5347              3764.7324
 Red. masses --      1.1180                 1.1622                 1.0649
 Frc consts  --      6.7149                 8.4051                 8.8929
 IR Inten    --     10.2869                67.5891                31.1938

 - Thermochemistry -
 -------------------
 Temperature   298.150 Kelvin.  Pressure   1.00000 Atm.
 Atom     1 has atomic number  6 and mass  12.00000

 Molecular mass:   126.06808 amu.
 Principal axes and moments of inertia in atomic units:
                           1         2         3
     Eigenvalues --   790.095601501.312111648.58209
           X            0.99989   0.00164  -0.01503
           Y           -0.00093   0.99891   0.04664
           Z            0.01509  -0.04662   0.99880
 This molecule is an asymmetric top.
 Rotational symmetry number  1.
 Warning -- assumption of classical behavior for rotation
           may cause significant error
 Rotational temperatures (Kelvin)      0.10962     0.05769     0.05254
 Rotational constants (GHZ):           2.28421     1.20211     1.09472
 Zero-point vibrational energy     410434.9 (Joules/Mol)
                                   98.09629 (Kcal/Mol)
 Warning -- explicit consideration of  14 degrees of freedom as
           vibrations may cause significant error
 Vibrational temperatures:     81.68   149.00   223.10   258.39   320.38
          (Kelvin)            341.51   397.26   489.06   508.21   583.84
                              695.00   711.55   801.10   878.69   909.84
                              930.74  1024.00  1201.75  1230.82  1315.62
                             1353.41  1440.85  1513.36  1567.45  1586.48
                             1604.47  1628.40  1686.03  1770.10  1803.70
                             1843.28  1899.69  1979.31  2023.25  2048.44
                             2074.59  2146.99  2161.73  2168.47  2184.05
                             3215.78  4312.85  4356.92  4384.30  4421.54
                             4453.55  4493.03  4503.19  4593.66  5040.80
                             5416.60

 Zero-point correction=                           0.156326 (Hartree/Particle)
 Thermal correction to Energy=                    0.166153
 Thermal correction to Enthalpy=                  0.167097
 Thermal correction to Gibbs Free Energy=         0.121636
 Sum of electronic and zero-point Energies=           -422.967394
 Sum of electronic and thermal Energies=              -422.957568
 Sum of electronic and thermal Enthalpies=            -422.956623
 Sum of electronic and thermal Free Energies=         -423.002084

                     E (Thermal)             CV                S
                      KCal/Mol        Cal/Mol-Kelvin    Cal/Mol-Kelvin
 Total                  104.263             36.425             95.680
 Electronic               0.000              0.000              0.000
 Translational            0.889              2.981             40.409
 Rotational               0.889              2.981             29.060
 Vibrational            102.485             30.464             26.212
 Vibration     1          0.596              1.975              4.566
 Vibration     2          0.605              1.946              3.386
 Vibration     3          0.620              1.897              2.609
 Vibration     4          0.629              1.867              2.333
 Vibration     5          0.648              1.807              1.937
 Vibration     6          0.656              1.783              1.823
 Vibration     7          0.678              1.718              1.558
 Vibration     8          0.720              1.596              1.213
 Vibration     9          0.729              1.569              1.152
 Vibration    10          0.771              1.458              0.942
 Vibration    11          0.839              1.288              0.702
 Vibration    12          0.850              1.262              0.672
 Vibration    13          0.912              1.125              0.530
 Vibration    14          0.970              1.009              0.432

 Optimization completed.
    -- Stationary point found.
 Normal termination of Gaussian 09 at Tue Jan 28 09:43:26 2020.
