 Gaussian 09, Revision D.01,
 Gaussian 09:  ES64L-G09RevD.01 24-Apr-2013

 -----------------------------
 # b3lyp 6-31G(2df,p) opt Freq
 -----------------------------

 -----
 titel
 -----
 Symbolic Z-matrix:
 Charge =  0 Multiplicity = 1

 SCF Done:  E(RB3LYP) =  -423.097971002     A.U. after   12 cycles
 Optimization completed.
    -- Stationary point found.
 Normal termination of Gaussian 09 at Tue Jan 28 09:18:09 2020.

 ----------------------------------------------------------------------
 #N Geom=AllCheck Guess=TCheck SCRF=Check GenChk RB3LYP/6-31G(2df,p) Fr
 eq
 ----------------------------------------------------------------------

 Structure from the checkpoint file:  "/scratch/puck/g09_19a7f1a8-78e3-43e5-883f-8d672dcb4e3d/Gau-46297.chk"
 -----
 titel
 -----
 Charge =  0 Multiplicity = 1

                         Standard orientation:
 ---------------------------------------------------------------------
 Center     Atomic      Atomic             Coordinates (Angstroms)
 Number     Number       Type             X           Y           Z
 ---------------------------------------------------------------------
      1          8           0        2.546370   -0.242575   -0.160110
      2          6           0        1.469141   -1.179397   -0.299302
      3          6           0        0.165494   -0.596105    0.167535
      4          6           0        0.012826    0.242812    1.429812
      5          6           0       -0.231846    0.855094    0.071123
      6          8           0        0.482797    1.923772   -0.438815
      7          6           0       -1.585857    0.474142   -0.584425
      8          6           0       -2.416118   -0.468978    0.238462
      9          6           0       -1.200441   -0.996074   -0.476442
     10          1           0        2.833133   -0.255308    0.758004
     11          1           0        1.407737   -1.396470   -1.372417
     12          1           0        1.714270   -2.125031    0.207484
     13          1           0       -0.747407    0.054748    2.180888
     14          1           0        0.959294    0.569202    1.853396
     15          1           0        1.396816    1.620893   -0.529830
     16          1           0       -1.968702    1.013213   -1.440557
     17          1           0       -2.481660   -0.401622    1.318347
     18          1           0       -3.355006   -0.752839   -0.228845
     19          1           0       -1.271002   -1.765316   -1.235650
 ---------------------------------------------------------------------

 SCF Done:  E(RB3LYP) =  -423.097971002     A.U. after    1 cycles

 The electronic state is 1-A.
 Alpha  occ. eigenvalues --  -19.15604 -19.13334 -10.24011 -10.23511 -10.19510
 Alpha  occ. eigenvalues --  -10.19094 -10.18936 -10.18910 -10.18356  -1.03488
 Alpha  occ. eigenvalues --   -1.01978  -0.90992  -0.79975  -0.71151  -0.64283
 Alpha  occ. eigenvalues --   -0.61481  -0.55315  -0.53893  -0.52837  -0.51225
 Alpha  occ. eigenvalues --   -0.48064  -0.45642  -0.43989  -0.40851  -0.39292
 Alpha  occ. eigenvalues --   -0.37932  -0.37480  -0.35197  -0.34317  -0.30830
 Alpha  occ. eigenvalues --   -0.29915  -0.28015  -0.25740  -0.19748
 Alpha virt. eigenvalues --    0.05205   0.08908   0.09685   0.11164   0.11843
 Alpha virt. eigenvalues --    0.12541   0.13785   0.14925   0.16670   0.17586
 Alpha virt. eigenvalues --    0.18647   0.19797   0.20854   0.22629   0.23231

 Mulliken charges:
               1
     1  O   -0.416149
     2  C   -0.198526
     3  C    0.230942
     4  C   -0.436935
     5  C    0.397594
     6  O   -0.473337
     7  C   -0.097382
     8  C   -0.304652
     9  C   -0.120116
    10  H    0.293178
    11  H    0.118195
    12  H    0.101825
    13  H    0.109566
    14  H    0.092155
    15  H    0.292213
    16  H    0.096788
    17  H    0.113459
    18  H    0.113892
    19  H    0.087291
 Sum of Mulliken charges =   0.00000

 Dipole moment (field-independent basis, Debye):
    X=              0.3977    Y=             -2.0749    Z=              0.8805  Tot=              2.2888
 Quadrupole moment (field-independent basis, Debye-Ang):
   XX=            -49.8549   YY=            -57.2138   ZZ=            -51.0075
   XY=              0.1203   XZ=              4.2752   YZ=              1.0602

  Exact polarizability:  84.348   0.781  69.414   1.832   1.261  69.008
 Approx polarizability: 112.404   0.354 110.974   0.661  -0.376 106.591

                      1                      2                      3
                      A                      A                      A
 Frequencies --     93.3651               159.2673               212.5763
 Red. masses --      3.4404                 4.7870                 2.5552
 Frc consts  --      0.0177                 0.0715                 0.0680
 IR Inten    --      1.2286                 2.4388                 3.4900

                      4                      5                      6
                      A                      A                      A
 Frequencies --    257.5719               282.7730               343.0593
 Red. masses --      3.3218                 1.2470                 3.1963
 Frc consts  --      0.1298                 0.0587                 0.2216
 IR Inten    --      1.9780                83.9883                28.3670

                      7                      8                      9
                      A                      A                      A
 Frequencies --    364.5471               445.4129               482.7338
 Red. masses --      4.0276                 2.1994                 1.2282
 Frc consts  --      0.3154                 0.2571                 0.1686
 IR Inten    --      1.9870                28.3630                58.5101

                     10                     11                     12
                      A                      A                      A
 Frequencies --    492.4939               533.4839               611.1210
 Red. masses --      2.1300                 2.8539                 3.4387
 Frc consts  --      0.3044                 0.4786                 0.7567
 IR Inten    --      7.1823                 7.3754                 7.3650

                     13                     14                     15
                      A                      A                      A
 Frequencies --    710.7567               760.2445               786.9527
 Red. masses --      2.9258                 2.4161                 1.7310
 Frc consts  --      0.8708                 0.8227                 0.6316
 IR Inten    --      6.1899                 2.3201                11.6370

                     16                     17                     18
                      A                      A                      A
 Frequencies --    823.8938               832.2137               894.0873
 Red. masses --      3.7942                 1.4941                 3.2511
 Frc consts  --      1.5175                 0.6097                 1.5312
 IR Inten    --      9.5391                 2.9435                11.2623

                     19                     20                     21
                      A                      A                      A
 Frequencies --    935.7565               962.2506               983.9998
 Red. masses --      2.0992                 1.6704                 1.6835
 Frc consts  --      1.0830                 0.9113                 0.9604
 IR Inten    --      9.0634                 6.6404                20.1225

                     22                     23                     24
                      A                      A                      A
 Frequencies --    998.6972              1020.2316              1036.1306
 Red. masses --      1.7307                 1.4670                 2.4123
 Frc consts  --      1.0170                 0.8996                 1.5258
 IR Inten    --     26.0170                12.4732                38.4914

                     25                     26                     27
                      A                      A                      A
 Frequencies --   1048.1669              1059.9875              1089.2146
 Red. masses --      1.6081                 1.3561                 1.3920
 Frc consts  --      1.0409                 0.8977                 0.9730
 IR Inten    --      5.4563                 1.0331                14.6592

                     28                     29                     30
                      A                      A                      A
 Frequencies --   1127.2956              1146.8996              1191.8185
 Red. masses --      1.7746                 1.7224                 1.7089
 Frc consts  --      1.3287                 1.3349                 1.4302
 IR Inten    --     27.9003                18.1401                 8.7410

                     31                     32                     33
                      A                      A                      A
 Frequencies --   1222.1166              1234.8591              1291.4240
 Red. masses --      1.9903                 1.7532                 1.8905
 Frc consts  --      1.7514                 1.5751                 1.8577
 IR Inten    --      6.1527                45.4072                73.4460

                     34                     35                     36
                      A                      A                      A
 Frequencies --   1315.1396              1376.4382              1397.6326
 Red. masses --      3.0799                 1.3738                 1.5822
 Frc consts  --      3.1385                 1.5335                 1.8209
 IR Inten    --     35.4832                 9.1242                 3.5601

                     37                     38                     39
                      A                      A                      A
 Frequencies --   1405.1020              1418.0450              1486.7658
 Red. masses --      1.4696                 1.6288                 1.6416
 Frc consts  --      1.7095                 1.9297                 2.1379
 IR Inten    --     56.8403                27.5944                14.3752

                     40                     41                     42
                      A                      A                      A
 Frequencies --   1504.9171              1512.5370              2985.9503
 Red. masses --      1.0858                 1.3056                 1.0675
 Frc consts  --      1.4489                 1.7599                 5.6078
 IR Inten    --      0.4514                16.9078                75.9870

                     43                     44                     45
                      A                      A                      A
 Frequencies --   3053.8814              3112.8826              3131.1986
 Red. masses --      1.0952                 1.0543                 1.0550
 Frc consts  --      6.0182                 6.0192                 6.0943
 IR Inten    --     26.0408                14.5397                19.4342

                     46                     47                     48
                      A                      A                      A
 Frequencies --   3180.6088              3191.6890              3203.1700
 Red. masses --      1.0921                 1.1141                 1.1046
 Frc consts  --      6.5091                 6.6867                 6.6778
 IR Inten    --     13.1732                15.1891                 5.6319

                     49                     50                     51
                      A                      A                      A
 Frequencies --   3210.4544              3750.1615              3830.6166
 Red. masses --      1.1024                 1.0655                 1.0664
 Frc consts  --      6.6948                 8.8286                 9.2195
 IR Inten    --     19.0273                84.4240                27.0646

 - Thermochemistry -
 -------------------
 Temperature   298.150 Kelvin.  Pressure   1.00000 Atm.
 Atom     1 has atomic number  8 and mass  15.99491

 Molecular mass:   126.06808 amu.
 Principal axes and moments of inertia in atomic units:
                           1         2         3
     Eigenvalues --   627.276151231.429071477.25310
           X            0.99997   0.00117   0.00778
           Y           -0.00138   0.99962   0.02767
           Z           -0.00775  -0.02768   0.99959
 This molecule is an asymmetric top.
 Rotational symmetry number  1.
 Warning -- assumption of classical behavior for rotation
           may cause significant error
 Rotational temperatures (Kelvin)      0.13808     0.07034     0.05863
 Rotational constants (GHZ):           2.87711     1.46557     1.22169
 Zero-point vibrational energy     415717.8 (Joules/Mol)
                                   99.35894 (Kcal/Mol)
 Warning -- explicit consideration of  12 degrees of freedom as
           vibrations may cause significant error
 Vibrational temperatures:    134.33   229.15   305.85   370.59   406.85
          (Kelvin)            493.59   524.50   640.85   694.55   708.59
                              767.56   879.27  1022.62  1093.82  1132.25
                             1185.40  1197.37  1286.39  1346.34  1384.46
                             1415.75  1436.90  1467.88  1490.76  1508.08
                             1525.08  1567.13  1621.92  1650.13  1714.76
                             1758.35  1776.68  1858.07  1892.19  1980.39
                             2010.88  2021.63  2040.25  2139.12  2165.24
                             2176.20  4296.11  4393.85  4478.74  4505.09
                             4576.18  4592.12  4608.64  4619.12  5395.64
                             5511.40

 Zero-point correction=                           0.158339 (Hartree/Particle)
 Thermal correction to Energy=                    0.166762
 Thermal correction to Enthalpy=                  0.167706
 Thermal correction to Gibbs Free Energy=         0.125772
 Sum of electronic and zero-point Energies=           -422.939632
 Sum of electronic and thermal Energies=              -422.931209
 Sum of electronic and thermal Enthalpies=            -422.930265
 Sum of electronic and thermal Free Energies=         -422.972199

                     E (Thermal)             CV                S
                      KCal/Mol        Cal/Mol-Kelvin    Cal/Mol-Kelvin
 Total                  104.644             33.551             88.257
 Electronic               0.000              0.000              0.000
 Translational            0.889              2.981             40.409
 Rotational               0.889              2.981             28.525
 Vibrational            102.867             27.589             19.323
 Vibration     1          0.602              1.954              3.588
 Vibration     2          0.621              1.892              2.558
 Vibration     3          0.644              1.822              2.021
 Vibration     4          0.667              1.750              1.678
 Vibration     5          0.682              1.706              1.517
 Vibration     6          0.722              1.589              1.198
 Vibration     7          0.738              1.545              1.103
 Vibration     8          0.805              1.371              0.810
 Vibration     9          0.839              1.288              0.703
 Vibration    10          0.848              1.267              0.677
 Vibration    11          0.888              1.176              0.579
 Vibration    12          0.970              1.008              0.431

 Normal termination of Gaussian 09 at Tue Jan 28 10:05:46 2020.
