 Gaussian 09, Revision D.01,
 Gaussian 09:  ES64L-G09RevD.01 24-Apr-2013

 -----------------------------
 # b3lyp 6-31G(2df,p) opt Freq
 -----------------------------

 -----
 titel
 -----
 Symbolic Z-matrix:
 Charge =  0 Multiplicity = 1

 SCF Done:  E(RB3LYP) =  -423.157094152     A.U. after   14 cycles
 Optimization completed.
    -- Stationary point found.
 Normal termination of Gaussian 09 at Tue Jan 28 09:15:20 2020.

 ----------------------------------------------------------------------
 #N Geom=AllCheck Guess=TCheck SCRF=Check GenChk RB3LYP/6-31G(2df,p) Fr
 eq
 ----------------------------------------------------------------------

 Structure from the checkpoint file:  "/scratch/puck/g09_09e73671-7576-40e3-8bd6-a89545cf46d7/Gau-129691.chk"
 -----
 titel
 -----
 Charge =  0 Multiplicity = 1

                         Standard orientation:
 ---------------------------------------------------------------------
 Center     Atomic      Atomic             Coordinates (Angstroms)
 Number     Number       Type             X           Y           Z
 ---------------------------------------------------------------------
      1          6           0        2.842219    0.072528    0.257437
      2          6           0        1.369774   -0.152206    0.072232
      3          6           0        0.637712   -1.010022   -1.031106
      4          6           0       -0.553449   -0.465680   -0.169889
      5          6           0       -2.039022   -0.618201   -0.344925
      6          8           0       -2.745037    0.242758    0.535681
      7          6           0        0.341162   -0.797173    1.077077
      8          6           0        0.234665    0.849431   -0.179794
      9          8           0        0.034411    2.023819   -0.294932
     10          1           0        3.029773    0.724764    1.116396
     11          1           0        3.371279   -0.870788    0.427184
     12          1           0        3.277417    0.550743   -0.625949
     13          1           0        0.712304   -0.672245   -2.067373
     14          1           0        0.806228   -2.086719   -0.941418
     15          1           0       -2.303300   -0.428294   -1.397916
     16          1           0       -2.365861   -1.636474   -0.108356
     17          1           0       -2.468333    1.144496    0.334775
     18          1           0        0.132507   -0.263337    2.005779
     19          1           0        0.494633   -1.866826    1.244692
 ---------------------------------------------------------------------

 SCF Done:  E(RB3LYP) =  -423.157094152     A.U. after    1 cycles

 The electronic state is 1-A.
 Alpha  occ. eigenvalues --  -19.13930 -19.13540 -10.27250 -10.23419 -10.22052
 Alpha  occ. eigenvalues --  -10.21313 -10.21080 -10.20785 -10.18918  -1.05074
 Alpha  occ. eigenvalues --   -1.01684  -0.92636  -0.74910  -0.70574  -0.68265
 Alpha  occ. eigenvalues --   -0.63783  -0.58495  -0.50623  -0.50385  -0.46793
 Alpha  occ. eigenvalues --   -0.45875  -0.45276  -0.45111  -0.42091  -0.41993
 Alpha  occ. eigenvalues --   -0.39405  -0.37056  -0.36589  -0.34757  -0.33475
 Alpha  occ. eigenvalues --   -0.32635  -0.31648  -0.26897  -0.23953
 Alpha virt. eigenvalues --    0.00870   0.07924   0.08847   0.10607   0.12448
 Alpha virt. eigenvalues --    0.13252   0.13365   0.13804   0.15161   0.15599
 Alpha virt. eigenvalues --    0.16439   0.17176   0.18393   0.19824   0.21109

 Mulliken charges:
               1
     1  C   -0.512899
     2  C    0.182290
     3  C   -0.322205
     4  C    0.182905
     5  C   -0.203652
     6  O   -0.418849
     7  C   -0.295951
     8  C    0.402053
     9  O   -0.356185
    10  H    0.134359
    11  H    0.125079
    12  H    0.132686
    13  H    0.110541
    14  H    0.106200
    15  H    0.096975
    16  H    0.114798
    17  H    0.299269
    18  H    0.118118
    19  H    0.104469
 Sum of Mulliken charges =   0.00000

 Dipole moment (field-independent basis, Debye):
    X=              1.7819    Y=             -2.2970    Z=             -0.5628  Tot=              2.9611
 Quadrupole moment (field-independent basis, Debye-Ang):
   XX=            -56.0988   YY=            -56.1946   ZZ=            -52.2280
   XY=             -1.1883   XZ=              2.8253   YZ=              1.1454

  Exact polarizability:  84.406  -0.475  76.659   0.933   0.316  68.094
 Approx polarizability: 108.504  -3.100 125.446  -0.948  -1.038 104.989

                      1                      2                      3
                      A                      A                      A
 Frequencies --     65.6936               125.6767               157.8126
 Red. masses --      4.6890                 4.7620                 1.2988
 Frc consts  --      0.0119                 0.0443                 0.0191
 IR Inten    --      5.5646                 0.0750                 0.3431

                      4                      5                      6
                      A                      A                      A
 Frequencies --    194.1679               204.7484               223.5473
 Red. masses --      2.0453                 3.1164                 2.6127
 Frc consts  --      0.0454                 0.0770                 0.0769
 IR Inten    --      0.6971                 1.4038                 5.3580

                      7                      8                      9
                      A                      A                      A
 Frequencies --    311.4333               399.0628               435.8455
 Red. masses --      2.9649                 1.6126                 1.8084
 Frc consts  --      0.1694                 0.1513                 0.2024
 IR Inten    --      2.9838                56.5697                77.3110

                     10                     11                     12
                      A                      A                      A
 Frequencies --    515.1266               519.0200               617.6423
 Red. masses --      2.6934                 2.2396                 3.7175
 Frc consts  --      0.4211                 0.3555                 0.8356
 IR Inten    --      3.7694                 2.2202                 0.7627

                     13                     14                     15
                      A                      A                      A
 Frequencies --    678.3997               731.8228               775.2015
 Red. masses --      3.3136                 3.7826                 3.8904
 Frc consts  --      0.8985                 1.1936                 1.3774
 IR Inten    --     10.3208                 1.0571                 3.2970

                     16                     17                     18
                      A                      A                      A
 Frequencies --    817.1536               859.8403               902.2393
 Red. masses --      3.4126                 5.0212                 2.3779
 Frc consts  --      1.3426                 2.1872                 1.1405
 IR Inten    --      5.7735                31.6478                 2.1053

                     19                     20                     21
                      A                      A                      A
 Frequencies --    957.9650               997.5195              1019.9408
 Red. masses --      2.1271                 1.1266                 1.5556
 Frc consts  --      1.1501                 0.6605                 0.9534
 IR Inten    --      5.2100                 7.7625                14.6833

                     22                     23                     24
                      A                      A                      A
 Frequencies --   1033.4375              1056.5323              1062.3196
 Red. masses --      1.6307                 1.7654                 3.1053
 Frc consts  --      1.0261                 1.1611                 2.0647
 IR Inten    --      0.5169                16.3643                43.0675

                     25                     26                     27
                      A                      A                      A
 Frequencies --   1115.4823              1125.7218              1137.1257
 Red. masses --      1.5343                 1.7745                 1.3933
 Frc consts  --      1.1248                 1.3249                 1.0615
 IR Inten    --     27.0726                 2.2191                 8.3083

                     28                     29                     30
                      A                      A                      A
 Frequencies --   1164.5604              1191.7585              1249.0851
 Red. masses --      1.7551                 1.8488                 1.3913
 Frc consts  --      1.4025                 1.5471                 1.2790
 IR Inten    --      0.5786                 1.5699                14.1685

                     31                     32                     33
                      A                      A                      A
 Frequencies --   1329.7777              1366.8763              1389.3507
 Red. masses --      3.2793                 1.6563                 1.6342
 Frc consts  --      3.4166                 1.8233                 1.8586
 IR Inten    --      2.2543                 0.1554                 3.2137

                     34                     35                     36
                      A                      A                      A
 Frequencies --   1416.5505              1433.5967              1487.7331
 Red. masses --      1.4465                 1.5349                 1.0472
 Frc consts  --      1.7101                 1.8586                 1.3657
 IR Inten    --      5.8983                63.2129                 4.4423

                     37                     38                     39
                      A                      A                      A
 Frequencies --   1488.5857              1493.9767              1500.8369
 Red. masses --      1.0505                 1.0787                 1.0841
 Frc consts  --      1.3715                 1.4185                 1.4387
 IR Inten    --      3.7491                 0.9296                 0.3277

                     40                     41                     42
                      A                      A                      A
 Frequencies --   1535.4544              1889.8637              2974.9602
 Red. masses --      1.2100                12.3495                 1.0703
 Frc consts  --      1.6808                25.9873                 5.5813
 IR Inten    --      1.2042               320.6274                54.5766

                     43                     44                     45
                      A                      A                      A
 Frequencies --   3035.0557              3053.6431              3058.2320
 Red. masses --      1.0353                 1.0538                 1.0549
 Frc consts  --      5.6187                 5.7893                 5.8132
 IR Inten    --     23.9494                29.4518                19.3917

                     46                     47                     48
                      A                      A                      A
 Frequencies --   3067.9006              3103.1007              3105.8780
 Red. masses --      1.0915                 1.1013                 1.1009
 Frc consts  --      6.0529                 6.2483                 6.2571
 IR Inten    --     29.2613                13.6988                12.5573

                     49                     50                     51
                      A                      A                      A
 Frequencies --   3124.7221              3134.6667              3796.5571
 Red. masses --      1.1119                 1.1110                 1.0664
 Frc consts  --      6.3967                 6.4319                 9.0560
 IR Inten    --     22.4780                18.5746                25.4447

 - Thermochemistry -
 -------------------
 Temperature   298.150 Kelvin.  Pressure   1.00000 Atm.
 Atom     1 has atomic number  6 and mass  12.00000

 Molecular mass:   126.06808 amu.
 Principal axes and moments of inertia in atomic units:
                           1         2         3
     Eigenvalues --   595.955801431.294591667.81267
           X            0.99991  -0.00140   0.01341
           Y            0.00104   0.99966   0.02621
           Z           -0.01344  -0.02619   0.99957
 This molecule is an asymmetric top.
 Rotational symmetry number  1.
 Warning -- assumption of classical behavior for rotation
           may cause significant error
 Rotational temperatures (Kelvin)      0.14534     0.06051     0.05193
 Rotational constants (GHZ):           3.02831     1.26092     1.08210
 Zero-point vibrational energy     415302.8 (Joules/Mol)
                                   99.25974 (Kcal/Mol)
 Warning -- explicit consideration of  12 degrees of freedom as
           vibrations may cause significant error
 Vibrational temperatures:     94.52   180.82   227.06   279.36   294.59
          (Kelvin)            321.63   448.08   574.16   627.08   741.15
                              746.75   888.65   976.06  1052.93  1115.34
                             1175.70  1237.12  1298.12  1378.30  1435.21
                             1467.47  1486.88  1520.11  1528.44  1604.93
                             1619.66  1636.07  1675.54  1714.67  1797.15
                             1913.25  1966.63  1998.96  2038.10  2062.62
                             2140.51  2141.74  2149.50  2159.37  2209.17
                             2719.09  4280.30  4366.76  4393.51  4400.11
                             4414.02  4464.66  4468.66  4495.77  4510.08
                             5462.39

 Zero-point correction=                           0.158180 (Hartree/Particle)
 Thermal correction to Energy=                    0.167233
 Thermal correction to Enthalpy=                  0.168177
 Thermal correction to Gibbs Free Energy=         0.124304
 Sum of electronic and zero-point Energies=           -422.998914
 Sum of electronic and thermal Energies=              -422.989861
 Sum of electronic and thermal Enthalpies=            -422.988917
 Sum of electronic and thermal Free Energies=         -423.032790

                     E (Thermal)             CV                S
                      KCal/Mol        Cal/Mol-Kelvin    Cal/Mol-Kelvin
 Total                  104.940             33.661             92.338
 Electronic               0.000              0.000              0.000
 Translational            0.889              2.981             40.409
 Rotational               0.889              2.981             28.744
 Vibrational            103.163             27.699             23.185
 Vibration     1          0.597              1.971              4.278
 Vibration     2          0.611              1.927              3.011
 Vibration     3          0.621              1.894              2.576
 Vibration     4          0.635              1.848              2.188
 Vibration     5          0.640              1.833              2.090
 Vibration     6          0.649              1.805              1.930
 Vibration     7          0.700              1.652              1.355
 Vibration     8          0.765              1.472              0.966
 Vibration     9          0.796              1.392              0.840
 Vibration    10          0.870              1.216              0.621
 Vibration    11          0.874              1.208              0.612
 Vibration    12          0.977              0.995              0.420

 Normal termination of Gaussian 09 at Tue Jan 28 10:01:02 2020.
