 Gaussian 09, Revision D.01,
 Gaussian 09:  ES64L-G09RevD.01 24-Apr-2013

 -----------------------------
 # b3lyp 6-31G(2df,p) opt Freq
 -----------------------------

 -----
 titel
 -----
 Symbolic Z-matrix:
 Charge =  0 Multiplicity = 1

 SCF Done:  E(RB3LYP) =  -423.137961765     A.U. after   13 cycles
 Optimization completed.
    -- Stationary point found.
 Normal termination of Gaussian 09 at Tue Jan 28 12:02:38 2020.

 ----------------------------------------------------------------------
 #N Geom=AllCheck Guess=TCheck SCRF=Check GenChk RB3LYP/6-31G(2df,p) Fr
 eq
 ----------------------------------------------------------------------

 Structure from the checkpoint file:  "/scratch/puck/g09_460f7742-3775-4229-b85b-cb0e56734037/Gau-103049.chk"
 -----
 titel
 -----
 Charge =  0 Multiplicity = 1

                         Standard orientation:
 ---------------------------------------------------------------------
 Center     Atomic      Atomic             Coordinates (Angstroms)
 Number     Number       Type             X           Y           Z
 ---------------------------------------------------------------------
      1          6           0        2.602903   -1.296402    0.017380
      2          8           0        1.442262   -0.790772   -0.602706
      3          6           0        0.508074   -0.230930    0.298705
      4          6           0        0.849163    1.216869    0.723160
      5          8           0        0.119757    2.067474   -0.145944
      6          6           0       -1.144688    1.455389   -0.302811
      7          6           0       -0.836704   -0.056222   -0.472151
      8          6           0       -1.912781   -0.929576   -0.038482
      9          6           0       -2.814324   -1.631353    0.335985
     10          1           0        2.358858   -2.072849    0.758932
     11          1           0        3.220476   -1.737679   -0.768297
     12          1           0        3.187324   -0.511563    0.520943
     13          1           0        0.391523   -0.887108    1.171365
     14          1           0        0.546691    1.382921    1.770446
     15          1           0        1.911669    1.449176    0.620315
     16          1           0       -1.778932    1.614048    0.583666
     17          1           0       -1.636626    1.893215   -1.173375
     18          1           0       -0.596634   -0.253717   -1.521845
     19          1           0       -3.610354   -2.256700    0.656339
 ---------------------------------------------------------------------

 SCF Done:  E(RB3LYP) =  -423.137961765     A.U. after    1 cycles

 The electronic state is 1-A.
 Alpha  occ. eigenvalues --  -19.14736 -19.14377 -10.24260 -10.23325 -10.22992
 Alpha  occ. eigenvalues --  -10.22961 -10.21246 -10.18274 -10.17298  -1.05183
 Alpha  occ. eigenvalues --   -1.03341  -0.80957  -0.74933  -0.72392  -0.68392
 Alpha  occ. eigenvalues --   -0.62076  -0.59353  -0.53965  -0.51568  -0.50183
 Alpha  occ. eigenvalues --   -0.47612  -0.46554  -0.45180  -0.44009  -0.40993
 Alpha  occ. eigenvalues --   -0.38462  -0.37731  -0.36444  -0.33998  -0.32357
 Alpha  occ. eigenvalues --   -0.27552  -0.27070  -0.26380  -0.24385
 Alpha virt. eigenvalues --    0.05014   0.05245   0.08707   0.09501   0.10796
 Alpha virt. eigenvalues --    0.12835   0.13693   0.13988   0.14476   0.15442
 Alpha virt. eigenvalues --    0.16392   0.17472   0.18770   0.19398   0.21245

 Mulliken charges:
               1
     1  C   -0.241188
     2  O   -0.242435
     3  C    0.107885
     4  C   -0.112944
     5  O   -0.236216
     6  C   -0.103422
     7  C   -0.189920
     8  C    0.308528
     9  C   -0.473559
    10  H    0.109894
    11  H    0.132790
    12  H    0.106212
    13  H    0.081654
    14  H    0.089928
    15  H    0.115053
    16  H    0.099135
    17  H    0.122004
    18  H    0.129782
    19  H    0.196817
 Sum of Mulliken charges =   0.00000

 Dipole moment (field-independent basis, Debye):
    X=              0.4687    Y=             -0.8975    Z=              1.2894  Tot=              1.6394
 Quadrupole moment (field-independent basis, Debye-Ang):
   XX=            -47.2553   YY=            -56.0566   ZZ=            -52.8687
   XY=             -0.9264   XZ=              1.3348   YZ=             -0.8771

  Exact polarizability:  95.627   7.801  76.627  -2.533  -3.023  62.104
 Approx polarizability: 128.309  19.121 109.211  -9.052  -9.034  97.695

                      1                      2                      3
                      A                      A                      A
 Frequencies --     39.4237               105.4496               154.8512
 Red. masses --      3.0429                 2.5848                 3.0838
 Frc consts  --      0.0028                 0.0169                 0.0436
 IR Inten    --      0.2497                 2.5380                 0.2853

                      4                      5                      6
                      A                      A                      A
 Frequencies --    173.7939               202.8797               266.4070
 Red. masses --      3.6061                 1.3795                 2.3874
 Frc consts  --      0.0642                 0.0335                 0.0998
 IR Inten    --      0.1062                 1.3427                 5.7732

                      7                      8                      9
                      A                      A                      A
 Frequencies --    300.9562               387.3505               403.9303
 Red. masses --      2.9689                 3.4843                 3.7177
 Frc consts  --      0.1584                 0.3080                 0.3574
 IR Inten    --      3.8247                 0.3540                 3.7732

                     10                     11                     12
                      A                      A                      A
 Frequencies --    514.0707               542.2986               587.7908
 Red. masses --      5.9711                 4.1756                 2.9918
 Frc consts  --      0.9297                 0.7235                 0.6090
 IR Inten    --      3.4659                 5.1278                 1.1935

                     13                     14                     15
                      A                      A                      A
 Frequencies --    631.2942               634.9051               725.9769
 Red. masses --      1.2393                 1.2274                 5.3204
 Frc consts  --      0.2910                 0.2915                 1.6521
 IR Inten    --     49.3730                40.1752                17.1610

                     16                     17                     18
                      A                      A                      A
 Frequencies --    847.6954               913.4265               965.9977
 Red. masses --      2.4947                 2.3551                 3.7948
 Frc consts  --      1.0562                 1.1578                 2.0863
 IR Inten    --     11.9738                 8.9765                20.6013

                     19                     20                     21
                      A                      A                      A
 Frequencies --    970.1600              1037.8212              1050.8259
 Red. masses --      2.8131                 3.0273                 3.7901
 Frc consts  --      1.5600                 1.9211                 2.4658
 IR Inten    --     19.7743                 3.9966                 9.5903

                     22                     23                     24
                      A                      A                      A
 Frequencies --   1077.1415              1083.7380              1125.9195
 Red. masses --      2.2691                 2.3646                 5.4624
 Frc consts  --      1.5511                 1.6363                 4.0799
 IR Inten    --     13.6368                 4.9760               132.3404

                     25                     26                     27
                      A                      A                      A
 Frequencies --   1152.6578              1183.5425              1209.0517
 Red. masses --      4.3589                 1.2979                 1.2704
 Frc consts  --      3.4122                 1.0712                 1.0942
 IR Inten    --     82.6507                 4.5327                 4.9811

                     28                     29                     30
                      A                      A                      A
 Frequencies --   1233.0143              1259.2334              1273.1991
 Red. masses --      1.2865                 1.2956                 1.5080
 Frc consts  --      1.1524                 1.2104                 1.4403
 IR Inten    --     34.4749                 1.5443                 9.2226

                     31                     32                     33
                      A                      A                      A
 Frequencies --   1300.7093              1319.2033              1359.8711
 Red. masses --      1.2134                 1.3308                 1.3295
 Frc consts  --      1.2095                 1.3646                 1.4485
 IR Inten    --     14.2939                 2.8758                 2.4844

                     34                     35                     36
                      A                      A                      A
 Frequencies --   1386.6492              1409.1971              1481.2386
 Red. masses --      1.2261                 1.3983                 1.1222
 Frc consts  --      1.3891                 1.6360                 1.4507
 IR Inten    --     27.5121                 9.0353                 2.8126

                     37                     38                     39
                      A                      A                      A
 Frequencies --   1490.0109              1493.0653              1510.1186
 Red. masses --      1.0783                 1.0783                 1.0653
 Frc consts  --      1.4104                 1.4163                 1.4314
 IR Inten    --      0.7157                 2.4206                 7.0569

                     40                     41                     42
                      A                      A                      A
 Frequencies --   1515.1320              2237.9616              2966.8753
 Red. masses --      1.0994                 5.9643                 1.0704
 Frc consts  --      1.4869                17.6000                 5.5515
 IR Inten    --      3.5178                 5.6929                36.1375

                     43                     44                     45
                      A                      A                      A
 Frequencies --   2976.8659              2983.4783              3019.4788
 Red. masses --      1.0376                 1.0705                 1.0867
 Frc consts  --      5.4175                 5.6142                 5.8372
 IR Inten    --     61.5916                51.0008                60.6332

                     46                     47                     48
                      A                      A                      A
 Frequencies --   3025.2617              3062.1433              3103.9348
 Red. masses --      1.1009                 1.0824                 1.0921
 Frc consts  --      5.9364                 5.9796                 6.1992
 IR Inten    --     33.1942                 4.9761                29.1373

                     49                     50                     51
                      A                      A                      A
 Frequencies --   3114.2682              3118.4528              3504.1322
 Red. masses --      1.0949                 1.0962                 1.1616
 Frc consts  --      6.2563                 6.2809                 8.4034
 IR Inten    --     22.4093                25.9932                73.4015

 - Thermochemistry -
 -------------------
 Temperature   298.150 Kelvin.  Pressure   1.00000 Atm.
 Atom     1 has atomic number  6 and mass  12.00000

 Molecular mass:   126.06808 amu.
 Principal axes and moments of inertia in atomic units:
                           1         2         3
     Eigenvalues --   848.894951318.174501956.80328
           X            0.99869  -0.05023   0.00996
           Y            0.05027   0.99873  -0.00368
           Z           -0.00976   0.00418   0.99994
 This molecule is an asymmetric top.
 Rotational symmetry number  1.
 Warning -- assumption of classical behavior for rotation
           may cause significant error
 Rotational temperatures (Kelvin)      0.10203     0.06571     0.04426
 Rotational constants (GHZ):           2.12599     1.36912     0.92229
 Zero-point vibrational energy     415300.7 (Joules/Mol)
                                   99.25924 (Kcal/Mol)
 Warning -- explicit consideration of  12 degrees of freedom as
           vibrations may cause significant error
 Vibrational temperatures:     56.72   151.72   222.80   250.05   291.90
          (Kelvin)            383.30   433.01   557.31   581.16   739.63
                              780.25   845.70   908.29   913.49  1044.52
                             1219.64  1314.22  1389.85  1395.84  1493.19
                             1511.90  1549.76  1559.26  1619.94  1658.42
                             1702.85  1739.55  1774.03  1811.75  1831.85
                             1871.43  1898.04  1956.55  1995.08  2027.52
                             2131.17  2143.79  2148.19  2172.72  2179.93
                             3219.92  4268.67  4283.04  4292.55  4344.35
                             4352.67  4405.74  4465.86  4480.73  4486.75
                             5041.66

 Zero-point correction=                           0.158180 (Hartree/Particle)
 Thermal correction to Energy=                    0.167365
 Thermal correction to Enthalpy=                  0.168309
 Thermal correction to Gibbs Free Energy=         0.123498
 Sum of electronic and zero-point Energies=           -422.979782
 Sum of electronic and thermal Energies=              -422.970597
 Sum of electronic and thermal Enthalpies=            -422.969652
 Sum of electronic and thermal Free Energies=         -423.014464

                     E (Thermal)             CV                S
                      KCal/Mol        Cal/Mol-Kelvin    Cal/Mol-Kelvin
 Total                  105.023             33.572             94.314
 Electronic               0.000              0.000              0.000
 Translational            0.889              2.981             40.409
 Rotational               0.889              2.981             29.172
 Vibrational            103.246             27.611             24.733
 Vibration     1          0.594              1.981              5.288
 Vibration     2          0.605              1.945              3.351
 Vibration     3          0.620              1.897              2.612
 Vibration     4          0.627              1.875              2.394
 Vibration     5          0.639              1.836              2.107
 Vibration     6          0.672              1.735              1.619
 Vibration     7          0.693              1.672              1.412
 Vibration     8          0.756              1.497              1.010
 Vibration     9          0.769              1.462              0.948
 Vibration    10          0.869              1.219              0.624
 Vibration    11          0.897              1.157              0.560
 Vibration    12          0.945              1.058              0.471

 Optimization completed.
    -- Stationary point found.
 Normal termination of Gaussian 09 at Tue Jan 28 12:40:58 2020.
