 Gaussian 09, Revision D.01,
 Gaussian 09:  ES64L-G09RevD.01 24-Apr-2013

 -----------------------------
 # b3lyp 6-31G(2df,p) opt Freq
 -----------------------------

 -----
 titel
 -----
 Symbolic Z-matrix:
 Charge =  0 Multiplicity = 1

 SCF Done:  E(RB3LYP) =  -423.109317541     A.U. after   12 cycles
 Optimization completed.
    -- Stationary point found.
 Normal termination of Gaussian 09 at Tue Jan 28 14:04:24 2020.

 ----------------------------------------------------------------------
 #N Geom=AllCheck Guess=TCheck SCRF=Check GenChk RB3LYP/6-31G(2df,p) Fr
 eq
 ----------------------------------------------------------------------

 Structure from the checkpoint file:  "/scratch/puck/g09_7fe77c25-5cc9-4c28-82c2-29af93caa44f/Gau-122920.chk"
 -----
 titel
 -----
 Charge =  0 Multiplicity = 1

                         Standard orientation:
 ---------------------------------------------------------------------
 Center     Atomic      Atomic             Coordinates (Angstroms)
 Number     Number       Type             X           Y           Z
 ---------------------------------------------------------------------
      1          8           0       -3.327686    0.182272    0.420047
      2          6           0       -2.368488   -0.627902   -0.245509
      3          6           0       -1.001267   -0.254851    0.262824
      4          6           0       -0.333396    0.929484   -0.367127
      5          8           0        0.872970    1.274358    0.324342
      6          6           0        1.429867   -0.006511   -0.027131
      7          6           0        2.410895   -0.711816    0.845609
      8          6           0        2.837634   -0.129721   -0.499534
      9          6           0        0.159501   -0.459211   -0.700561
     10          1           0       -4.203982   -0.130674    0.176035
     11          1           0       -2.552883   -1.697536   -0.058413
     12          1           0       -2.409935   -0.479424   -1.338112
     13          1           0       -0.838598   -0.421057    1.325155
     14          1           0       -0.829326    1.699698   -0.945149
     15          1           0        2.740272   -0.189287    1.737024
     16          1           0        2.337330   -1.789308    0.949339
     17          1           0        3.442188    0.770520   -0.485613
     18          1           0        3.051749   -0.812213   -1.315916
     19          1           0        0.092447   -1.040585   -1.610883
 ---------------------------------------------------------------------

 SCF Done:  E(RB3LYP) =  -423.109317541     A.U. after    1 cycles

 The electronic state is 1-A.
 Alpha  occ. eigenvalues --  -19.13670 -19.13461 -10.24251 -10.23627 -10.23429
 Alpha  occ. eigenvalues --  -10.19652 -10.19101 -10.18412 -10.18290  -1.05304
 Alpha  occ. eigenvalues --   -1.01582  -0.84841  -0.83812  -0.70013  -0.63124
 Alpha  occ. eigenvalues --   -0.60716  -0.57577  -0.52977  -0.51519  -0.50597
 Alpha  occ. eigenvalues --   -0.49962  -0.46089  -0.43717  -0.41721  -0.40246
 Alpha  occ. eigenvalues --   -0.37354  -0.36652  -0.34069  -0.33433  -0.32259
 Alpha  occ. eigenvalues --   -0.29277  -0.26981  -0.25709  -0.22294
 Alpha virt. eigenvalues --    0.06810   0.08164   0.10174   0.10985   0.12180
 Alpha virt. eigenvalues --    0.12705   0.14692   0.15522   0.15810   0.16355
 Alpha virt. eigenvalues --    0.17588   0.19309   0.20130   0.21754   0.22736

 Mulliken charges:
               1
     1  O   -0.418060
     2  C   -0.117767
     3  C   -0.035252
     4  C    0.097549
     5  O   -0.318130
     6  C    0.468986
     7  C   -0.333598
     8  C   -0.347443
     9  C   -0.249397
    10  H    0.286175
    11  H    0.092328
    12  H    0.080981
    13  H    0.099074
    14  H    0.110246
    15  H    0.127332
    16  H    0.116306
    17  H    0.127155
    18  H    0.114399
    19  H    0.099117
 Sum of Mulliken charges =   0.00000

 Dipole moment (field-independent basis, Debye):
    X=             -0.9227    Y=             -2.1990    Z=             -1.6535  Tot=              2.9019
 Quadrupole moment (field-independent basis, Debye-Ang):
   XX=            -46.0715   YY=            -54.0064   ZZ=            -52.6184
   XY=              2.0100   XZ=              2.8313   YZ=             -1.0579

  Exact polarizability:  98.870  -0.920  66.829  -0.033  -0.833  65.812
 Approx polarizability: 119.877  -2.007 105.733  -1.762   1.186 100.774

                      1                      2                      3
                      A                      A                      A
 Frequencies --     72.1180               125.6220               154.8207
 Red. masses --      4.4216                 3.7293                 2.9169
 Frc consts  --      0.0135                 0.0347                 0.0412
 IR Inten    --      0.5422                 1.3694                 5.1828

                      4                      5                      6
                      A                      A                      A
 Frequencies --    230.5043               261.9550               291.3502
 Red. masses --      1.9669                 1.3127                 2.9160
 Frc consts  --      0.0616                 0.0531                 0.1458
 IR Inten    --     16.0375                66.1152                 7.5214

                      7                      8                      9
                      A                      A                      A
 Frequencies --    311.9134               395.9250               504.9979
 Red. masses --      2.2177                 3.9043                 3.9311
 Frc consts  --      0.1271                 0.3606                 0.5907
 IR Inten    --     15.9228                 3.2549                 2.0895

                     10                     11                     12
                      A                      A                      A
 Frequencies --    522.4157               591.3619               754.2845
 Red. masses --      3.8054                 3.9216                 1.0551
 Frc consts  --      0.6119                 0.8080                 0.3537
 IR Inten    --     14.0166                11.7959                 3.2269

                     13                     14                     15
                      A                      A                      A
 Frequencies --    788.2574               845.6050               857.4396
 Red. masses --      1.4617                 2.0866                 2.4329
 Frc consts  --      0.5351                 0.8791                 1.0538
 IR Inten    --      6.1547                 3.2228                28.6679

                     16                     17                     18
                      A                      A                      A
 Frequencies --    878.2450               899.5407               959.5271
 Red. masses --      1.4788                 2.0228                 3.2060
 Frc consts  --      0.6720                 0.9644                 1.7391
 IR Inten    --      3.4385                 1.2223                 0.7603

                     19                     20                     21
                      A                      A                      A
 Frequencies --    967.4472               981.6768              1016.8368
 Red. masses --      3.6201                 2.2670                 2.0672
 Frc consts  --      1.9963                 1.2872                 1.2593
 IR Inten    --     32.4538                13.2386                 7.2593

                     22                     23                     24
                      A                      A                      A
 Frequencies --   1027.4231              1045.7637              1053.4189
 Red. masses --      2.1309                 1.4790                 2.8510
 Frc consts  --      1.3253                 0.9530                 1.8640
 IR Inten    --     46.4633                 9.0229                62.7537

                     25                     26                     27
                      A                      A                      A
 Frequencies --   1067.3901              1070.7620              1095.2421
 Red. masses --      1.5123                 3.4067                 1.4291
 Frc consts  --      1.0151                 2.3013                 1.0100
 IR Inten    --      1.4045                20.1249                39.9313

                     28                     29                     30
                      A                      A                      A
 Frequencies --   1111.6480              1179.8000              1185.5405
 Red. masses --      2.2280                 1.6440                 1.2620
 Frc consts  --      1.6222                 1.3482                 1.0451
 IR Inten    --     38.6810                18.2110                 0.1666

                     31                     32                     33
                      A                      A                      A
 Frequencies --   1194.8157              1236.5434              1248.5010
 Red. masses --      1.6870                 1.6257                 1.2750
 Frc consts  --      1.4189                 1.4646                 1.1710
 IR Inten    --     23.7119                28.9012                11.8182

                     34                     35                     36
                      A                      A                      A
 Frequencies --   1276.8367              1301.6209              1395.0061
 Red. masses --      1.3485                 1.4248                 1.9762
 Frc consts  --      1.2953                 1.4222                 2.2659
 IR Inten    --     19.4133                13.5552                19.1231

                     37                     38                     39
                      A                      A                      A
 Frequencies --   1415.3548              1447.7275              1468.1715
 Red. masses --      2.1356                 1.0914                 1.6255
 Frc consts  --      2.5206                 1.3478                 2.0643
 IR Inten    --      1.6273                 1.8318                24.6603

                     40                     41                     42
                      A                      A                      A
 Frequencies --   1505.1452              1518.4916              2955.1556
 Red. masses --      1.9647                 1.0810                 1.0602
 Frc consts  --      2.6225                 1.4687                 5.4552
 IR Inten    --     26.1885                 3.6374                53.8451

                     43                     44                     45
                      A                      A                      A
 Frequencies --   2988.8524              3128.0426              3132.4015
 Red. masses --      1.0999                 1.0522                 1.0566
 Frc consts  --      5.7892                 6.0658                 6.1082
 IR Inten    --     60.3500                12.2817                 5.3724

                     46                     47                     48
                      A                      A                      A
 Frequencies --   3139.3866              3186.0717              3198.7765
 Red. masses --      1.0886                 1.0892                 1.0987
 Frc consts  --      6.3214                 6.5143                 6.6238
 IR Inten    --     12.1297                13.9747                11.7918

                     49                     50                     51
                      A                      A                      A
 Frequencies --   3212.8881              3226.9855              3825.1872
 Red. masses --      1.1181                 1.1152                 1.0662
 Frc consts  --      6.8001                 6.8424                 9.1920
 IR Inten    --      0.3807                 8.6862                17.2151

 - Thermochemistry -
 -------------------
 Temperature   298.150 Kelvin.  Pressure   1.00000 Atm.
 Atom     1 has atomic number  8 and mass  15.99491

 Molecular mass:   126.06808 amu.
 Principal axes and moments of inertia in atomic units:
                           1         2         3
     Eigenvalues --   360.997162019.030422107.78482
           X            0.99998   0.00102   0.00693
           Y           -0.00073   0.99912  -0.04188
           Z           -0.00697   0.04188   0.99910
 This molecule is an asymmetric top.
 Rotational symmetry number  1.
 Rotational temperatures (Kelvin)      0.23993     0.04290     0.04109
 Rotational constants (GHZ):           4.99932     0.89387     0.85623
 Zero-point vibrational energy     414211.7 (Joules/Mol)
                                   98.99898 (Kcal/Mol)
 Warning -- explicit consideration of  11 degrees of freedom as
           vibrations may cause significant error
 Vibrational temperatures:    103.76   180.74   222.75   331.64   376.89
          (Kelvin)            419.19   448.77   569.65   726.58   751.64
                              850.84  1085.25  1134.13  1216.64  1233.66
                             1263.60  1294.24  1380.54  1391.94  1412.41
                             1463.00  1478.23  1504.62  1515.63  1535.73
                             1540.59  1575.81  1599.41  1697.47  1705.73
                             1719.07  1779.11  1796.31  1837.08  1872.74
                             2007.10  2036.38  2082.95  2112.37  2165.57
                             2184.77  4251.80  4300.29  4500.55  4506.82
                             4516.87  4584.04  4602.32  4622.62  4642.91
                             5503.58

 Zero-point correction=                           0.157765 (Hartree/Particle)
 Thermal correction to Energy=                    0.166352
 Thermal correction to Enthalpy=                  0.167296
 Thermal correction to Gibbs Free Energy=         0.124378
 Sum of electronic and zero-point Energies=           -422.951553
 Sum of electronic and thermal Energies=              -422.942966
 Sum of electronic and thermal Enthalpies=            -422.942022
 Sum of electronic and thermal Free Energies=         -422.984939

                     E (Thermal)             CV                S
                      KCal/Mol        Cal/Mol-Kelvin    Cal/Mol-Kelvin
 Total                  104.387             32.766             90.328
 Electronic               0.000              0.000              0.000
 Translational            0.889              2.981             40.409
 Rotational               0.889              2.981             28.820
 Vibrational            102.610             26.804             21.099
 Vibration     1          0.598              1.967              4.095
 Vibration     2          0.611              1.927              3.012
 Vibration     3          0.620              1.897              2.612
 Vibration     4          0.652              1.794              1.875
 Vibration     5          0.669              1.742              1.649
 Vibration     6          0.687              1.690              1.466
 Vibration     7          0.700              1.651              1.352
 Vibration     8          0.763              1.479              0.978
 Vibration     9          0.860              1.239              0.646
 Vibration    10          0.877              1.200              0.604
 Vibration    11          0.949              1.050              0.465

 Optimization completed.
    -- Stationary point found.
 Normal termination of Gaussian 09 at Tue Jan 28 14:41:53 2020.
