 Gaussian 09, Revision D.01,
 Gaussian 09:  ES64L-G09RevD.01 24-Apr-2013

 -----------------------------
 # b3lyp 6-31G(2df,p) opt Freq
 -----------------------------

 -----
 titel
 -----
 Symbolic Z-matrix:
 Charge =  0 Multiplicity = 1

 SCF Done:  E(RB3LYP) =  -423.226867535     A.U. after   14 cycles
 Optimization completed.
    -- Stationary point found.
 Normal termination of Gaussian 09 at Mon Jan 27 13:08:09 2020.

 ----------------------------------------------------------------------
 #N Geom=AllCheck Guess=TCheck SCRF=Check GenChk RB3LYP/6-31G(2df,p) Fr
 eq
 ----------------------------------------------------------------------

 Structure from the checkpoint file:  "/scratch/puck/g09_5a6479e2-4bb7-45ec-84c6-e516f63d3dd7/Gau-55031.chk"
 -----
 titel
 -----
 Charge =  0 Multiplicity = 1

                         Standard orientation:
 ---------------------------------------------------------------------
 Center     Atomic      Atomic             Coordinates (Angstroms)
 Number     Number       Type             X           Y           Z
 ---------------------------------------------------------------------
      1          8           0        2.734583   -0.399769    0.217130
      2          6           0        1.564395   -0.163763    0.091012
      3          6           0        0.889934    1.101290    0.593792
      4          6           0       -0.160079    1.621296   -0.398542
      5          6           0       -1.219698    0.557557   -0.677985
      6          6           0       -2.169624    0.193472    0.504940
      7          6           0       -1.434705   -1.165110    0.686593
      8          6           0       -0.641634   -0.890537   -0.617741
      9          8           0        0.776643   -1.052766   -0.571279
     10          1           0        0.424436    0.884704    1.563628
     11          1           0        1.681389    1.829200    0.779763
     12          1           0       -0.627158    2.535173   -0.014981
     13          1           0        0.342472    1.892214   -1.334376
     14          1           0       -1.739394    0.782555   -1.612264
     15          1           0       -2.133399    0.871604    1.361977
     16          1           0       -3.212935    0.090073    0.200221
     17          1           0       -0.788143   -1.203769    1.566522
     18          1           0       -2.053576   -2.064688    0.680551
     19          1           0       -0.955031   -1.522022   -1.450258
 ---------------------------------------------------------------------

 SCF Done:  E(RB3LYP) =  -423.226867535     A.U. after    1 cycles

 The electronic state is 1-A.
 Alpha  occ. eigenvalues --  -19.17541 -19.11275 -10.29956 -10.24849 -10.20146
 Alpha  occ. eigenvalues --  -10.20139 -10.20101 -10.19516 -10.19382  -1.09026
 Alpha  occ. eigenvalues --   -1.00987  -0.85770  -0.79239  -0.70142  -0.68592
 Alpha  occ. eigenvalues --   -0.62604  -0.59952  -0.52133  -0.50690  -0.50645
 Alpha  occ. eigenvalues --   -0.46461  -0.45128  -0.44279  -0.42016  -0.40512
 Alpha  occ. eigenvalues --   -0.39134  -0.38634  -0.37300  -0.35503  -0.33453
 Alpha  occ. eigenvalues --   -0.32247  -0.30086  -0.27814  -0.25669
 Alpha virt. eigenvalues --    0.01665   0.06225   0.07540   0.10482   0.11355
 Alpha virt. eigenvalues --    0.12801   0.13814   0.15196   0.16121   0.16943
 Alpha virt. eigenvalues --    0.17487   0.18052   0.19990   0.20903   0.21941

 Mulliken charges:
               1
     1  O   -0.326620
     2  C    0.409546
     3  C   -0.350961
     4  C   -0.228823
     5  C   -0.032922
     6  C   -0.231829
     7  C   -0.251082
     8  C    0.137407
     9  O   -0.232143
    10  H    0.130895
    11  H    0.135667
    12  H    0.108130
    13  H    0.115751
    14  H    0.078343
    15  H    0.103832
    16  H    0.109530
    17  H    0.116311
    18  H    0.110730
    19  H    0.098239
 Sum of Mulliken charges =   0.00000

 Dipole moment (field-independent basis, Debye):
    X=             -4.1879    Y=              1.6340    Z=              0.1113  Tot=              4.4968
 Quadrupole moment (field-independent basis, Debye-Ang):
   XX=            -62.5480   YY=            -52.2554   ZZ=            -51.3414
   XY=              4.5257   XZ=              0.5391   YZ=             -0.0864

  Exact polarizability:  87.022   2.135  71.987   2.034   0.499  63.855
 Approx polarizability: 124.386   0.621 102.213   4.421   2.689  98.299

                      1                      2                      3
                      A                      A                      A
 Frequencies --     85.8890               124.7707               196.2201
 Red. masses --      3.8985                 2.7048                 2.6291
 Frc consts  --      0.0169                 0.0248                 0.0596
 IR Inten    --      1.9875                 0.3776                 2.4284

                      4                      5                      6
                      A                      A                      A
 Frequencies --    333.5243               380.8792               438.3428
 Red. masses --      2.2943                 3.1679                 3.6496
 Frc consts  --      0.1504                 0.2708                 0.4132
 IR Inten    --      0.5868                 1.3019                 3.6150

                      7                      8                      9
                      A                      A                      A
 Frequencies --    460.1124               495.0660               619.5366
 Red. masses --      5.1412                 2.9359                 3.1121
 Frc consts  --      0.6413                 0.4239                 0.7038
 IR Inten    --      2.2772                 1.9907                 2.5151

                     10                     11                     12
                      A                      A                      A
 Frequencies --    693.4894               709.5804               748.2280
 Red. masses --      2.7725                 2.9606                 1.2726
 Frc consts  --      0.7856                 0.8783                 0.4198
 IR Inten    --      5.7980                 6.3543                 0.7653

                     13                     14                     15
                      A                      A                      A
 Frequencies --    770.9898               822.3792               874.0833
 Red. masses --      3.0805                 2.8467                 2.5559
 Frc consts  --      1.0789                 1.1343                 1.1505
 IR Inten    --      1.3525                 1.6755                 3.4079

                     16                     17                     18
                      A                      A                      A
 Frequencies --    935.5981               943.1117               957.6641
 Red. masses --      2.0114                 2.1385                 2.7266
 Frc consts  --      1.0374                 1.1207                 1.4733
 IR Inten    --      4.4462                12.8107                 5.8741

                     19                     20                     21
                      A                      A                      A
 Frequencies --    969.3250              1003.3207              1077.5281
 Red. masses --      2.1076                 1.8293                 2.2148
 Frc consts  --      1.1668                 1.0850                 1.5151
 IR Inten    --      3.1299                 2.1657                 9.0758

                     22                     23                     24
                      A                      A                      A
 Frequencies --   1083.5587              1114.5648              1150.2919
 Red. masses --      1.6891                 1.9979                 2.6723
 Frc consts  --      1.1684                 1.4623                 2.0833
 IR Inten    --      7.4452               112.7016                50.5653

                     25                     26                     27
                      A                      A                      A
 Frequencies --   1156.7357              1203.5643              1218.9970
 Red. masses --      2.5856                 1.2266                 1.4834
 Frc consts  --      2.0384                 1.0469                 1.2987
 IR Inten    --     36.2698                 4.7921                41.5062

                     28                     29                     30
                      A                      A                      A
 Frequencies --   1237.5333              1258.1817              1265.9498
 Red. masses --      1.2576                 1.6110                 1.3694
 Frc consts  --      1.1347                 1.5026                 1.2930
 IR Inten    --      5.5346                60.1315                 2.9533

                     31                     32                     33
                      A                      A                      A
 Frequencies --   1289.1724              1299.1774              1336.8422
 Red. masses --      1.5515                 1.5607                 1.3652
 Frc consts  --      1.5193                 1.5521                 1.4375
 IR Inten    --     12.1381                 1.3205                 0.9722

                     34                     35                     36
                      A                      A                      A
 Frequencies --   1359.0408              1377.3739              1407.3294
 Red. masses --      1.6267                 1.4212                 1.3824
 Frc consts  --      1.7702                 1.5886                 1.6132
 IR Inten    --     10.6943                15.0833                29.2775

                     37                     38                     39
                      A                      A                      A
 Frequencies --   1468.5562              1478.1093              1491.8992
 Red. masses --      1.0895                 1.0814                 1.0919
 Frc consts  --      1.3844                 1.3921                 1.4320
 IR Inten    --      4.2830                 4.1810                 5.9849

                     40                     41                     42
                      A                      A                      A
 Frequencies --   1499.1831              1849.1523              3032.3359
 Red. masses --      1.1074                12.2699                 1.0628
 Frc consts  --      1.4665                24.7194                 5.7580
 IR Inten    --      6.8970               362.5104                15.0781

                     43                     44                     45
                      A                      A                      A
 Frequencies --   3039.5407              3060.5503              3069.3841
 Red. masses --      1.0671                 1.0601                 1.0736
 Frc consts  --      5.8084                 5.8506                 5.9596
 IR Inten    --     13.9381                26.8724                39.0032

                     46                     47                     48
                      A                      A                      A
 Frequencies --   3072.3400              3076.0231              3096.9817
 Red. masses --      1.0770                 1.0989                 1.0901
 Frc consts  --      5.9895                 6.1264                 6.1601
 IR Inten    --     16.3583                20.7640                23.3233

                     49                     50                     51
                      A                      A                      A
 Frequencies --   3108.9227              3120.8588              3128.7959
 Red. masses --      1.1056                 1.0941                 1.1055
 Frc consts  --      6.2958                 6.2788                 6.3765
 IR Inten    --      3.8415                18.4632                43.5996

 - Thermochemistry -
 -------------------
 Temperature   298.150 Kelvin.  Pressure   1.00000 Atm.
 Atom     1 has atomic number  8 and mass  15.99491

 Molecular mass:   126.06808 amu.
 Principal axes and moments of inertia in atomic units:
                           1         2         3
     Eigenvalues --   591.329691231.178721497.90690
           X            0.99956   0.02955  -0.00253
           Y           -0.02958   0.99950  -0.01124
           Z            0.00220   0.01131   0.99993
 This molecule is an asymmetric top.
 Rotational symmetry number  1.
 Warning -- assumption of classical behavior for rotation
           may cause significant error
 Rotational temperatures (Kelvin)      0.14647     0.07035     0.05782
 Rotational constants (GHZ):           3.05201     1.46586     1.20484
 Zero-point vibrational energy     424618.0 (Joules/Mol)
                                  101.48614 (Kcal/Mol)
 Warning -- explicit consideration of   9 degrees of freedom as
           vibrations may cause significant error
 Vibrational temperatures:    123.57   179.52   282.32   479.87   548.00
          (Kelvin)            630.68   662.00   712.29   891.37   997.78
                             1020.93  1076.53  1109.28  1183.22  1257.61
                             1346.12  1356.93  1377.86  1394.64  1443.55
                             1550.32  1559.00  1603.61  1655.01  1664.28
                             1731.66  1753.86  1780.53  1810.24  1821.42
                             1854.83  1869.22  1923.42  1955.35  1981.73
                             2024.83  2112.92  2126.67  2146.51  2156.99
                             2660.51  4362.85  4373.22  4403.44  4416.15
                             4420.41  4425.71  4455.86  4473.04  4490.21
                             4501.63

 Zero-point correction=                           0.161728 (Hartree/Particle)
 Thermal correction to Energy=                    0.169214
 Thermal correction to Enthalpy=                  0.170158
 Thermal correction to Gibbs Free Energy=         0.129559
 Sum of electronic and zero-point Energies=           -423.065139
 Sum of electronic and thermal Energies=              -423.057654
 Sum of electronic and thermal Enthalpies=            -423.056709
 Sum of electronic and thermal Free Energies=         -423.097308

                     E (Thermal)             CV                S
                      KCal/Mol        Cal/Mol-Kelvin    Cal/Mol-Kelvin
 Total                  106.183             29.502             85.448
 Electronic               0.000              0.000              0.000
 Translational            0.889              2.981             40.409
 Rotational               0.889              2.981             28.480
 Vibrational            104.406             23.540             16.560
 Vibration     1          0.601              1.959              3.752
 Vibration     2          0.610              1.928              3.025
 Vibration     3          0.636              1.845              2.168
 Vibration     4          0.715              1.609              1.243
 Vibration     5          0.751              1.511              1.036
 Vibration     6          0.799              1.387              0.832
 Vibration     7          0.818              1.339              0.766
 Vibration     8          0.851              1.261              0.671
 Vibration     9          0.979              0.991              0.417

 Optimization completed.
    -- Stationary point found.
 Normal termination of Gaussian 09 at Mon Jan 27 13:56:21 2020.
