 Gaussian 09, Revision D.01,
 Gaussian 09:  ES64L-G09RevD.01 24-Apr-2013

 -----------------------------
 # b3lyp 6-31G(2df,p) opt Freq
 -----------------------------

 -----
 titel
 -----
 Symbolic Z-matrix:
 Charge =  0 Multiplicity = 1

 SCF Done:  E(RB3LYP) =  -423.151099891     A.U. after   14 cycles
 Optimization completed.
    -- Stationary point found.
 Normal termination of Gaussian 09 at Mon Jan 27 18:09:38 2020.

 ----------------------------------------------------------------------
 #N Geom=AllCheck Guess=TCheck SCRF=Check GenChk RB3LYP/6-31G(2df,p) Fr
 eq
 ----------------------------------------------------------------------

 Structure from the checkpoint file:  "/scratch/puck/g09_c726a591-b552-4a34-8ebe-1dcebfc7fb1e/Gau-181741.chk"
 -----
 titel
 -----
 Charge =  0 Multiplicity = 1

                         Standard orientation:
 ---------------------------------------------------------------------
 Center     Atomic      Atomic             Coordinates (Angstroms)
 Number     Number       Type             X           Y           Z
 ---------------------------------------------------------------------
      1          6           0       -1.636207    1.497134   -0.032418
      2          6           0       -0.785492    0.265778   -0.033727
      3          8           0       -1.187712   -0.797392   -0.916554
      4          6           0       -0.229240   -1.597918   -0.164302
      5          6           0        1.102170   -1.021101   -0.678577
      6          6           0        0.818538    0.373030   -0.074053
      7          8           0        1.391690    1.514875   -0.623220
      8          6           0        0.822299    0.059585    1.451859
      9          6           0       -0.464955   -0.713328    1.124199
     10          1           0       -1.286541    2.206279    0.723357
     11          1           0       -1.578301    1.992324   -1.006806
     12          1           0       -2.680934    1.246779    0.172586
     13          1           0       -0.417517   -2.669904   -0.206585
     14          1           0        2.002324   -1.490237   -0.269402
     15          1           0        1.128986   -1.029854   -1.769979
     16          1           0        2.346938    1.397539   -0.661569
     17          1           0        1.683546   -0.473191    1.866076
     18          1           0        0.604224    0.945072    2.054937
     19          1           0       -1.197228   -1.043765    1.857695
 ---------------------------------------------------------------------

 SCF Done:  E(RB3LYP) =  -423.151099891     A.U. after    1 cycles

 The electronic state is 1-A.
 Alpha  occ. eigenvalues --  -19.14451 -19.12659 -10.23710 -10.23701 -10.23423
 Alpha  occ. eigenvalues --  -10.18922 -10.18128 -10.17973 -10.17573  -1.05142
 Alpha  occ. eigenvalues --   -1.02503  -0.84782  -0.75413  -0.70594  -0.66451
 Alpha  occ. eigenvalues --   -0.62556  -0.57405  -0.53220  -0.49836  -0.47881
 Alpha  occ. eigenvalues --   -0.46170  -0.44390  -0.42914  -0.40533  -0.39736
 Alpha  occ. eigenvalues --   -0.38224  -0.36865  -0.35820  -0.34828  -0.32760
 Alpha  occ. eigenvalues --   -0.29445  -0.28945  -0.25834  -0.23299
 Alpha virt. eigenvalues --    0.07066   0.10102   0.10531   0.11883   0.13135
 Alpha virt. eigenvalues --    0.13969   0.14746   0.15214   0.15777   0.17803
 Alpha virt. eigenvalues --    0.17898   0.19241   0.19857   0.20929   0.21984

 Mulliken charges:
               1
     1  C   -0.510687
     2  C    0.430890
     3  O   -0.331514
     4  C    0.067486
     5  C   -0.282822
     6  C    0.340404
     7  O   -0.493532
     8  C   -0.322335
     9  C   -0.123488
    10  H    0.128153
    11  H    0.140385
    12  H    0.125440
    13  H    0.079309
    14  H    0.088188
    15  H    0.110258
    16  H    0.281798
    17  H    0.088573
    18  H    0.105708
    19  H    0.077786
 Sum of Mulliken charges =   0.00000

 Dipole moment (field-independent basis, Debye):
    X=              1.7374    Y=             -0.4441    Z=              1.4191  Tot=              2.2869
 Quadrupole moment (field-independent basis, Debye-Ang):
   XX=            -49.2385   YY=            -53.0458   ZZ=            -54.5435
   XY=             -1.4989   XZ=             -2.7329   YZ=             -0.0456

  Exact polarizability:  76.778  -2.332  76.216  -0.871   0.502  68.925
 Approx polarizability: 111.360  -0.061 110.708   1.602  -0.291 104.960

                      1                      2                      3
                      A                      A                      A
 Frequencies --    169.8257               181.6070               205.6105
 Red. masses --      1.0364                 1.2160                 2.3828
 Frc consts  --      0.0176                 0.0236                 0.0594
 IR Inten    --     26.4636                47.8974                24.9821

                      4                      5                      6
                      A                      A                      A
 Frequencies --    232.4119               326.9263               379.8738
 Red. masses --      2.8256                 3.4479                 3.2429
 Frc consts  --      0.0899                 0.2171                 0.2757
 IR Inten    --      0.7341                 0.5781                 3.7353

                      7                      8                      9
                      A                      A                      A
 Frequencies --    450.4943               483.7687               547.7551
 Red. masses --      2.2762                 2.0591                 4.0175
 Frc consts  --      0.2722                 0.2839                 0.7102
 IR Inten    --      5.4937                 0.4169                 5.0162

                     10                     11                     12
                      A                      A                      A
 Frequencies --    602.0375               645.3247               693.3836
 Red. masses --      4.4314                 3.8464                 3.9963
 Frc consts  --      0.9463                 0.9438                 1.1320
 IR Inten    --      9.7097                 5.5366                 6.6448

                     13                     14                     15
                      A                      A                      A
 Frequencies --    734.2914               821.3784               835.7313
 Red. masses --      3.2891                 3.0755                 3.1248
 Frc consts  --      1.0449                 1.2225                 1.2859
 IR Inten    --      1.4384                 9.8201                 4.2237

                     16                     17                     18
                      A                      A                      A
 Frequencies --    864.9119               895.7810               909.0336
 Red. masses --      2.0210                 2.6502                 2.8831
 Frc consts  --      0.8907                 1.2529                 1.4037
 IR Inten    --      8.5038                18.0093                 7.2988

                     19                     20                     21
                      A                      A                      A
 Frequencies --    941.6211               960.8224               972.9471
 Red. masses --      1.9689                 1.8288                 1.9229
 Frc consts  --      1.0286                 0.9947                 1.0725
 IR Inten    --      9.1217                11.4509                11.2351

                     22                     23                     24
                      A                      A                      A
 Frequencies --   1032.7148              1062.7588              1078.0043
 Red. masses --      1.3587                 1.6236                 2.1233
 Frc consts  --      0.8538                 1.0804                 1.4538
 IR Inten    --      7.0451                 4.6972                30.8496

                     25                     26                     27
                      A                      A                      A
 Frequencies --   1115.6295              1134.8100              1156.6582
 Red. masses --      1.4906                 1.9541                 1.9192
 Frc consts  --      1.0931                 1.4827                 1.5128
 IR Inten    --      8.5216                27.6069                11.2977

                     28                     29                     30
                      A                      A                      A
 Frequencies --   1173.0380              1189.8980              1225.4443
 Red. masses --      1.7577                 1.5191                 1.6173
 Frc consts  --      1.4250                 1.2672                 1.4309
 IR Inten    --      7.0044                29.1685                 8.5929

                     31                     32                     33
                      A                      A                      A
 Frequencies --   1258.6417              1276.5863              1282.2907
 Red. masses --      2.1623                 1.7651                 2.0575
 Frc consts  --      2.0183                 1.6949                 1.9932
 IR Inten    --     16.7838                 9.2664               115.3496

                     34                     35                     36
                      A                      A                      A
 Frequencies --   1307.9749              1350.0921              1376.7542
 Red. masses --      1.6586                 2.4776                 1.9845
 Frc consts  --      1.6718                 2.6608                 2.2162
 IR Inten    --     11.6461                30.6231                 1.7197

                     37                     38                     39
                      A                      A                      A
 Frequencies --   1417.7532              1473.5316              1478.3436
 Red. masses --      1.7137                 1.0568                 1.1012
 Frc consts  --      2.0295                 1.3519                 1.4180
 IR Inten    --     10.7028                 6.3288                 1.3189

                     40                     41                     42
                      A                      A                      A
 Frequencies --   1491.2082              1507.4295              3042.5846
 Red. masses --      1.0576                 1.1411                 1.0351
 Frc consts  --      1.3856                 1.5277                 5.6456
 IR Inten    --      4.4529                 4.2850                18.3448

                     43                     44                     45
                      A                      A                      A
 Frequencies --   3049.6722              3056.1297              3109.5406
 Red. masses --      1.0582                 1.0597                 1.1068
 Frc consts  --      5.7985                 5.8313                 6.3052
 IR Inten    --     23.3384                35.6817                22.7024

                     46                     47                     48
                      A                      A                      A
 Frequencies --   3113.7142              3120.9845              3123.1525
 Red. masses --      1.1012                 1.1014                 1.1049
 Frc consts  --      6.2903                 6.3211                 6.3498
 IR Inten    --     12.6065                12.6096                20.0328

                     49                     50                     51
                      A                      A                      A
 Frequencies --   3126.9258              3143.9811              3803.9745
 Red. masses --      1.0909                 1.0922                 1.0660
 Frc consts  --      6.2847                 6.3606                 9.0884
 IR Inten    --     39.8546                35.4741                22.6932

 - Thermochemistry -
 -------------------
 Temperature   298.150 Kelvin.  Pressure   1.00000 Atm.
 Atom     1 has atomic number  6 and mass  12.00000

 Molecular mass:   126.06808 amu.
 Principal axes and moments of inertia in atomic units:
                           1         2         3
     Eigenvalues --   810.00010 868.097231089.02477
           X            0.77854  -0.62712  -0.02422
           Y            0.62751   0.77847   0.01444
           Z            0.00980  -0.02644   0.99960
 This molecule is an asymmetric top.
 Rotational symmetry number  1.
 Warning -- assumption of classical behavior for rotation
           may cause significant error
 Rotational temperatures (Kelvin)      0.10693     0.09977     0.07953
 Rotational constants (GHZ):           2.22808     2.07896     1.65721
 Zero-point vibrational energy     418308.7 (Joules/Mol)
                                   99.97819 (Kcal/Mol)
 Warning -- explicit consideration of  10 degrees of freedom as
           vibrations may cause significant error
 Vibrational temperatures:    244.34   261.29   295.83   334.39   470.37
          (Kelvin)            546.55   648.16   696.03   788.10   866.20
                              928.48   997.62  1056.48  1181.78  1202.43
                             1244.41  1288.83  1307.89  1354.78  1382.41
                             1399.85  1485.84  1529.07  1551.01  1605.14
                             1632.74  1664.17  1687.74  1712.00  1763.14
                             1810.90  1836.72  1844.93  1881.88  1942.48
                             1980.84  2039.83  2120.08  2127.00  2145.51
                             2168.85  4377.60  4387.79  4397.08  4473.93
                             4479.93  4490.40  4493.51  4498.94  4523.48
                             5473.06

 Zero-point correction=                           0.159325 (Hartree/Particle)
 Thermal correction to Energy=                    0.167078
 Thermal correction to Enthalpy=                  0.168022
 Thermal correction to Gibbs Free Energy=         0.127697
 Sum of electronic and zero-point Energies=           -422.991775
 Sum of electronic and thermal Energies=              -422.984022
 Sum of electronic and thermal Enthalpies=            -422.983078
 Sum of electronic and thermal Free Energies=         -423.023403

                     E (Thermal)             CV                S
                      KCal/Mol        Cal/Mol-Kelvin    Cal/Mol-Kelvin
 Total                  104.843             31.472             84.871
 Electronic               0.000              0.000              0.000
 Translational            0.889              2.981             40.409
 Rotational               0.889              2.981             28.128
 Vibrational            103.065             25.510             16.334
 Vibration     1          0.625              1.880              2.437
 Vibration     2          0.630              1.865              2.312
 Vibration     3          0.640              1.832              2.082
 Vibration     4          0.653              1.791              1.860
 Vibration     5          0.711              1.622              1.275
 Vibration     6          0.750              1.513              1.040
 Vibration     7          0.809              1.360              0.794
 Vibration     8          0.840              1.286              0.700
 Vibration     9          0.903              1.145              0.549
 Vibration    10          0.960              1.027              0.446

 Normal termination of Gaussian 09 at Mon Jan 27 18:57:46 2020.
