 Gaussian 09, Revision D.01,
 Gaussian 09:  ES64L-G09RevD.01 24-Apr-2013

 -----------------------------
 # b3lyp 6-31G(2df,p) opt Freq
 -----------------------------

 -----
 titel
 -----
 Symbolic Z-matrix:
 Charge =  0 Multiplicity = 1

 SCF Done:  E(RB3LYP) =  -423.204262433     A.U. after   14 cycles
 Optimization completed.
    -- Stationary point found.
 Normal termination of Gaussian 09 at Mon Jan 27 14:03:47 2020.

 ----------------------------------------------------------------------
 #N Geom=AllCheck Guess=TCheck SCRF=Check GenChk RB3LYP/6-31G(2df,p) Fr
 eq
 ----------------------------------------------------------------------

 Structure from the checkpoint file:  "/scratch/puck/g09_cf8f250f-0651-4727-a420-d24a70a12a1c/Gau-23791.chk"
 -----
 titel
 -----
 Charge =  0 Multiplicity = 1

                         Standard orientation:
 ---------------------------------------------------------------------
 Center     Atomic      Atomic             Coordinates (Angstroms)
 Number     Number       Type             X           Y           Z
 ---------------------------------------------------------------------
      1          6           0       -3.184752   -0.641346   -0.210154
      2          6           0       -1.978489    0.265934   -0.061439
      3          8           0       -1.980133    1.410239   -0.457028
      4          6           0       -0.745290   -0.349943    0.573927
      5          6           0        0.393389    0.601494    1.007404
      6          6           0        1.435661   -0.368913    0.369641
      7          6           0        0.261266   -1.017315   -0.425367
      8          6           0        2.537210    0.256087   -0.439779
      9          8           0        3.713617    0.043063   -0.295643
     10          1           0       -3.595576   -0.870917    0.780392
     11          1           0       -3.950425   -0.155168   -0.815600
     12          1           0       -2.898619   -1.597818   -0.661966
     13          1           0       -1.029052   -1.058529    1.357456
     14          1           0        0.315659    1.543349    0.456958
     15          1           0        0.505809    0.813058    2.071717
     16          1           0        1.871297   -1.055610    1.098248
     17          1           0        0.169788   -0.583563   -1.426560
     18          1           0        0.256971   -2.105497   -0.505465
     19          1           0        2.172305    0.968292   -1.219203
 ---------------------------------------------------------------------

 SCF Done:  E(RB3LYP) =  -423.204262433     A.U. after    1 cycles

 The electronic state is 1-A.
 Alpha  occ. eigenvalues --  -19.13974 -19.13614 -10.27592 -10.26975 -10.21193
 Alpha  occ. eigenvalues --  -10.20798 -10.20493 -10.19909 -10.19670  -1.04638
 Alpha  occ. eigenvalues --   -1.04595  -0.86872  -0.76246  -0.71079  -0.68028
 Alpha  occ. eigenvalues --   -0.61902  -0.57029  -0.53078  -0.50360  -0.48800
 Alpha  occ. eigenvalues --   -0.45259  -0.44700  -0.44100  -0.42909  -0.41115
 Alpha  occ. eigenvalues --   -0.40694  -0.40078  -0.37445  -0.35091  -0.34615
 Alpha  occ. eigenvalues --   -0.34011  -0.32180  -0.25936  -0.24355
 Alpha virt. eigenvalues --   -0.03329  -0.01347   0.06884   0.09225   0.10551
 Alpha virt. eigenvalues --    0.12610   0.13154   0.13949   0.14658   0.15786
 Alpha virt. eigenvalues --    0.16669   0.18273   0.19123   0.19846   0.20664

 Mulliken charges:
               1
     1  C   -0.482452
     2  C    0.372796
     3  O   -0.299585
     4  C   -0.077631
     5  C   -0.265378
     6  C   -0.061626
     7  C   -0.260972
     8  C    0.156921
     9  O   -0.249390
    10  H    0.144326
    11  H    0.144890
    12  H    0.139186
    13  H    0.082758
    14  H    0.134688
    15  H    0.115233
    16  H    0.092914
    17  H    0.121662
    18  H    0.118687
    19  H    0.072973
 Sum of Mulliken charges =   0.00000

 Dipole moment (field-independent basis, Debye):
    X=             -2.7408    Y=             -2.3923    Z=              0.9252  Tot=              3.7538
 Quadrupole moment (field-independent basis, Debye-Ang):
   XX=            -66.4917   YY=            -54.9332   ZZ=            -51.1883
   XY=              5.5831   XZ=             -0.8739   YZ=              1.0808

  Exact polarizability:  97.990   1.230  70.776   1.060  -2.894  64.507
 Approx polarizability: 126.591  -2.943 114.296   2.079  -8.268  98.354

                      1                      2                      3
                      A                      A                      A
 Frequencies --     31.4713                54.0898                68.9709
 Red. masses --      3.5143                 5.1012                 4.4419
 Frc consts  --      0.0021                 0.0088                 0.0124
 IR Inten    --      1.3816                 2.8037                 7.0624

                      4                      5                      6
                      A                      A                      A
 Frequencies --    136.9481               195.6489               251.4076
 Red. masses --      1.0405                 3.0491                 4.1492
 Frc consts  --      0.0115                 0.0688                 0.1545
 IR Inten    --      0.0453                 1.3511                 6.8254

                      7                      8                      9
                      A                      A                      A
 Frequencies --    297.8570               340.0091               342.2666
 Red. masses --      2.2423                 3.1723                 2.2849
 Frc consts  --      0.1172                 0.2161                 0.1577
 IR Inten    --      0.1733                 2.8257                 3.3084

                     10                     11                     12
                      A                      A                      A
 Frequencies --    467.5759               577.2652               600.2389
 Red. masses --      4.3960                 3.0396                 2.7261
 Frc consts  --      0.5663                 0.5968                 0.5787
 IR Inten    --      9.7893                 4.9343                 4.8214

                     13                     14                     15
                      A                      A                      A
 Frequencies --    633.9657               786.3792               804.6790
 Red. masses --      2.4300                 2.3533                 1.2765
 Frc consts  --      0.5754                 0.8574                 0.4870
 IR Inten    --      7.3412                 7.8566                 2.5098

                     16                     17                     18
                      A                      A                      A
 Frequencies --    892.3223               905.1438               939.3159
 Red. masses --      2.7290                 2.8273                 2.2444
 Frc consts  --      1.2802                 1.3648                 1.1667
 IR Inten    --      7.3854                 0.3152                12.8543

                     19                     20                     21
                      A                      A                      A
 Frequencies --    958.4638               977.8105              1007.0125
 Red. masses --      2.4486                 1.8409                 1.2265
 Frc consts  --      1.3253                 1.0370                 0.7328
 IR Inten    --      0.6450                10.8995                 1.8281

                     22                     23                     24
                      A                      A                      A
 Frequencies --   1068.4170              1083.3568              1088.1294
 Red. masses --      2.5621                 2.0815                 2.3951
 Frc consts  --      1.7232                 1.4394                 1.6708
 IR Inten    --     12.3592                 8.6452                 1.7527

                     25                     26                     27
                      A                      A                      A
 Frequencies --   1143.4032              1182.6267              1213.5299
 Red. masses --      2.2835                 1.9950                 1.6406
 Frc consts  --      1.7590                 1.6440                 1.4235
 IR Inten    --     20.6617                75.9522                36.5681

                     28                     29                     30
                      A                      A                      A
 Frequencies --   1238.2941              1254.4400              1264.1341
 Red. masses --      1.3288                 1.1761                 1.4369
 Frc consts  --      1.2005                 1.0904                 1.3529
 IR Inten    --      0.2842                 1.3678                 0.8802

                     31                     32                     33
                      A                      A                      A
 Frequencies --   1273.7629              1325.5243              1367.3555
 Red. masses --      1.2931                 1.4492                 1.4623
 Frc consts  --      1.2361                 1.5002                 1.6109
 IR Inten    --      1.2937                 1.4743                 8.1336

                     34                     35                     36
                      A                      A                      A
 Frequencies --   1385.9631              1431.3783              1462.3570
 Red. masses --      1.5310                 1.2191                 1.0548
 Frc consts  --      1.7328                 1.4717                 1.3290
 IR Inten    --     48.3088                 2.4408                 9.5982

                     37                     38                     39
                      A                      A                      A
 Frequencies --   1471.7105              1475.5640              1493.1466
 Red. masses --      1.0841                 1.0520                 1.1166
 Frc consts  --      1.3835                 1.3495                 1.4667
 IR Inten    --      1.9592                 8.2727                 8.0426

                     40                     41                     42
                      A                      A                      A
 Frequencies --   1806.2639              1830.0185              2842.7933
 Red. masses --     10.5571                10.3681                 1.0814
 Frc consts  --     20.2936                20.4579                 5.1492
 IR Inten    --    121.3410               214.1335                87.7270

                     43                     44                     45
                      A                      A                      A
 Frequencies --   3033.2005              3053.3239              3066.8472
 Red. masses --      1.0376                 1.0608                 1.0816
 Frc consts  --      5.6243                 5.8267                 5.9938
 IR Inten    --      1.7245                20.6494                13.1567

                     46                     47                     48
                      A                      A                      A
 Frequencies --   3070.1400              3092.9557              3094.1280
 Red. masses --      1.0604                 1.0977                 1.0870
 Frc consts  --      5.8887                 6.1870                 6.1315
 IR Inten    --     13.9631                 8.2035                 7.7026

                     49                     50                     51
                      A                      A                      A
 Frequencies --   3123.6253              3132.9374              3152.6183
 Red. masses --      1.1055                 1.1067                 1.1017
 Frc consts  --      6.3550                 6.4003                 6.4516
 IR Inten    --     21.7987                19.6922                10.5550

 - Thermochemistry -
 -------------------
 Temperature   298.150 Kelvin.  Pressure   1.00000 Atm.
 Atom     1 has atomic number  6 and mass  12.00000

 Molecular mass:   126.06808 amu.
 Principal axes and moments of inertia in atomic units:
                           1         2         3
     Eigenvalues --   403.895542324.422532437.80916
           X            0.99983   0.01845   0.00247
           Y           -0.01852   0.99935   0.03106
           Z           -0.00190  -0.03110   0.99951
 This molecule is an asymmetric top.
 Rotational symmetry number  1.
 Rotational temperatures (Kelvin)      0.21445     0.03726     0.03553
 Rotational constants (GHZ):           4.46834     0.77643     0.74031
 Zero-point vibrational energy     411460.3 (Joules/Mol)
                                   98.34137 (Kcal/Mol)
 Warning -- explicit consideration of  12 degrees of freedom as
           vibrations may cause significant error
 Vibrational temperatures:     45.28    77.82    99.23   197.04   281.49
          (Kelvin)            361.72   428.55   489.20   492.44   672.74
                              830.55   863.61   912.13  1131.42  1157.75
                             1283.85  1302.30  1351.46  1379.01  1406.85
                             1448.86  1537.21  1558.71  1565.57  1645.10
                             1701.53  1746.00  1781.63  1804.86  1818.80
                             1832.66  1907.13  1967.32  1994.09  2059.43
                             2104.00  2117.46  2123.00  2148.30  2598.81
                             2632.99  4090.14  4364.09  4393.05  4412.50
                             4417.24  4450.07  4451.75  4494.19  4507.59
                             4535.91

 Zero-point correction=                           0.156717 (Hartree/Particle)
 Thermal correction to Energy=                    0.166334
 Thermal correction to Enthalpy=                  0.167278
 Thermal correction to Gibbs Free Energy=         0.120430
 Sum of electronic and zero-point Energies=           -423.047545
 Sum of electronic and thermal Energies=              -423.037929
 Sum of electronic and thermal Enthalpies=            -423.036984
 Sum of electronic and thermal Free Energies=         -423.083832

                     E (Thermal)             CV                S
                      KCal/Mol        Cal/Mol-Kelvin    Cal/Mol-Kelvin
 Total                  104.376             33.704             98.599
 Electronic               0.000              0.000              0.000
 Translational            0.889              2.981             40.409
 Rotational               0.889              2.981             29.216
 Vibrational            102.599             27.742             28.975
 Vibration     1          0.594              1.983              5.734
 Vibration     2          0.596              1.976              4.662
 Vibration     3          0.598              1.969              4.183
 Vibration     4          0.614              1.916              2.846
 Vibration     5          0.636              1.846              2.174
 Vibration     6          0.663              1.760              1.721
 Vibration     7          0.691              1.678              1.429
 Vibration     8          0.720              1.596              1.212
 Vibration     9          0.721              1.591              1.202
 Vibration    10          0.825              1.322              0.744
 Vibration    11          0.934              1.080              0.490
 Vibration    12          0.958              1.031              0.449

 Optimization completed.
    -- Stationary point found.
 Normal termination of Gaussian 09 at Mon Jan 27 14:44:20 2020.
