 Gaussian 09, Revision D.01,
 Gaussian 09:  ES64L-G09RevD.01 24-Apr-2013

 -----------------------------
 # b3lyp 6-31G(2df,p) opt Freq
 -----------------------------

 -----
 titel
 -----
 Symbolic Z-matrix:
 Charge =  0 Multiplicity = 1

 SCF Done:  E(RB3LYP) =  -423.180268077     A.U. after   12 cycles
 Optimization completed.
    -- Stationary point found.
 Normal termination of Gaussian 09 at Mon Jan 27 11:53:56 2020.

 ----------------------------------------------------------------------
 #N Geom=AllCheck Guess=TCheck SCRF=Check GenChk RB3LYP/6-31G(2df,p) Fr
 eq
 ----------------------------------------------------------------------

 Structure from the checkpoint file:  "/scratch/puck/g09_6529da26-aa30-4430-8e46-51935ea51111/Gau-71149.chk"
 -----
 titel
 -----
 Charge =  0 Multiplicity = 1

                         Standard orientation:
 ---------------------------------------------------------------------
 Center     Atomic      Atomic             Coordinates (Angstroms)
 Number     Number       Type             X           Y           Z
 ---------------------------------------------------------------------
      1          6           0       -2.272861   -0.414158    0.400533
      2          6           0       -2.015115    0.772294   -0.522465
      3          6           0       -0.878952   -0.037329    0.010025
      4          8           0       -0.183722   -0.901750   -0.895358
      5          6           0        1.168128   -0.870872   -0.453785
      6          6           0        1.047867   -0.822126    1.072620
      7          6           0        0.200633    0.465768    0.961293
      8          6           0        1.160531    1.329314    0.118533
      9          8           0        1.758889    0.373272   -0.785510
     10          1           0       -2.607686   -0.219240    1.414333
     11          1           0       -2.678833   -1.312849   -0.050424
     12          1           0       -2.257499    0.648109   -1.571768
     13          1           0       -2.173947    1.773229   -0.133499
     14          1           0        1.719473   -1.670687   -0.943875
     15          1           0        0.506286   -1.671851    1.490648
     16          1           0        2.007543   -0.685137    1.574449
     17          1           0       -0.163168    0.927297    1.878245
     18          1           0        0.640743    2.101962   -0.457232
     19          1           0        1.944360    1.799644    0.725537
 ---------------------------------------------------------------------

 SCF Done:  E(RB3LYP) =  -423.180268077     A.U. after    1 cycles

 The electronic state is 1-A.
 Alpha  occ. eigenvalues --  -19.13973 -19.13630 -10.27396 -10.23988 -10.22867
 Alpha  occ. eigenvalues --  -10.20244 -10.18734 -10.18447 -10.18389  -1.07650
 Alpha  occ. eigenvalues --   -0.99933  -0.85299  -0.79423  -0.72582  -0.62278
 Alpha  occ. eigenvalues --   -0.61192  -0.60171  -0.53255  -0.52613  -0.51492
 Alpha  occ. eigenvalues --   -0.46839  -0.45881  -0.44998  -0.41579  -0.38337
 Alpha  occ. eigenvalues --   -0.37181  -0.37058  -0.36352  -0.33831  -0.33395
 Alpha  occ. eigenvalues --   -0.32818  -0.29454  -0.25791  -0.23222
 Alpha virt. eigenvalues --    0.08694   0.10730   0.11043   0.11412   0.13015
 Alpha virt. eigenvalues --    0.13871   0.14783   0.15665   0.16544   0.17501
 Alpha virt. eigenvalues --    0.18096   0.18433   0.19799   0.21543   0.22373

 Mulliken charges:
               1
     1  C   -0.357129
     2  C   -0.346770
     3  C    0.509492
     4  O   -0.309871
     5  C    0.203859
     6  C   -0.262164
     7  C   -0.167115
     8  C   -0.074435
     9  O   -0.269327
    10  H    0.111205
    11  H    0.124604
    12  H    0.128304
    13  H    0.111465
    14  H    0.092184
    15  H    0.112902
    16  H    0.106356
    17  H    0.079730
    18  H    0.109830
    19  H    0.096880
 Sum of Mulliken charges =   0.00000

 Dipole moment (field-independent basis, Debye):
    X=             -0.5100    Y=              0.4476    Z=              2.2011  Tot=              2.3034
 Quadrupole moment (field-independent basis, Debye-Ang):
   XX=            -54.2494   YY=            -50.7174   ZZ=            -53.7996
   XY=             -1.8699   XZ=              1.8026   YZ=              0.5525

  Exact polarizability:  82.609  -1.108  73.149   1.151  -0.635  66.230
 Approx polarizability: 110.795  -1.166 108.427  -1.152   0.597 101.416

                      1                      2                      3
                      A                      A                      A
 Frequencies --    118.6408               230.2562               275.9767
 Red. masses --      4.6353                 2.1280                 2.5571
 Frc consts  --      0.0384                 0.0665                 0.1147
 IR Inten    --      0.9210                 0.5747                 0.5647

                      4                      5                      6
                      A                      A                      A
 Frequencies --    327.5452               421.9131               502.0959
 Red. masses --      2.3696                 3.0655                 2.5033
 Frc consts  --      0.1498                 0.3215                 0.3718
 IR Inten    --      1.4951                 1.0896                 2.2906

                      7                      8                      9
                      A                      A                      A
 Frequencies --    530.9752               559.6375               675.7939
 Red. masses --      4.0630                 4.4864                 4.0513
 Frc consts  --      0.6749                 0.8279                 1.0901
 IR Inten    --      2.5565                 2.2316                 0.7878

                     10                     11                     12
                      A                      A                      A
 Frequencies --    762.6515               806.2667               827.4914
 Red. masses --      1.0537                 4.8091                 3.3823
 Frc consts  --      0.3611                 1.8419                 1.3646
 IR Inten    --      2.3514                 3.6382                16.3125

                     13                     14                     15
                      A                      A                      A
 Frequencies --    861.6544               889.9538               907.6532
 Red. masses --      2.2211                 1.3274                 3.0241
 Frc consts  --      0.9716                 0.6194                 1.4679
 IR Inten    --      1.1152                 0.2775               102.6091

                     16                     17                     18
                      A                      A                      A
 Frequencies --    915.6108               934.3083               952.2419
 Red. masses --      2.2819                 3.4812                 2.2735
 Frc consts  --      1.1271                 1.7905                 1.2146
 IR Inten    --      9.2925                51.0126                 7.6674

                     19                     20                     21
                      A                      A                      A
 Frequencies --    957.1654               976.7958               987.1325
 Red. masses --      2.3435                 2.3293                 2.9024
 Frc consts  --      1.2650                 1.3094                 1.6663
 IR Inten    --     24.0516                 6.4956                11.5377

                     22                     23                     24
                      A                      A                      A
 Frequencies --   1043.3863              1056.5936              1066.6952
 Red. masses --      1.5036                 2.0395                 1.9162
 Frc consts  --      0.9645                 1.3415                 1.2846
 IR Inten    --      1.7974                23.3602                37.9828

                     25                     26                     27
                      A                      A                      A
 Frequencies --   1071.7264              1083.2645              1124.9767
 Red. masses --      1.4890                 3.3944                 1.3000
 Frc consts  --      1.0076                 2.3468                 0.9694
 IR Inten    --      1.6191                65.6247                34.0824

                     28                     29                     30
                      A                      A                      A
 Frequencies --   1173.2721              1187.1583              1223.7708
 Red. masses --      1.5697                 1.2632                 1.4887
 Frc consts  --      1.2731                 1.0489                 1.3136
 IR Inten    --     20.4547                 0.0731                 8.6100

                     31                     32                     33
                      A                      A                      A
 Frequencies --   1233.4060              1272.1840              1278.7554
 Red. masses --      1.6381                 1.7606                 1.5282
 Frc consts  --      1.4682                 1.6788                 1.4723
 IR Inten    --     16.7959                10.1216                 3.1206

                     34                     35                     36
                      A                      A                      A
 Frequencies --   1307.7952              1350.6144              1378.2150
 Red. masses --      1.5207                 1.4198                 1.5460
 Frc consts  --      1.5324                 1.5259                 1.7301
 IR Inten    --      8.2793                 7.8705                21.8710

                     37                     38                     39
                      A                      A                      A
 Frequencies --   1396.5368              1450.7106              1486.9516
 Red. masses --      1.8227                 1.0908                 1.1299
 Frc consts  --      2.0945                 1.3526                 1.4720
 IR Inten    --      3.1420                 1.6801                 4.5145

                     40                     41                     42
                      A                      A                      A
 Frequencies --   1502.6614              1523.7015              3020.4597
 Red. masses --      1.6452                 1.1306                 1.0611
 Frc consts  --      2.1888                 1.5466                 5.7035
 IR Inten    --     13.8794                 3.5978                64.3732

                     43                     44                     45
                      A                      A                      A
 Frequencies --   3073.7224              3080.4440              3127.3297
 Red. masses --      1.1048                 1.0577                 1.0516
 Frc consts  --      6.1500                 5.9137                 6.0598
 IR Inten    --     28.4839                20.3445                13.5980

                     46                     47                     48
                      A                      A                      A
 Frequencies --   3129.2227              3132.0850              3143.2396
 Red. masses --      1.0686                 1.0780                 1.1098
 Frc consts  --      6.1650                 6.2306                 6.4602
 IR Inten    --      4.1838                22.3568                17.6051

                     49                     50                     51
                      A                      A                      A
 Frequencies --   3155.2150              3213.1340              3226.9566
 Red. masses --      1.0923                 1.1176                 1.1150
 Frc consts  --      6.4072                 6.7983                 6.8410
 IR Inten    --     27.4416                 0.1853                 9.5828

 - Thermochemistry -
 -------------------
 Temperature   298.150 Kelvin.  Pressure   1.00000 Atm.
 Atom     1 has atomic number  6 and mass  12.00000

 Molecular mass:   126.06808 amu.
 Principal axes and moments of inertia in atomic units:
                           1         2         3
     Eigenvalues --   554.308001147.512121204.79408
           X            0.99979  -0.00823   0.01863
           Y            0.00980   0.99627  -0.08578
           Z           -0.01785   0.08595   0.99614
 This molecule is an asymmetric top.
 Rotational symmetry number  1.
 Warning -- assumption of classical behavior for rotation
           may cause significant error
 Rotational temperatures (Kelvin)      0.15626     0.07548     0.07189
 Rotational constants (GHZ):           3.25585     1.57274     1.49797
 Zero-point vibrational energy     424291.2 (Joules/Mol)
                                  101.40802 (Kcal/Mol)
 Warning -- explicit consideration of   8 degrees of freedom as
           vibrations may cause significant error
 Vibrational temperatures:    170.70   331.29   397.07   471.26   607.04
          (Kelvin)            722.40   763.95   805.19   972.32  1097.28
                             1160.04  1190.57  1239.73  1280.44  1305.91
                             1317.36  1344.26  1370.06  1377.15  1405.39
                             1420.26  1501.20  1520.20  1534.73  1541.97
                             1558.57  1618.59  1688.07  1708.05  1760.73
                             1774.59  1830.39  1839.84  1881.62  1943.23
                             1982.94  2009.30  2087.25  2139.39  2161.99
                             2192.26  4345.76  4422.40  4432.07  4499.52
                             4502.25  4506.37  4522.41  4539.65  4622.98
                             4642.87

 Zero-point correction=                           0.161604 (Hartree/Particle)
 Thermal correction to Energy=                    0.168495
 Thermal correction to Enthalpy=                  0.169439
 Thermal correction to Gibbs Free Energy=         0.130536
 Sum of electronic and zero-point Energies=           -423.018664
 Sum of electronic and thermal Energies=              -423.011773
 Sum of electronic and thermal Enthalpies=            -423.010829
 Sum of electronic and thermal Free Energies=         -423.049732

                     E (Thermal)             CV                S
                      KCal/Mol        Cal/Mol-Kelvin    Cal/Mol-Kelvin
 Total                  105.732             28.733             81.879
 Electronic               0.000              0.000              0.000
 Translational            0.889              2.981             40.409
 Rotational               0.889              2.981             28.129
 Vibrational            103.955             22.772             13.341
 Vibration     1          0.609              1.934              3.122
 Vibration     2          0.652              1.795              1.877
 Vibration     3          0.678              1.718              1.558
 Vibration     4          0.711              1.620              1.272
 Vibration     5          0.784              1.423              0.885
 Vibration     6          0.857              1.245              0.653
 Vibration     7          0.886              1.181              0.585
 Vibration     8          0.915              1.119              0.525

 Optimization completed.
    -- Stationary point found.
 Normal termination of Gaussian 09 at Mon Jan 27 12:38:10 2020.
