 Gaussian 09, Revision D.01,
 Gaussian 09:  ES64L-G09RevD.01 24-Apr-2013

 -----------------------------
 # b3lyp 6-31G(2df,p) opt Freq
 -----------------------------

 -----
 titel
 -----
 Symbolic Z-matrix:
 Charge =  0 Multiplicity = 1

 SCF Done:  E(RB3LYP) =  -423.084385776     A.U. after   14 cycles
 Optimization completed.
    -- Stationary point found.
 Normal termination of Gaussian 09 at Tue Jan 28 02:19:38 2020.

 ----------------------------------------------------------------------
 #N Geom=AllCheck Guess=TCheck SCRF=Check GenChk RB3LYP/6-31G(2df,p) Fr
 eq
 ----------------------------------------------------------------------

 Structure from the checkpoint file:  "/scratch/puck/g09_e0e427bb-76c5-4f13-b0db-710fb4f79e09/Gau-4899.chk"
 -----
 titel
 -----
 Charge =  0 Multiplicity = 1

                         Standard orientation:
 ---------------------------------------------------------------------
 Center     Atomic      Atomic             Coordinates (Angstroms)
 Number     Number       Type             X           Y           Z
 ---------------------------------------------------------------------
      1          8           0        3.062731   -0.953476   -0.055643
      2          6           0        2.081266   -0.052330   -0.479441
      3          6           0        1.855268    1.275981    0.187901
      4          6           0        0.805508    0.171973    0.284373
      5          6           0       -0.510528    0.297911   -0.419537
      6          6           0       -1.516569   -0.889863   -0.357874
      7          6           0       -2.675177    0.079590   -0.684630
      8          6           0       -1.771248    0.710766    0.398563
      9          8           0       -1.729649   -0.605400    1.083969
     10          1           0        2.983257   -1.067957    0.896498
     11          1           0        2.018328   -0.079080   -1.563322
     12          1           0        2.426700    1.497189    1.083839
     13          1           0        1.647175    2.141728   -0.433659
     14          1           0        0.734562   -0.324322    1.248499
     15          1           0       -0.415015    0.778975   -1.399428
     16          1           0       -1.376646   -1.931880   -0.647211
     17          1           0       -2.702021    0.542754   -1.674293
     18          1           0       -3.654790   -0.243019   -0.332137
     19          1           0       -1.937331    1.592454    1.018483
 ---------------------------------------------------------------------

 SCF Done:  E(RB3LYP) =  -423.084385776     A.U. after    1 cycles

 The electronic state is 1-A.
 Alpha  occ. eigenvalues --  -19.14037 -19.13216 -10.24858 -10.24854 -10.23561
 Alpha  occ. eigenvalues --  -10.20266 -10.19441 -10.18912 -10.18313  -1.05528
 Alpha  occ. eigenvalues --   -1.02540  -0.84967  -0.79102  -0.69417  -0.65130
 Alpha  occ. eigenvalues --   -0.61160  -0.59325  -0.54406  -0.52108  -0.51069
 Alpha  occ. eigenvalues --   -0.47582  -0.44735  -0.41311  -0.40808  -0.39743
 Alpha  occ. eigenvalues --   -0.38349  -0.36285  -0.35201  -0.34769  -0.32425
 Alpha  occ. eigenvalues --   -0.32239  -0.27196  -0.24256  -0.23589
 Alpha virt. eigenvalues --    0.07879   0.09292   0.10002   0.10662   0.11651
 Alpha virt. eigenvalues --    0.12632   0.13208   0.13447   0.14304   0.15911
 Alpha virt. eigenvalues --    0.16568   0.18089   0.18695   0.19667   0.21104

 Mulliken charges:
               1
     1  O   -0.426599
     2  C    0.142784
     3  C   -0.338591
     4  C   -0.094840
     5  C    0.015492
     6  C    0.038594
     7  C   -0.225316
     8  C    0.039172
     9  O   -0.318004
    10  H    0.284025
    11  H    0.102700
    12  H    0.110337
    13  H    0.110090
    14  H    0.095916
    15  H    0.066857
    16  H    0.096793
    17  H    0.095700
    18  H    0.110404
    19  H    0.094486
 Sum of Mulliken charges =   0.00000

 Dipole moment (field-independent basis, Debye):
    X=             -0.7574    Y=              1.2417    Z=             -0.6051  Tot=              1.5753
 Quadrupole moment (field-independent basis, Debye-Ang):
   XX=            -58.1800   YY=            -52.5234   ZZ=            -51.8667
   XY=              0.0637   XZ=              6.8875   YZ=              0.0468

  Exact polarizability:  90.956   0.620  71.113   2.643   0.605  67.760
 Approx polarizability: 113.285  -1.048 110.454  -0.353  -0.883 109.708

                      1                      2                      3
                      A                      A                      A
 Frequencies --     61.4513                96.1603               118.0832
 Red. masses --      2.8892                 1.1976                 3.9438
 Frc consts  --      0.0064                 0.0065                 0.0324
 IR Inten    --      8.5184                89.1417                 1.2227

                      4                      5                      6
                      A                      A                      A
 Frequencies --    167.2034               306.9441               336.8575
 Red. masses --      3.4742                 4.5866                 4.2153
 Frc consts  --      0.0572                 0.2546                 0.2818
 IR Inten    --      4.1889                 0.8350                 9.7152

                      7                      8                      9
                      A                      A                      A
 Frequencies --    378.2885               459.4449               534.8775
 Red. masses --      2.7665                 2.3842                 2.1312
 Frc consts  --      0.2332                 0.2965                 0.3592
 IR Inten    --      5.8302                 1.1095                 3.9580

                     10                     11                     12
                      A                      A                      A
 Frequencies --    642.7854               752.6301               769.0247
 Red. masses --      3.3993                 6.6137                 2.6990
 Frc consts  --      0.8275                 2.2073                 0.9405
 IR Inten    --      4.6614                18.2992                 0.2507

                     13                     14                     15
                      A                      A                      A
 Frequencies --    807.1572               852.5997               867.1408
 Red. masses --      2.1986                 1.7318                 2.6539
 Frc consts  --      0.8439                 0.7417                 1.1758
 IR Inten    --     14.5502                 4.8554                10.5565

                     16                     17                     18
                      A                      A                      A
 Frequencies --    886.8288               909.0903               925.1017
 Red. masses --      2.3666                 2.0773                 3.1043
 Frc consts  --      1.0966                 1.0115                 1.5653
 IR Inten    --     21.7235                 8.6397                 9.6698

                     19                     20                     21
                      A                      A                      A
 Frequencies --    960.4139               963.4330              1026.0049
 Red. masses --      2.8604                 2.9333                 1.5009
 Frc consts  --      1.5545                 1.6042                 0.9309
 IR Inten    --     22.6069                 2.0752                 4.5482

                     22                     23                     24
                      A                      A                      A
 Frequencies --   1035.4549              1044.5027              1102.8117
 Red. masses --      1.0573                 1.4257                 1.7882
 Frc consts  --      0.6679                 0.9164                 1.2814
 IR Inten    --      0.8810                 2.5652                 3.9951

                     25                     26                     27
                      A                      A                      A
 Frequencies --   1106.7240              1113.8905              1127.6867
 Red. masses --      1.6864                 1.2160                 1.4929
 Frc consts  --      1.2170                 0.8889                 1.1186
 IR Inten    --    107.4593                 6.6057                 7.5508

                     28                     29                     30
                      A                      A                      A
 Frequencies --   1133.0971              1141.7906              1190.5948
 Red. masses --      1.3706                 3.3657                 1.3241
 Frc consts  --      1.0368                 2.5852                 1.1059
 IR Inten    --      2.8195                 1.6447                 2.0190

                     31                     32                     33
                      A                      A                      A
 Frequencies --   1196.4298              1208.8345              1228.3474
 Red. masses --      1.9422                 1.4637                 1.8630
 Frc consts  --      1.6381                 1.2602                 1.6562
 IR Inten    --      1.3806                12.3364                35.1029

                     34                     35                     36
                      A                      A                      A
 Frequencies --   1252.2086              1276.7162              1286.9450
 Red. masses --      1.5394                 1.5446                 1.4899
 Frc consts  --      1.4222                 1.4834                 1.4538
 IR Inten    --      0.7094                 6.6451                 3.0917

                     37                     38                     39
                      A                      A                      A
 Frequencies --   1344.6852              1422.7124              1444.8643
 Red. masses --      1.5780                 1.3225                 1.3625
 Frc consts  --      1.6811                 1.5772                 1.6758
 IR Inten    --      2.6477                29.1437                23.5306

                     40                     41                     42
                      A                      A                      A
 Frequencies --   1485.6507              1495.3712              3046.0616
 Red. masses --      1.2685                 1.5481                 1.0827
 Frc consts  --      1.6496                 2.0396                 5.9187
 IR Inten    --     15.2499                39.9660                18.7444

                     43                     44                     45
                      A                      A                      A
 Frequencies --   3066.2561              3112.2501              3118.7048
 Red. masses --      1.0579                 1.0897                 1.0951
 Frc consts  --      5.8602                 6.2186                 6.2754
 IR Inten    --     45.3910                82.5035                 5.2281

                     46                     47                     48
                      A                      A                      A
 Frequencies --   3120.8285              3148.8688              3153.6393
 Red. masses --      1.0558                 1.0895                 1.1078
 Frc consts  --      6.0586                 6.3647                 6.4911
 IR Inten    --     12.7192                 6.0878                18.8664

                     49                     50                     51
                      A                      A                      A
 Frequencies --   3157.4472              3208.3083              3823.2000
 Red. masses --      1.0887                 1.1155                 1.0660
 Frc consts  --      6.3948                 6.7650                 9.1803
 IR Inten    --     18.1783                12.1939                19.5453

 - Thermochemistry -
 -------------------
 Temperature   298.150 Kelvin.  Pressure   1.00000 Atm.
 Atom     1 has atomic number  8 and mass  15.99491

 Molecular mass:   126.06808 amu.
 Principal axes and moments of inertia in atomic units:
                           1         2         3
     Eigenvalues --   424.983981960.294732052.34659
           X            0.99985   0.00488   0.01658
           Y           -0.00514   0.99987   0.01548
           Z           -0.01651  -0.01556   0.99974
 This molecule is an asymmetric top.
 Rotational symmetry number  1.
 Rotational temperatures (Kelvin)      0.20380     0.04418     0.04220
 Rotational constants (GHZ):           4.24661     0.92065     0.87935
 Zero-point vibrational energy     415202.3 (Joules/Mol)
                                   99.23573 (Kcal/Mol)
 Warning -- explicit consideration of   9 degrees of freedom as
           vibrations may cause significant error
 Vibrational temperatures:     88.41   138.35   169.90   240.57   441.62
          (Kelvin)            484.66   544.27   661.04   769.57   924.82
                             1082.87  1106.45  1161.32  1226.70  1247.62
                             1275.95  1307.98  1331.01  1381.82  1386.16
                             1476.19  1489.79  1502.80  1586.70  1592.33
                             1602.64  1622.49  1630.27  1642.78  1713.00
                             1721.39  1739.24  1767.32  1801.65  1836.91
                             1851.62  1934.70  2046.96  2078.83  2137.52
                             2151.50  4382.60  4411.65  4477.83  4487.12
                             4490.17  4530.51  4537.38  4542.86  4616.03
                             5500.73

 Zero-point correction=                           0.158142 (Hartree/Particle)
 Thermal correction to Energy=                    0.166551
 Thermal correction to Enthalpy=                  0.167495
 Thermal correction to Gibbs Free Energy=         0.124348
 Sum of electronic and zero-point Energies=           -422.926244
 Sum of electronic and thermal Energies=              -422.917835
 Sum of electronic and thermal Enthalpies=            -422.916891
 Sum of electronic and thermal Free Energies=         -422.960038

                     E (Thermal)             CV                S
                      KCal/Mol        Cal/Mol-Kelvin    Cal/Mol-Kelvin
 Total                  104.512             31.802             90.810
 Electronic               0.000              0.000              0.000
 Translational            0.889              2.981             40.409
 Rotational               0.889              2.981             28.927
 Vibrational            102.735             25.840             21.475
 Vibration     1          0.597              1.973              4.410
 Vibration     2          0.603              1.952              3.531
 Vibration     3          0.608              1.934              3.132
 Vibration     4          0.624              1.883              2.467
 Vibration     5          0.697              1.661              1.379
 Vibration     6          0.718              1.602              1.227
 Vibration     7          0.749              1.516              1.046
 Vibration     8          0.817              1.340              0.768
 Vibration     9          0.890              1.173              0.576

 Optimization completed.
    -- Stationary point found.
 Normal termination of Gaussian 09 at Tue Jan 28 02:59:06 2020.
