 Gaussian 09, Revision D.01,
 Gaussian 09:  ES64L-G09RevD.01 24-Apr-2013

 -----------------------------
 # b3lyp 6-31G(2df,p) opt Freq
 -----------------------------

 -----
 titel
 -----
 Symbolic Z-matrix:
 Charge =  0 Multiplicity = 1

 SCF Done:  E(RB3LYP) =  -423.148759512     A.U. after   13 cycles
 SCF Done:  E(RB3LYP) =  -423.148759778     A.U. after    6 cycles
 SCF Done:  E(RB3LYP) =  -423.148759754     A.U. after    6 cycles
 Optimization completed.
    -- Stationary point found.
 Normal termination of Gaussian 09 at Mon Jan 27 19:21:00 2020.

 ----------------------------------------------------------------------
 #N Geom=AllCheck Guess=TCheck SCRF=Check GenChk RB3LYP/6-31G(2df,p) Fr
 eq
 ----------------------------------------------------------------------

 Structure from the checkpoint file:  "/scratch/puck/g09_5d4fc587-7c15-45f9-9730-032a24a5c733/Gau-20104.chk"
 -----
 titel
 -----
 Charge =  0 Multiplicity = 1

                         Standard orientation:
 ---------------------------------------------------------------------
 Center     Atomic      Atomic             Coordinates (Angstroms)
 Number     Number       Type             X           Y           Z
 ---------------------------------------------------------------------
      1          8           0       -0.947626    1.891025   -0.189281
      2          6           0       -0.549444    0.593331    0.153747
      3          6           0       -1.686074   -0.279490    0.731284
      4          6           0       -1.391847   -1.372795   -0.345272
      5          6           0       -0.284113   -0.472919   -0.969720
      6          6           0        1.204739   -0.718138   -0.655548
      7          6           0        1.271621   -0.920963    0.874624
      8          6           0        0.859404    0.558615    0.790922
      9          8           0        1.671178    0.667009   -0.434287
     10          1           0       -0.207780    2.280263   -0.673494
     11          1           0       -1.579703   -0.577783    1.777778
     12          1           0       -2.656016    0.203996    0.602517
     13          1           0       -1.047851   -2.334607    0.042720
     14          1           0       -2.230030   -1.562943   -1.018044
     15          1           0       -0.449664   -0.153234   -1.999163
     16          1           0        1.821933   -1.278218   -1.357948
     17          1           0        0.620460   -1.646322    1.364735
     18          1           0        2.301220   -1.025317    1.217574
     19          1           0        1.093294    1.304045    1.551652
 ---------------------------------------------------------------------

 SCF Done:  E(RB3LYP) =  -423.148759754     A.U. after    1 cycles

 The electronic state is 1-A.
 Alpha  occ. eigenvalues --  -19.13817 -19.13513 -10.24116 -10.23533 -10.23140
 Alpha  occ. eigenvalues --  -10.19123 -10.18583 -10.18146 -10.18109  -1.05292
 Alpha  occ. eigenvalues --   -1.01459  -0.84045  -0.74459  -0.70805  -0.66829
 Alpha  occ. eigenvalues --   -0.63307  -0.55387  -0.53861  -0.52611  -0.49449
 Alpha  occ. eigenvalues --   -0.47525  -0.44639  -0.42616  -0.41402  -0.38744
 Alpha  occ. eigenvalues --   -0.37184  -0.35554  -0.34715  -0.33386  -0.32334
 Alpha  occ. eigenvalues --   -0.31241  -0.30218  -0.26597  -0.23630
 Alpha virt. eigenvalues --    0.07951   0.08684   0.09582   0.10815   0.12441
 Alpha virt. eigenvalues --    0.12867   0.14595   0.16050   0.16631   0.17534
 Alpha virt. eigenvalues --    0.17712   0.18004   0.18342   0.19298   0.21978

 Mulliken charges:
               1
     1  O   -0.499355
     2  C    0.487692
     3  C   -0.293675
     4  C   -0.250206
     5  C   -0.084003
     6  C    0.061873
     7  C   -0.250309
     8  C   -0.014871
     9  O   -0.319374
    10  H    0.279736
    11  H    0.097968
    12  H    0.118374
    13  H    0.101112
    14  H    0.106780
    15  H    0.076340
    16  H    0.081665
    17  H    0.103292
    18  H    0.114989
    19  H    0.081973
 Sum of Mulliken charges =   0.00000

 Dipole moment (field-independent basis, Debye):
    X=              0.1714    Y=             -1.6425    Z=              0.3157  Tot=              1.6814
 Quadrupole moment (field-independent basis, Debye-Ang):
   XX=            -56.1342   YY=            -53.3634   ZZ=            -50.8867
   XY=              0.7304   XZ=              1.2653   YZ=             -0.0397

  Exact polarizability:  77.324   0.465  72.940   0.282   0.882  68.954
 Approx polarizability: 109.339   1.709 110.692  -2.877   0.289 105.843

                      1                      2                      3
                      A                      A                      A
 Frequencies --    174.2605               263.5463               291.0073
 Red. masses --      2.7247                 2.6112                 3.4636
 Frc consts  --      0.0487                 0.1069                 0.1728
 IR Inten    --      3.5458                 2.5684                 1.1247

                      4                      5                      6
                      A                      A                      A
 Frequencies --    352.0983               415.8201               467.9391
 Red. masses --      3.5626                 1.9504                 1.3747
 Frc consts  --      0.2602                 0.1987                 0.1773
 IR Inten    --      3.5710                14.7718                70.0548

                      7                      8                      9
                      A                      A                      A
 Frequencies --    495.9547               566.8765               597.2296
 Red. masses --      2.2566                 6.4688                 3.4283
 Frc consts  --      0.3270                 1.2248                 0.7205
 IR Inten    --      1.6522                14.1593                 6.4222

                     10                     11                     12
                      A                      A                      A
 Frequencies --    676.3861               735.4874               798.4359
 Red. masses --      4.2068                 1.3596                 2.2336
 Frc consts  --      1.1339                 0.4333                 0.8389
 IR Inten    --      1.7573                 3.4417                 1.9651

                     13                     14                     15
                      A                      A                      A
 Frequencies --    801.8236               856.5860               867.7589
 Red. masses --      2.9099                 2.6850                 3.4514
 Frc consts  --      1.1023                 1.1607                 1.5312
 IR Inten    --     11.2318                21.3741                19.6679

                     16                     17                     18
                      A                      A                      A
 Frequencies --    879.3631               912.2215               939.8938
 Red. masses --      3.0552                 2.4170                 2.9544
 Frc consts  --      1.3920                 1.1850                 1.5377
 IR Inten    --     20.1908                13.9386                 1.4895

                     19                     20                     21
                      A                      A                      A
 Frequencies --    966.5541              1011.2154              1024.8227
 Red. masses --      2.0427                 1.9367                 1.7222
 Frc consts  --      1.1243                 1.1668                 1.0657
 IR Inten    --      4.6563                 1.5667                 8.7352

                     22                     23                     24
                      A                      A                      A
 Frequencies --   1028.7378              1036.3460              1070.0523
 Red. masses --      1.9972                 1.9184                 1.9644
 Frc consts  --      1.2453                 1.2139                 1.3252
 IR Inten    --     14.1166                 4.6529                29.8124

                     25                     26                     27
                      A                      A                      A
 Frequencies --   1112.1115              1149.0040              1150.9508
 Red. masses --      1.5270                 1.6789                 2.3237
 Frc consts  --      1.1127                 1.3060                 1.8136
 IR Inten    --      2.0405                22.0788                20.9952

                     28                     29                     30
                      A                      A                      A
 Frequencies --   1191.5191              1213.8083              1228.7425
 Red. masses --      1.4792                 1.5357                 1.4097
 Frc consts  --      1.2373                 1.3331                 1.2540
 IR Inten    --      5.2085                33.2221                11.1478

                     31                     32                     33
                      A                      A                      A
 Frequencies --   1243.7681              1246.5902              1263.2293
 Red. masses --      1.4379                 1.4574                 1.3995
 Frc consts  --      1.3106                 1.3343                 1.3158
 IR Inten    --      1.3131                15.6346                 3.8430

                     34                     35                     36
                      A                      A                      A
 Frequencies --   1284.0915              1306.0033              1321.5733
 Red. masses --      1.4289                 1.7887                 1.6062
 Frc consts  --      1.3882                 1.7976                 1.6529
 IR Inten    --      3.5561                12.3379                11.1437

                     37                     38                     39
                      A                      A                      A
 Frequencies --   1345.7184              1386.9940              1472.0671
 Red. masses --      2.0470                 1.7564                 1.0871
 Frc consts  --      2.1841                 1.9908                 1.3880
 IR Inten    --     37.8557                55.1772                 1.7154

                     40                     41                     42
                      A                      A                      A
 Frequencies --   1486.7877              1507.9226              3062.5347
 Red. masses --      1.1478                 1.1112                 1.0604
 Frc consts  --      1.4949                 1.4886                 5.8600
 IR Inten    --      4.4735                 6.2859                29.5110

                     43                     44                     45
                      A                      A                      A
 Frequencies --   3069.3101              3084.1407              3102.4251
 Red. masses --      1.0610                 1.0575                 1.0929
 Frc consts  --      5.8890                 5.9264                 6.1979
 IR Inten    --     31.6029                28.6416                 4.8214

                     46                     47                     48
                      A                      A                      A
 Frequencies --   3113.7227              3120.5055              3124.0522
 Red. masses --      1.1013                 1.0888                 1.0950
 Frc consts  --      6.2907                 6.2469                 6.2965
 IR Inten    --      9.1473                67.4797                15.3617

                     49                     50                     51
                      A                      A                      A
 Frequencies --   3130.6009              3147.8845              3771.1731
 Red. masses --      1.1046                 1.1086                 1.0650
 Frc consts  --      6.3785                 6.4725                 8.9236
 IR Inten    --     37.3335                20.3230                21.6023

 - Thermochemistry -
 -------------------
 Temperature   298.150 Kelvin.  Pressure   1.00000 Atm.
 Atom     1 has atomic number  8 and mass  15.99491

 Molecular mass:   126.06808 amu.
 Principal axes and moments of inertia in atomic units:
                           1         2         3
     Eigenvalues --   703.33737 908.875041172.64408
           X            0.99949   0.02944   0.01274
           Y           -0.02937   0.99955  -0.00559
           Z           -0.01290   0.00521   0.99990
 This molecule is an asymmetric top.
 Rotational symmetry number  1.
 Warning -- assumption of classical behavior for rotation
           may cause significant error
 Rotational temperatures (Kelvin)      0.12315     0.09530     0.07386
 Rotational constants (GHZ):           2.56597     1.98569     1.53904
 Zero-point vibrational energy     423882.7 (Joules/Mol)
                                  101.31039 (Kcal/Mol)
 Warning -- explicit consideration of   9 degrees of freedom as
           vibrations may cause significant error
 Vibrational temperatures:    250.72   379.18   418.69   506.59   598.27
          (Kelvin)            673.26   713.57   815.61   859.28   973.17
                             1058.20  1148.77  1153.64  1232.43  1248.51
                             1265.21  1312.48  1352.30  1390.65  1454.91
                             1474.49  1480.12  1491.07  1539.56  1600.08
                             1653.16  1655.96  1714.33  1746.40  1767.88
                             1789.50  1793.56  1817.50  1847.52  1879.05
                             1901.45  1936.19  1995.57  2117.97  2139.15
                             2169.56  4406.30  4416.05  4437.39  4463.69
                             4479.95  4489.71  4494.81  4504.23  4529.10
                             5425.87

 Zero-point correction=                           0.161448 (Hartree/Particle)
 Thermal correction to Energy=                    0.168335
 Thermal correction to Enthalpy=                  0.169279
 Thermal correction to Gibbs Free Energy=         0.130674
 Sum of electronic and zero-point Energies=           -422.987311
 Sum of electronic and thermal Energies=              -422.980425
 Sum of electronic and thermal Enthalpies=            -422.979481
 Sum of electronic and thermal Free Energies=         -423.018085

                     E (Thermal)             CV                S
                      KCal/Mol        Cal/Mol-Kelvin    Cal/Mol-Kelvin
 Total                  105.632             29.400             81.250
 Electronic               0.000              0.000              0.000
 Translational            0.889              2.981             40.409
 Rotational               0.889              2.981             28.107
 Vibrational            103.854             23.438             12.734
 Vibration     1          0.627              1.874              2.389
 Vibration     2          0.670              1.740              1.638
 Vibration     3          0.687              1.690              1.468
 Vibration     4          0.729              1.571              1.157
 Vibration     5          0.779              1.436              0.906
 Vibration     6          0.825              1.321              0.743
 Vibration     7          0.852              1.259              0.668
 Vibration     8          0.923              1.103              0.510
 Vibration     9          0.955              1.038              0.454

 Optimization completed.
    -- Stationary point found.
 Normal termination of Gaussian 09 at Mon Jan 27 20:51:41 2020.
