 Gaussian 09, Revision D.01,
 Gaussian 09:  ES64L-G09RevD.01 24-Apr-2013

 -----------------------------
 # b3lyp 6-31G(2df,p) opt Freq
 -----------------------------

 -----
 titel
 -----
 Symbolic Z-matrix:
 Charge =  0 Multiplicity = 1

 SCF Done:  E(RB3LYP) =  -423.154673565     A.U. after   13 cycles
 Optimization completed.
    -- Stationary point found.
 Normal termination of Gaussian 09 at Mon Jan 27 18:24:04 2020.

 ----------------------------------------------------------------------
 #N Geom=AllCheck Guess=TCheck SCRF=Check GenChk RB3LYP/6-31G(2df,p) Fr
 eq
 ----------------------------------------------------------------------

 Structure from the checkpoint file:  "/scratch/puck/g09_b863dd5e-8b82-486e-96ac-3976ae6e05e1/Gau-171814.chk"
 -----
 titel
 -----
 Charge =  0 Multiplicity = 1

                         Standard orientation:
 ---------------------------------------------------------------------
 Center     Atomic      Atomic             Coordinates (Angstroms)
 Number     Number       Type             X           Y           Z
 ---------------------------------------------------------------------
      1          8           0       -2.667955   -0.223624   -0.031545
      2          6           0       -1.303120   -0.002340   -0.073969
      3          6           0       -0.622327    1.148764   -0.810465
      4          6           0        0.435535    1.235035    0.348696
      5          6           0        1.874507    0.824142   -0.013139
      6          6           0        1.996223   -0.708448   -0.056482
      7          8           0        0.813257   -1.315353   -0.572579
      8          6           0       -0.299573   -1.074047    0.246585
      9          6           0       -0.355680    0.155141    1.117507
     10          1           0       -2.898999   -0.827640   -0.746239
     11          1           0       -0.242164    0.936151   -1.814540
     12          1           0       -1.258971    2.035742   -0.837368
     13          1           0        0.416165    2.212131    0.833045
     14          1           0        2.143051    1.260101   -0.982129
     15          1           0        2.589433    1.215812    0.719748
     16          1           0        2.812939   -1.032753   -0.706373
     17          1           0        2.194566   -1.096155    0.953670
     18          1           0       -0.728295   -1.977460    0.677367
     19          1           0       -0.543533    0.116399    2.183407
 ---------------------------------------------------------------------

 SCF Done:  E(RB3LYP) =  -423.154673565     A.U. after    1 cycles

 The electronic state is 1-A.
 Alpha  occ. eigenvalues --  -19.14617 -19.13763 -10.23430 -10.22759 -10.22434
 Alpha  occ. eigenvalues --  -10.19395 -10.18619 -10.17974 -10.17783  -1.03983
 Alpha  occ. eigenvalues --   -1.02589  -0.87957  -0.77722  -0.70280  -0.65579
 Alpha  occ. eigenvalues --   -0.62263  -0.56504  -0.53569  -0.51313  -0.49722
 Alpha  occ. eigenvalues --   -0.47113  -0.43876  -0.43439  -0.41160  -0.40279
 Alpha  occ. eigenvalues --   -0.38683  -0.36793  -0.34964  -0.33928  -0.31004
 Alpha  occ. eigenvalues --   -0.30027  -0.27900  -0.24762  -0.23217
 Alpha virt. eigenvalues --    0.08132   0.08623   0.10359   0.12288   0.12538
 Alpha virt. eigenvalues --    0.13754   0.14605   0.15338   0.16509   0.16973
 Alpha virt. eigenvalues --    0.18017   0.19106   0.20614   0.22757   0.23300

 Mulliken charges:
               1
     1  O   -0.468185
     2  C    0.363124
     3  C   -0.307749
     4  C   -0.004178
     5  C   -0.232145
     6  C   -0.064051
     7  O   -0.259429
     8  C    0.026372
     9  C   -0.194813
    10  H    0.286428
    11  H    0.095839
    12  H    0.106348
    13  H    0.077335
    14  H    0.103116
    15  H    0.095478
    16  H    0.104882
    17  H    0.092090
    18  H    0.089359
    19  H    0.090179
 Sum of Mulliken charges =   0.00000

 Dipole moment (field-independent basis, Debye):
    X=              0.7278    Y=              0.2850    Z=              0.0629  Tot=              0.7841
 Quadrupole moment (field-independent basis, Debye-Ang):
   XX=            -52.8283   YY=            -52.6872   ZZ=            -51.9090
   XY=              3.4355   XZ=              3.5753   YZ=             -0.4442

  Exact polarizability:  83.561   1.776  71.247   1.668  -1.239  66.543
 Approx polarizability: 112.625   2.284 103.928   2.981   1.986 105.469

                      1                      2                      3
                      A                      A                      A
 Frequencies --    175.2738               200.4059               249.0432
 Red. masses --      2.3031                 2.2099                 1.7263
 Frc consts  --      0.0417                 0.0523                 0.0631
 IR Inten    --      0.2481                26.5972                40.5786

                      4                      5                      6
                      A                      A                      A
 Frequencies --    295.7825               323.6296               398.7890
 Red. masses --      2.5051                 2.5671                 2.7939
 Frc consts  --      0.1291                 0.1584                 0.2618
 IR Inten    --     38.2989                 1.4281                 3.5555

                      7                      8                      9
                      A                      A                      A
 Frequencies --    452.7329               493.7798               548.1723
 Red. masses --      4.3001                 2.6565                 3.4769
 Frc consts  --      0.5193                 0.3816                 0.6156
 IR Inten    --      2.3923                 9.3069                 0.4830

                     10                     11                     12
                      A                      A                      A
 Frequencies --    604.8635               704.4889               763.2840
 Red. masses --      4.0777                 2.5092                 2.4745
 Frc consts  --      0.8790                 0.7337                 0.8494
 IR Inten    --      1.6706                 2.5418                 5.3949

                     13                     14                     15
                      A                      A                      A
 Frequencies --    813.6904               837.7619               857.6483
 Red. masses --      2.9428                 2.1013                 2.6781
 Frc consts  --      1.1480                 0.8689                 1.1606
 IR Inten    --      6.9557                14.5206                 4.7701

                     16                     17                     18
                      A                      A                      A
 Frequencies --    903.0637               921.3701               959.8530
 Red. masses --      2.6055                 2.2807                 1.5687
 Frc consts  --      1.2519                 1.1407                 0.8515
 IR Inten    --      2.6569                 4.9248                 2.6039

                     19                     20                     21
                      A                      A                      A
 Frequencies --    984.4910              1000.3527              1018.3959
 Red. masses --      2.2123                 2.1422                 1.7296
 Frc consts  --      1.2633                 1.2630                 1.0569
 IR Inten    --      0.4940                 9.6099                22.9752

                     22                     23                     24
                      A                      A                      A
 Frequencies --   1075.7357              1090.2493              1099.8269
 Red. masses --      1.8968                 2.1405                 1.6050
 Frc consts  --      1.2933                 1.4990                 1.1438
 IR Inten    --      5.0831                 3.6845                28.5746

                     25                     26                     27
                      A                      A                      A
 Frequencies --   1117.2358              1143.7951              1209.9088
 Red. masses --      2.8325                 2.0406                 1.5046
 Frc consts  --      2.0831                 1.5729                 1.2977
 IR Inten    --     94.9048                40.9016                 2.6367

                     28                     29                     30
                      A                      A                      A
 Frequencies --   1219.0875              1237.3715              1250.8620
 Red. masses --      1.6963                 1.8448                 1.5703
 Frc consts  --      1.4854                 1.6641                 1.4476
 IR Inten    --     28.7065                30.0965                 5.3627

                     31                     32                     33
                      A                      A                      A
 Frequencies --   1281.6173              1303.3882              1306.2310
 Red. masses --      1.5625                 1.5914                 1.3374
 Frc consts  --      1.5121                 1.5928                 1.3444
 IR Inten    --     48.5560                55.5702                10.9993

                     34                     35                     36
                      A                      A                      A
 Frequencies --   1328.2424              1332.5032              1365.9625
 Red. masses --      1.3301                 1.6399                 1.4441
 Frc consts  --      1.3826                 1.7155                 1.5875
 IR Inten    --      1.4475                 2.4659                 8.9832

                     37                     38                     39
                      A                      A                      A
 Frequencies --   1408.6934              1449.5553              1483.5847
 Red. masses --      1.3085                 1.8864                 1.1328
 Frc consts  --      1.5298                 2.3354                 1.4690
 IR Inten    --      2.2165                16.0545                 1.2434

                     40                     41                     42
                      A                      A                      A
 Frequencies --   1493.2242              1505.9523              2993.0368
 Red. masses --      1.2541                 1.1545                 1.0703
 Frc consts  --      1.6476                 1.5427                 5.6493
 IR Inten    --      6.7934                 1.1794                49.3806

                     43                     44                     45
                      A                      A                      A
 Frequencies --   3031.2172              3049.8001              3069.0835
 Red. masses --      1.0600                 1.0602                 1.1006
 Frc consts  --      5.7383                 5.8102                 6.1082
 IR Inten    --     30.2647                33.0728                34.0712

                     46                     47                     48
                      A                      A                      A
 Frequencies --   3091.5004              3096.2103              3116.1818
 Red. masses --      1.0902                 1.0960                 1.1031
 Frc consts  --      6.1389                 6.1904                 6.3112
 IR Inten    --     24.1119                41.2584                28.4669

                     49                     50                     51
                      A                      A                      A
 Frequencies --   3123.0991              3187.1002              3790.9103
 Red. masses --      1.0880                 1.0938                 1.0661
 Frc consts  --      6.2522                 6.5463                 9.0269
 IR Inten    --     25.4432                14.0184                23.3956

 - Thermochemistry -
 -------------------
 Temperature   298.150 Kelvin.  Pressure   1.00000 Atm.
 Atom     1 has atomic number  8 and mass  15.99491

 Molecular mass:   126.06808 amu.
 Principal axes and moments of inertia in atomic units:
                           1         2         3
     Eigenvalues --   552.436121154.611881394.48469
           X            0.99984   0.01546   0.00881
           Y           -0.01510   0.99911  -0.03951
           Z           -0.00942   0.03937   0.99918
 This molecule is an asymmetric top.
 Rotational symmetry number  1.
 Warning -- assumption of classical behavior for rotation
           may cause significant error
 Rotational temperatures (Kelvin)      0.15679     0.07502     0.06211
 Rotational constants (GHZ):           3.26688     1.56307     1.29420
 Zero-point vibrational energy     423227.1 (Joules/Mol)
                                  101.15369 (Kcal/Mol)
 Warning -- explicit consideration of  10 degrees of freedom as
           vibrations may cause significant error
 Vibrational temperatures:    252.18   288.34   358.32   425.56   465.63
          (Kelvin)            573.77   651.38   710.44   788.70   870.26
                             1013.60  1098.19  1170.72  1205.35  1233.96
                             1299.31  1325.64  1381.01  1416.46  1439.28
                             1465.24  1547.74  1568.62  1582.40  1607.45
                             1645.66  1740.79  1753.99  1780.30  1799.71
                             1843.96  1875.28  1879.37  1911.04  1917.17
                             1965.31  2026.79  2085.58  2134.54  2148.41
                             2166.73  4306.31  4361.24  4387.98  4415.72
                             4447.97  4454.75  4483.49  4493.44  4585.52
                             5454.27

 Zero-point correction=                           0.161199 (Hartree/Particle)
 Thermal correction to Energy=                    0.168581
 Thermal correction to Enthalpy=                  0.169526
 Thermal correction to Gibbs Free Energy=         0.129857
 Sum of electronic and zero-point Energies=           -422.993475
 Sum of electronic and thermal Energies=              -422.986092
 Sum of electronic and thermal Enthalpies=            -422.985148
 Sum of electronic and thermal Free Energies=         -423.024817

                     E (Thermal)             CV                S
                      KCal/Mol        Cal/Mol-Kelvin    Cal/Mol-Kelvin
 Total                  105.786             30.222             83.491
 Electronic               0.000              0.000              0.000
 Translational            0.889              2.981             40.409
 Rotational               0.889              2.981             28.277
 Vibrational            104.009             24.260             14.805
 Vibration     1          0.627              1.873              2.378
 Vibration     2          0.638              1.839              2.129
 Vibration     3          0.662              1.764              1.737
 Vibration     4          0.690              1.682              1.441
 Vibration     5          0.708              1.628              1.292
 Vibration     6          0.765              1.473              0.967
 Vibration     7          0.811              1.355              0.788
 Vibration     8          0.849              1.264              0.674
 Vibration     9          0.903              1.144              0.548
 Vibration    10          0.963              1.021              0.441

 Optimization completed.
    -- Stationary point found.
 Normal termination of Gaussian 09 at Mon Jan 27 19:13:48 2020.
