 Gaussian 09, Revision D.01,
 Gaussian 09:  ES64L-G09RevD.01 24-Apr-2013

 -----------------------------
 # b3lyp 6-31G(2df,p) opt Freq
 -----------------------------

 -----
 titel
 -----
 Symbolic Z-matrix:
 Charge =  0 Multiplicity = 1

 SCF Done:  E(RB3LYP) =  -423.130832800     A.U. after   14 cycles
 SCF Done:  E(RB3LYP) =  -423.130832583     A.U. after    7 cycles
 SCF Done:  E(RB3LYP) =  -423.130832172     A.U. after    7 cycles
 SCF Done:  E(RB3LYP) =  -423.130832498     A.U. after    7 cycles
 SCF Done:  E(RB3LYP) =  -423.130832706     A.U. after    7 cycles
 Optimization completed.
    -- Stationary point found.
 Normal termination of Gaussian 09 at Tue Jan 28 09:25:25 2020.

 ----------------------------------------------------------------------
 #N Geom=AllCheck Guess=TCheck SCRF=Check GenChk RB3LYP/6-31G(2df,p) Fr
 eq
 ----------------------------------------------------------------------

 Structure from the checkpoint file:  "/scratch/puck/g09_999d0416-31c1-410c-af02-b1eee2518c7c/Gau-17129.chk"
 -----
 titel
 -----
 Charge =  0 Multiplicity = 1

                         Standard orientation:
 ---------------------------------------------------------------------
 Center     Atomic      Atomic             Coordinates (Angstroms)
 Number     Number       Type             X           Y           Z
 ---------------------------------------------------------------------
      1          8           0       -1.667407   -1.808882   -0.213499
      2          6           0       -0.527788   -1.137570   -0.712980
      3          6           0       -0.166769    0.099890    0.133175
      4          6           0        0.379108   -0.298264    1.545932
      5          6           0        1.826700   -0.180856    0.997834
      6          6           0        1.284778    0.638456   -0.187072
      7          8           0        1.863618    0.322962   -1.427228
      8          6           0       -1.252611    1.061660    0.086390
      9          6           0       -2.165003    1.846169    0.028662
     10          1           0       -2.387332   -1.167067   -0.191078
     11          1           0        0.293242   -1.858085   -0.684269
     12          1           0       -0.661108   -0.831991   -1.760537
     13          1           0        0.151391    0.459283    2.297902
     14          1           0        0.045911   -1.272000    1.907327
     15          1           0        2.575897    0.298092    1.630222
     16          1           0        2.220584   -1.139083    0.650609
     17          1           0        1.328390    1.715874    0.016807
     18          1           0        1.551364    0.954329   -2.083442
     19          1           0       -2.958522    2.551101   -0.009369
 ---------------------------------------------------------------------

 SCF Done:  E(RB3LYP) =  -423.130832706     A.U. after    1 cycles

 The electronic state is 1-A.
 Alpha  occ. eigenvalues --  -19.14862 -19.13190 -10.24201 -10.22731 -10.21048
 Alpha  occ. eigenvalues --  -10.18739 -10.18606 -10.18445 -10.17949  -1.03204
 Alpha  occ. eigenvalues --   -1.01465  -0.85437  -0.75875  -0.70786  -0.65758
 Alpha  occ. eigenvalues --   -0.64081  -0.57055  -0.53179  -0.52910  -0.50106
 Alpha  occ. eigenvalues --   -0.48939  -0.45323  -0.43007  -0.41466  -0.40065
 Alpha  occ. eigenvalues --   -0.36479  -0.34820  -0.34064  -0.33296  -0.31597
 Alpha  occ. eigenvalues --   -0.29401  -0.28020  -0.26088  -0.24840
 Alpha virt. eigenvalues --    0.03794   0.04580   0.06667   0.09314   0.10635
 Alpha virt. eigenvalues --    0.11121   0.12475   0.15132   0.15355   0.16578
 Alpha virt. eigenvalues --    0.18296   0.18812   0.19780   0.21041   0.21934

 Mulliken charges:
               1
     1  O   -0.426623
     2  C   -0.083769
     3  C    0.044363
     4  C   -0.258317
     5  C   -0.253525
     6  C    0.102309
     7  O   -0.419983
     8  C    0.221660
     9  C   -0.443517
    10  H    0.285702
    11  H    0.115504
    12  H    0.088460
    13  H    0.111563
    14  H    0.125314
    15  H    0.104777
    16  H    0.121206
    17  H    0.080450
    18  H    0.289674
    19  H    0.194754
 Sum of Mulliken charges =   0.00000

 Dipole moment (field-independent basis, Debye):
    X=             -0.1317    Y=              2.2248    Z=             -0.2170  Tot=              2.2393
 Quadrupole moment (field-independent basis, Debye-Ang):
   XX=            -52.3377   YY=            -54.2241   ZZ=            -51.2321
   XY=             -3.2904   XZ=              1.7280   YZ=             -2.2867

  Exact polarizability:  88.988 -12.518  76.390   2.175  -1.503  67.619
 Approx polarizability: 129.377 -25.018 116.586   1.015  -2.842  96.827

                      1                      2                      3
                      A                      A                      A
 Frequencies --     98.7752               109.8665               140.8619
 Red. masses --      4.0088                 3.5334                 3.5281
 Frc consts  --      0.0230                 0.0251                 0.0412
 IR Inten    --      1.7612                 0.7079                 0.0552

                      4                      5                      6
                      A                      A                      A
 Frequencies --    176.8090               186.6578               289.6958
 Red. masses --      3.3198                 2.9820                 2.9479
 Frc consts  --      0.0611                 0.0612                 0.1458
 IR Inten    --      0.5536                 0.2297                 1.8512

                      7                      8                      9
                      A                      A                      A
 Frequencies --    313.7563               346.0553               389.1952
 Red. masses --      1.1238                 2.2188                 1.8201
 Frc consts  --      0.0652                 0.1566                 0.1624
 IR Inten    --    105.3435                33.3273                47.6915

                     10                     11                     12
                      A                      A                      A
 Frequencies --    428.3421               492.7095               525.0911
 Red. masses --      2.0028                 4.7516                 4.4008
 Frc consts  --      0.2165                 0.6796                 0.7149
 IR Inten    --     56.2899                 4.0272                 4.8266

                     13                     14                     15
                      A                      A                      A
 Frequencies --    583.7500               618.4762               621.2978
 Red. masses --      4.1829                 1.2245                 3.3523
 Frc consts  --      0.8398                 0.2760                 0.7624
 IR Inten    --      6.7058                46.9488                 2.0735

                     16                     17                     18
                      A                      A                      A
 Frequencies --    636.3196               717.4425               802.5509
 Red. masses --      1.2309                 2.5631                 1.4424
 Frc consts  --      0.2936                 0.7773                 0.5474
 IR Inten    --     51.6954                 2.4028                 0.9281

                     19                     20                     21
                      A                      A                      A
 Frequencies --    892.5829               919.4524               950.2266
 Red. masses --      1.8863                 2.1063                 2.1216
 Frc consts  --      0.8854                 1.0491                 1.1287
 IR Inten    --      6.1144                 3.2468                 4.8327

                     22                     23                     24
                      A                      A                      A
 Frequencies --    967.1832              1027.0913              1070.4765
 Red. masses --      2.4033                 4.4331                 1.5603
 Frc consts  --      1.3246                 2.7553                 1.0534
 IR Inten    --      8.7044                 6.6661                74.6491

                     25                     26                     27
                      A                      A                      A
 Frequencies --   1082.4140              1129.3698              1140.6518
 Red. masses --      4.4701                 2.1664                 2.5907
 Frc consts  --      3.0857                 1.6280                 1.9860
 IR Inten    --     60.6744                14.8377                88.5059

                     28                     29                     30
                      A                      A                      A
 Frequencies --   1175.1349              1219.2348              1247.4089
 Red. masses --      2.1097                 1.5182                 1.2813
 Frc consts  --      1.7165                 1.3297                 1.1747
 IR Inten    --      5.8272                 2.8850                 2.7007

                     31                     32                     33
                      A                      A                      A
 Frequencies --   1257.3811              1262.2279              1276.5178
 Red. masses --      1.4322                 1.2806                 1.4140
 Frc consts  --      1.3341                 1.2021                 1.3576
 IR Inten    --      3.0037                26.3882                59.9431

                     34                     35                     36
                      A                      A                      A
 Frequencies --   1335.0135              1375.0705              1425.3180
 Red. masses --      1.6880                 1.2400                 1.2186
 Frc consts  --      1.7725                 1.3814                 1.4587
 IR Inten    --     15.7938                 2.2474                61.0073

                     37                     38                     39
                      A                      A                      A
 Frequencies --   1433.6331              1483.2496              1494.1958
 Red. masses --      1.3663                 1.0827                 1.1067
 Frc consts  --      1.6545                 1.4035                 1.4558
 IR Inten    --      2.6081                 1.3494                 3.4989

                     40                     41                     42
                      A                      A                      A
 Frequencies --   1505.9161              2216.9147              3001.7526
 Red. masses --      1.1247                 6.0045                 1.0698
 Frc consts  --      1.5028                17.3870                 5.6796
 IR Inten    --      2.0955                 7.6655                51.5216

                     43                     44                     45
                      A                      A                      A
 Frequencies --   3019.4212              3074.1578              3080.9880
 Red. masses --      1.0859                 1.0586                 1.0597
 Frc consts  --      5.8329                 5.8942                 5.9264
 IR Inten    --     34.3098                20.9774                18.3017

                     46                     47                     48
                      A                      A                      A
 Frequencies --   3103.3534              3124.7377              3141.2999
 Red. masses --      1.0928                 1.1081                 1.1083
 Frc consts  --      6.2008                 6.3745                 6.4436
 IR Inten    --     25.2233                11.6671                24.6869

                     49                     50                     51
                      A                      A                      A
 Frequencies --   3498.9935              3784.3982              3816.0224
 Red. masses --      1.1594                 1.0656                 1.0662
 Frc consts  --      8.3632                 8.9916                 9.1473
 IR Inten    --     77.5776                22.5885                25.5870

 - Thermochemistry -
 -------------------
 Temperature   298.150 Kelvin.  Pressure   1.00000 Atm.
 Atom     1 has atomic number  8 and mass  15.99491

 Molecular mass:   126.06808 amu.
 Principal axes and moments of inertia in atomic units:
                           1         2         3
     Eigenvalues --   893.986521329.095001503.67730
           X            0.99944  -0.02174   0.02544
           Y            0.02212   0.99965  -0.01467
           Z           -0.02511   0.01523   0.99957
 This molecule is an asymmetric top.
 Rotational symmetry number  1.
 Warning -- assumption of classical behavior for rotation
           may cause significant error
 Rotational temperatures (Kelvin)      0.09688     0.06517     0.05760
 Rotational constants (GHZ):           2.01876     1.35787     1.20022
 Zero-point vibrational energy     412768.1 (Joules/Mol)
                                   98.65395 (Kcal/Mol)
 Warning -- explicit consideration of  14 degrees of freedom as
           vibrations may cause significant error
 Vibrational temperatures:    142.12   158.07   202.67   254.39   268.56
          (Kelvin)            416.81   451.42   497.90   559.96   616.29
                              708.90   755.49   839.88   889.85   893.91
                              915.52  1032.24  1154.69  1284.23  1322.89
                             1367.16  1391.56  1477.75  1540.18  1557.35
                             1624.91  1641.14  1690.75  1754.20  1794.74
                             1809.09  1816.06  1836.62  1920.78  1978.42
                             2050.71  2062.68  2134.06  2149.81  2166.67
                             3189.64  4318.85  4344.27  4423.02  4432.85
                             4465.03  4495.80  4519.62  5034.26  5444.90
                             5490.40

 Zero-point correction=                           0.157215 (Hartree/Particle)
 Thermal correction to Energy=                    0.166829
 Thermal correction to Enthalpy=                  0.167773
 Thermal correction to Gibbs Free Energy=         0.123097
 Sum of electronic and zero-point Energies=           -422.973618
 Sum of electronic and thermal Energies=              -422.964003
 Sum of electronic and thermal Enthalpies=            -422.963059
 Sum of electronic and thermal Free Energies=         -423.007736

                     E (Thermal)             CV                S
                      KCal/Mol        Cal/Mol-Kelvin    Cal/Mol-Kelvin
 Total                  104.687             36.274             94.030
 Electronic               0.000              0.000              0.000
 Translational            0.889              2.981             40.409
 Rotational               0.889              2.981             28.970
 Vibrational            102.909             30.312             24.651
 Vibration     1          0.604              1.950              3.478
 Vibration     2          0.606              1.941              3.271
 Vibration     3          0.615              1.912              2.792
 Vibration     4          0.628              1.871              2.362
 Vibration     5          0.632              1.858              2.261
 Vibration     6          0.686              1.693              1.476
 Vibration     7          0.702              1.647              1.342
 Vibration     8          0.724              1.583              1.184
 Vibration     9          0.757              1.493              1.003
 Vibration    10          0.790              1.409              0.864
 Vibration    11          0.848              1.266              0.677
 Vibration    12          0.880              1.194              0.598
 Vibration    13          0.941              1.066              0.478
 Vibration    14          0.978              0.993              0.419

 Optimization completed.
    -- Stationary point found.
 Normal termination of Gaussian 09 at Tue Jan 28 10:07:36 2020.
