 Gaussian 09, Revision D.01,
 Gaussian 09:  ES64L-G09RevD.01 24-Apr-2013

 -----------------------------
 # b3lyp 6-31G(2df,p) opt Freq
 -----------------------------

 -----
 titel
 -----
 Symbolic Z-matrix:
 Charge =  0 Multiplicity = 1

 SCF Done:  E(RB3LYP) =  -423.197324030     A.U. after   15 cycles
 SCF Done:  E(RB3LYP) =  -423.197324166     A.U. after    7 cycles
 SCF Done:  E(RB3LYP) =  -423.197323587     A.U. after    8 cycles
 SCF Done:  E(RB3LYP) =  -423.197324333     A.U. after    8 cycles
 Optimization completed.
    -- Stationary point found.
 Normal termination of Gaussian 09 at Tue Jan 28 14:37:12 2020.

 ----------------------------------------------------------------------
 #N Geom=AllCheck Guess=TCheck SCRF=Check GenChk RB3LYP/6-31G(2df,p) Fr
 eq
 ----------------------------------------------------------------------

 Structure from the checkpoint file:  "/scratch/puck/g09_c9b9f4f5-4932-4f4c-8c0d-b84da4109770/Gau-35073.chk"
 -----
 titel
 -----
 Charge =  0 Multiplicity = 1

                         Standard orientation:
 ---------------------------------------------------------------------
 Center     Atomic      Atomic             Coordinates (Angstroms)
 Number     Number       Type             X           Y           Z
 ---------------------------------------------------------------------
      1          6           0       -4.138490   -0.463167   -0.000103
      2          6           0       -2.669803   -0.896267   -0.000559
      3          6           0       -1.729753    0.297992    0.000918
      4          8           0       -0.379460   -0.206813    0.000593
      5          6           0        0.589151    0.728642   -0.000065
      6          8           0        0.387051    1.919312   -0.000133
      7          6           0        1.897006    0.119263   -0.000899
      8          6           0        3.016284   -0.326068   -0.002162
      9          6           0        4.364371   -0.866616   -0.000384
     10          1           0       -4.801842   -1.332444   -0.001222
     11          1           0       -4.377503    0.136883    0.884614
     12          1           0       -4.377395    0.139083   -0.883352
     13          1           0       -2.456289   -1.516324    0.877439
     14          1           0       -2.456212   -1.514185   -0.880047
     15          1           0       -1.874281    0.931930   -0.880666
     16          1           0       -1.874580    0.929881    0.883945
     17          1           0        4.407150   -1.825885   -0.526666
     18          1           0        5.066381   -0.179191   -0.483636
     19          1           0        4.711247   -1.032416    1.025436
 ---------------------------------------------------------------------

 SCF Done:  E(RB3LYP) =  -423.197324333     A.U. after    1 cycles

 The electronic state is 1-A.
 Alpha  occ. eigenvalues --  -19.18030 -19.12423 -10.31799 -10.23625 -10.21778
 Alpha  occ. eigenvalues --  -10.20330 -10.18831 -10.18505 -10.18177  -1.09988
 Alpha  occ. eigenvalues --   -1.01217  -0.80159  -0.78995  -0.73602  -0.69574
 Alpha  occ. eigenvalues --   -0.62499  -0.58780  -0.53749  -0.49490  -0.47285
 Alpha  occ. eigenvalues --   -0.46620  -0.44486  -0.44107  -0.43738  -0.42888
 Alpha  occ. eigenvalues --   -0.39003  -0.37291  -0.37151  -0.34110  -0.34020
 Alpha  occ. eigenvalues --   -0.29780  -0.29188  -0.27670  -0.26185
 Alpha virt. eigenvalues --   -0.02778   0.04200   0.08918   0.10063   0.11532
 Alpha virt. eigenvalues --    0.11897   0.13640   0.14758   0.16328   0.17377
 Alpha virt. eigenvalues --    0.18224   0.18763   0.18967   0.20028   0.20341

 Mulliken charges:
               1
     1  C   -0.384355
     2  C   -0.191664
     3  C   -0.044243
     4  O   -0.233955
     5  C    0.257245
     6  O   -0.361072
     7  C   -0.076018
     8  C    0.231535
     9  C   -0.508639
    10  H    0.120368
    11  H    0.120929
    12  H    0.120942
    13  H    0.110832
    14  H    0.110824
    15  H    0.121377
    16  H    0.121290
    17  H    0.160004
    18  H    0.161830
    19  H    0.162769
 Sum of Mulliken charges =   0.00000

 Dipole moment (field-independent basis, Debye):
    X=              0.4944    Y=             -2.3341    Z=              0.0164  Tot=              2.3860
 Quadrupole moment (field-independent basis, Debye-Ang):
   XX=            -35.9733   YY=            -58.5999   ZZ=            -52.0662
   XY=             -4.0925   XZ=              0.0742   YZ=             -0.0170

  Exact polarizability: 125.934 -11.180  72.125   0.097  -0.048  56.410
 Approx polarizability: 155.431 -23.742 117.138   0.176  -0.110  83.902

                      1                      2                      3
                      A                      A                      A
 Frequencies --     17.4745                47.1998                58.3614
 Red. masses --      1.0276                 3.8033                 1.8253
 Frc consts  --      0.0002                 0.0050                 0.0037
 IR Inten    --      0.0725                 0.2702                 0.9260

                      4                      5                      6
                      A                      A                      A
 Frequencies --     65.4965               129.9198               158.2001
 Red. masses --      3.8181                 3.3164                 4.2207
 Frc consts  --      0.0097                 0.0330                 0.0622
 IR Inten    --      2.3165                 1.7367                 1.7918

                      7                      8                      9
                      A                      A                      A
 Frequencies --    220.0951               224.9520               292.5362
 Red. masses --      3.9401                 1.0978                 3.6776
 Frc consts  --      0.1125                 0.0327                 0.1854
 IR Inten    --      0.2350                 0.0144                 1.2963

                     10                     11                     12
                      A                      A                      A
 Frequencies --    328.4869               381.6737               399.1705
 Red. masses --      4.3953                 4.5531                 4.7217
 Frc consts  --      0.2794                 0.3908                 0.4433
 IR Inten    --     14.6047                 0.7327                 2.8588

                     13                     14                     15
                      A                      A                      A
 Frequencies --    491.4253               601.3904               757.9471
 Red. masses --      4.8556                 9.1105                 1.1459
 Frc consts  --      0.6909                 1.9414                 0.3879
 IR Inten    --      0.5274                 3.3373                 5.7862

                     16                     17                     18
                      A                      A                      A
 Frequencies --    775.0338               837.2710               890.6835
 Red. masses --      6.8027                 5.9003                 1.1469
 Frc consts  --      2.4075                 2.4370                 0.5360
 IR Inten    --     13.6313                12.5312                 1.9181

                     19                     20                     21
                      A                      A                      A
 Frequencies --    923.3029               985.7279              1047.1445
 Red. masses --      1.7622                 6.7296                 1.4394
 Frc consts  --      0.8851                 3.8526                 0.9299
 IR Inten    --      9.0932                 8.9795                 2.9200

                     22                     23                     24
                      A                      A                      A
 Frequencies --   1052.1976              1054.2209              1102.9839
 Red. masses --      2.6089                 1.4146                 6.6810
 Frc consts  --      1.7017                 0.9263                 4.7888
 IR Inten    --      6.1974                 2.6044               168.7274

                     25                     26                     27
                      A                      A                      A
 Frequencies --   1148.8899              1187.4431              1267.6532
 Red. masses --      2.3901                 1.6234                 1.2076
 Frc consts  --      1.8588                 1.3486                 1.1434
 IR Inten    --      4.8187                 1.1050                 0.7505

                     28                     29                     30
                      A                      A                      A
 Frequencies --   1278.6261              1312.9307              1335.5599
 Red. masses --      5.0361                 1.0850                 1.4690
 Frc consts  --      4.8510                 1.1020                 1.5438
 IR Inten    --    688.1172                 0.0882                16.6810

                     31                     32                     33
                      A                      A                      A
 Frequencies --   1410.7651              1412.2947              1420.7354
 Red. masses --      1.2468                 1.3501                 1.4201
 Frc consts  --      1.4621                 1.5866                 1.6889
 IR Inten    --      0.7789                 9.1894                 3.5292

                     34                     35                     36
                      A                      A                      A
 Frequencies --   1470.4029              1474.2506              1491.5250
 Red. masses --      1.0382                 1.0407                 1.0555
 Frc consts  --      1.3225                 1.3326                 1.3835
 IR Inten    --      7.0540                 6.9378                 0.7487

                     37                     38                     39
                      A                      A                      A
 Frequencies --   1499.0970              1503.5591              1519.2268
 Red. masses --      1.0392                 1.0760                 1.0940
 Frc consts  --      1.3759                 1.4332                 1.4877
 IR Inten    --      5.3803                 0.1239                 6.8482

                     40                     41                     42
                      A                      A                      A
 Frequencies --   1784.7972              2362.4217              3033.2028
 Red. masses --     12.6740                11.9197                 1.0346
 Frc consts  --     23.7872                39.1948                 5.6081
 IR Inten    --    259.8313               140.9142                17.8371

                     43                     44                     45
                      A                      A                      A
 Frequencies --   3033.8763              3037.2820              3045.9883
 Red. masses --      1.0372                 1.0583                 1.0563
 Frc consts  --      5.6248                 5.7523                 5.7740
 IR Inten    --     13.7309                 1.2393                46.2704

                     46                     47                     48
                      A                      A                      A
 Frequencies --   3066.8749              3088.1068              3096.9468
 Red. masses --      1.1025                 1.1058                 1.0997
 Frc consts  --      6.1095                 6.2133                 6.2141
 IR Inten    --      0.0199                 2.8100                 4.9638

                     49                     50                     51
                      A                      A                      A
 Frequencies --   3100.6140              3106.1394              3111.9471
 Red. masses --      1.1009                 1.1045                 1.1005
 Frc consts  --      6.2358                 6.2784                 6.2792
 IR Inten    --      5.4505                66.7653                28.6141

 - Thermochemistry -
 -------------------
 Temperature   298.150 Kelvin.  Pressure   1.00000 Atm.
 Atom     1 has atomic number  6 and mass  12.00000

 Molecular mass:   126.06808 amu.
 Principal axes and moments of inertia in atomic units:
                           1         2         3
     Eigenvalues --   387.173523112.093863454.44499
           X            0.99998  -0.00564   0.00007
           Y            0.00564   0.99998  -0.00008
           Z           -0.00007   0.00008   1.00000
 This molecule is an asymmetric top.
 Rotational symmetry number  1.
 Rotational temperatures (Kelvin)      0.22371     0.02783     0.02507
 Rotational constants (GHZ):           4.66132     0.57991     0.52244
 Zero-point vibrational energy     409386.3 (Joules/Mol)
                                   97.84568 (Kcal/Mol)
 Warning -- explicit consideration of  14 degrees of freedom as
           vibrations may cause significant error
 Vibrational temperatures:     25.14    67.91    83.97    94.23   186.93
          (Kelvin)            227.61   316.67   323.66   420.89   472.62
                              549.14   574.32   707.05   865.27  1090.52
                             1115.10  1204.64  1281.49  1328.43  1418.24
                             1506.61  1513.88  1516.79  1586.95  1652.99
                             1708.46  1823.87  1839.66  1889.01  1921.57
                             2029.77  2031.97  2044.12  2115.58  2121.12
                             2145.97  2156.86  2163.28  2185.83  2567.92
                             3398.99  4364.10  4365.07  4369.97  4382.49
                             4412.54  4443.09  4455.81  4461.09  4469.04
                             4477.39

 Zero-point correction=                           0.155927 (Hartree/Particle)
 Thermal correction to Energy=                    0.166971
 Thermal correction to Enthalpy=                  0.167915
 Thermal correction to Gibbs Free Energy=         0.116723
 Sum of electronic and zero-point Energies=           -423.041397
 Sum of electronic and thermal Energies=              -423.030354
 Sum of electronic and thermal Enthalpies=            -423.029409
 Sum of electronic and thermal Free Energies=         -423.080601

                     E (Thermal)             CV                S
                      KCal/Mol        Cal/Mol-Kelvin    Cal/Mol-Kelvin
 Total                  104.776             36.365            107.742
 Electronic               0.000              0.000              0.000
 Translational            0.889              2.981             40.409
 Rotational               0.889              2.981             29.811
 Vibrational            102.998             30.403             37.523
 Vibration     1          0.593              1.986              6.902
 Vibration     2          0.595              1.979              4.931
 Vibration     3          0.596              1.974              4.512
 Vibration     4          0.597              1.971              4.284
 Vibration     5          0.612              1.923              2.947
 Vibration     6          0.621              1.893              2.571
 Vibration     7          0.647              1.810              1.958
 Vibration     8          0.650              1.803              1.919
 Vibration     9          0.688              1.688              1.459
 Vibration    10          0.712              1.619              1.268
 Vibration    11          0.751              1.509              1.033
 Vibration    12          0.765              1.472              0.966
 Vibration    13          0.847              1.269              0.680
 Vibration    14          0.960              1.029              0.447

 Normal termination of Gaussian 09 at Tue Jan 28 15:03:33 2020.
