 Gaussian 09, Revision D.01,
 Gaussian 09:  ES64L-G09RevD.01 24-Apr-2013

 -----------------------------
 # b3lyp 6-31G(2df,p) opt Freq
 -----------------------------

 -----
 titel
 -----
 Symbolic Z-matrix:
 Charge =  0 Multiplicity = 1

 SCF Done:  E(RB3LYP) =  -423.145478976     A.U. after   14 cycles
 Optimization completed.
    -- Stationary point found.
 Normal termination of Gaussian 09 at Mon Jan 27 14:05:38 2020.

 ----------------------------------------------------------------------
 #N Geom=AllCheck Guess=TCheck SCRF=Check GenChk RB3LYP/6-31G(2df,p) Fr
 eq
 ----------------------------------------------------------------------

 Structure from the checkpoint file:  "/scratch/puck/g09_1c6ec807-5bc1-44ab-b554-68a601d5649b/Gau-171769.chk"
 -----
 titel
 -----
 Charge =  0 Multiplicity = 1

                         Standard orientation:
 ---------------------------------------------------------------------
 Center     Atomic      Atomic             Coordinates (Angstroms)
 Number     Number       Type             X           Y           Z
 ---------------------------------------------------------------------
      1          6           0       -2.369554    1.248911   -0.000171
      2          6           0       -1.752061   -0.129439   -0.000097
      3          8           0       -2.388382   -1.158648    0.000072
      4          6           0       -0.248861   -0.183010    0.000017
      5          6           0        0.702025   -0.744756   -1.089955
      6          6           0        1.543719   -0.027715    0.000053
      7          6           0        2.989996    0.352816   -0.000238
      8          6           0        0.701766   -0.741743    1.091837
      9          8           0        0.532488    1.074419   -0.001598
     10          1           0       -2.024739    1.809612   -0.875821
     11          1           0       -3.457141    1.171059    0.001101
     12          1           0       -2.022588    1.810939    0.873750
     13          1           0        0.784122   -1.829616   -1.181168
     14          1           0        0.651934   -0.231110   -2.051069
     15          1           0        3.231218    0.942421   -0.889737
     16          1           0        3.230390    0.946451    0.886802
     17          1           0        3.616536   -0.544516    0.002091
     18          1           0        0.783822   -1.826353    1.186059
     19          1           0        0.651417   -0.225442    2.051515
 ---------------------------------------------------------------------

 SCF Done:  E(RB3LYP) =  -423.145478976     A.U. after    1 cycles

 The electronic state is 1-A.
 Alpha  occ. eigenvalues --  -19.13437 -19.13127 -10.27273 -10.26031 -10.25509
 Alpha  occ. eigenvalues --  -10.19884 -10.19882 -10.19031 -10.18616  -1.06136
 Alpha  occ. eigenvalues --   -1.03981  -0.80053  -0.76139  -0.74109  -0.68692
 Alpha  occ. eigenvalues --   -0.64946  -0.54785  -0.52777  -0.47648  -0.46073
 Alpha  occ. eigenvalues --   -0.46057  -0.45157  -0.44291  -0.42339  -0.41644
 Alpha  occ. eigenvalues --   -0.40304  -0.37434  -0.36894  -0.35125  -0.33595
 Alpha  occ. eigenvalues --   -0.33094  -0.32093  -0.24507  -0.24397
 Alpha virt. eigenvalues --   -0.02180   0.09077   0.09579   0.10580   0.13084
 Alpha virt. eigenvalues --    0.13399   0.13541   0.14429   0.15138   0.15724
 Alpha virt. eigenvalues --    0.16442   0.16451   0.18726   0.19000   0.20526

 Mulliken charges:
               1
     1  C   -0.485634
     2  C    0.245382
     3  O   -0.306986
     4  C    0.334471
     5  C   -0.282603
     6  C    0.388045
     7  C   -0.509650
     8  C   -0.282592
     9  O   -0.377015
    10  H    0.152441
    11  H    0.137834
    12  H    0.152399
    13  H    0.108634
    14  H    0.107540
    15  H    0.135748
    16  H    0.135765
    17  H    0.130043
    18  H    0.108638
    19  H    0.107540
 Sum of Mulliken charges =   0.00000

 Dipole moment (field-independent basis, Debye):
    X=              2.1944    Y=              0.5261    Z=              0.0021  Tot=              2.2566
 Quadrupole moment (field-independent basis, Debye-Ang):
   XX=            -53.5005   YY=            -56.0741   ZZ=            -51.0191
   XY=             -6.9710   XZ=              0.0031   YZ=              0.0034

  Exact polarizability:  91.784  -0.001  73.360   0.000   0.002  66.742
 Approx polarizability: 117.898   6.108 120.076   0.004  -0.009 100.038

                      1                      2                      3
                      A                      A                      A
 Frequencies --     24.7075               125.9286               136.9026
 Red. masses --      3.6886                 1.1767                 3.5656
 Frc consts  --      0.0013                 0.0110                 0.0394
 IR Inten    --      6.2300                 0.3046                 5.2123

                      4                      5                      6
                      A                      A                      A
 Frequencies --    153.4896               190.0412               296.3648
 Red. masses --      2.5236                 1.0714                 2.8250
 Frc consts  --      0.0350                 0.0228                 0.1462
 IR Inten    --      0.0086                 0.0005                 5.8184

                      7                      8                      9
                      A                      A                      A
 Frequencies --    320.8806               342.6050               459.3181
 Red. masses --      2.5721                 4.0979                 3.7783
 Frc consts  --      0.1560                 0.2834                 0.4697
 IR Inten    --      1.1615                 3.6314                 2.6851

                     10                     11                     12
                      A                      A                      A
 Frequencies --    533.4600               561.0461               610.3294
 Red. masses --      2.0106                 2.6228                 3.4881
 Frc consts  --      0.3371                 0.4864                 0.7655
 IR Inten    --      1.6461                 4.1540                12.5516

                     13                     14                     15
                      A                      A                      A
 Frequencies --    610.4820               635.0452               715.0601
 Red. masses --      2.4574                 3.5517                 4.3581
 Frc consts  --      0.5396                 0.8439                 1.3129
 IR Inten    --      3.2565                 9.1660                39.6836

                     16                     17                     18
                      A                      A                      A
 Frequencies --    781.1798               911.3121               934.1220
 Red. masses --      2.5361                 2.5098                 4.1916
 Frc consts  --      0.9119                 1.2281                 2.1549
 IR Inten    --      0.0055                21.5630                16.3401

                     19                     20                     21
                      A                      A                      A
 Frequencies --    940.2480               964.8253               983.9682
 Red. masses --      2.1542                 2.3367                 1.4120
 Frc consts  --      1.1220                 1.2816                 0.8055
 IR Inten    --      0.0129                 9.1987                 0.2256

                     22                     23                     24
                      A                      A                      A
 Frequencies --   1020.4352              1053.5162              1067.3148
 Red. masses --      1.4013                 1.9660                 1.8691
 Frc consts  --      0.8597                 1.2856                 1.2545
 IR Inten    --      2.2810                21.2962                20.8297

                     25                     26                     27
                      A                      A                      A
 Frequencies --   1096.8301              1116.2750              1158.6311
 Red. masses --      1.8561                 1.3997                 1.4127
 Frc consts  --      1.3156                 1.0276                 1.1174
 IR Inten    --      0.3525                 1.1034                 0.2399

                     28                     29                     30
                      A                      A                      A
 Frequencies --   1169.3913              1190.5790              1199.4993
 Red. masses --      2.2883                 1.7001                 2.5703
 Frc consts  --      1.8437                 1.4199                 2.1789
 IR Inten    --      3.4871                45.9811                 6.5055

                     31                     32                     33
                      A                      A                      A
 Frequencies --   1284.4807              1365.7593              1384.3855
 Red. masses --      3.3080                 1.7492                 1.5742
 Frc consts  --      3.2156                 1.9224                 1.7776
 IR Inten    --     12.6912                20.9436                57.5377

                     34                     35                     36
                      A                      A                      A
 Frequencies --   1414.9057              1454.5868              1461.2333
 Red. masses --      1.6591                 1.0573                 1.0538
 Frc consts  --      1.9570                 1.3180                 1.3258
 IR Inten    --     31.6400                14.1395                 7.2949

                     37                     38                     39
                      A                      A                      A
 Frequencies --   1466.4955              1476.5035              1488.3284
 Red. masses --      1.1172                 1.0470                 1.0464
 Frc consts  --      1.4156                 1.3448                 1.3657
 IR Inten    --      4.5976                 3.7311                 4.5177

                     40                     41                     42
                      A                      A                      A
 Frequencies --   1518.4609              1806.7517              3040.5574
 Red. masses --      1.3947                11.2937                 1.0347
 Frc consts  --      1.8947                21.7211                 5.6358
 IR Inten    --     14.8240               151.5604                14.6164

                     43                     44                     45
                      A                      A                      A
 Frequencies --   3041.6847              3067.6318              3075.2630
 Red. masses --      1.0354                 1.0543                 1.0550
 Frc consts  --      5.6441                 5.8458                 5.8782
 IR Inten    --      0.4011                33.1068                16.6902

                     46                     47                     48
                      A                      A                      A
 Frequencies --   3102.1650              3115.6059              3116.8561
 Red. masses --      1.0970                 1.1011                 1.1019
 Frc consts  --      6.2200                 6.2972                 6.3071
 IR Inten    --      3.2066                 9.8199                10.8946

                     49                     50                     51
                      A                      A                      A
 Frequencies --   3149.2553              3154.9516              3157.9955
 Red. masses --      1.1122                 1.1127                 1.1041
 Frc consts  --      6.4990                 6.5254                 6.4878
 IR Inten    --     12.2264                28.2125                10.9762

 - Thermochemistry -
 -------------------
 Temperature   298.150 Kelvin.  Pressure   1.00000 Atm.
 Atom     1 has atomic number  6 and mass  12.00000

 Molecular mass:   126.06808 amu.
 Principal axes and moments of inertia in atomic units:
                           1         2         3
     Eigenvalues --   477.015591600.380111770.28754
           X            0.99947  -0.03251   0.00000
           Y            0.03251   0.99947   0.00010
           Z           -0.00001  -0.00010   1.00000
 This molecule is an asymmetric top.
 Rotational symmetry number  1.
 Warning -- assumption of classical behavior for rotation
           may cause significant error
 Rotational temperatures (Kelvin)      0.18157     0.05412     0.04893
 Rotational constants (GHZ):           3.78340     1.12770     1.01946
 Zero-point vibrational energy     409407.8 (Joules/Mol)
                                   97.85082 (Kcal/Mol)
 Warning -- explicit consideration of  13 degrees of freedom as
           vibrations may cause significant error
 Vibrational temperatures:     35.55   181.18   196.97   220.84   273.43
          (Kelvin)            426.40   461.68   492.93   660.86   767.53
                              807.22   878.13   878.35   913.69  1028.81
                             1123.94  1311.17  1343.99  1352.81  1388.17
                             1415.71  1468.18  1515.77  1535.63  1578.09
                             1606.07  1667.01  1682.49  1712.98  1725.81
                             1848.08  1965.02  1991.82  2035.73  2092.82
                             2102.39  2109.96  2124.36  2141.37  2184.72
                             2599.51  4374.68  4376.30  4413.63  4424.61
                             4463.32  4482.66  4484.46  4531.07  4539.27
                             4543.65

 Zero-point correction=                           0.155935 (Hartree/Particle)
 Thermal correction to Energy=                    0.165202
 Thermal correction to Enthalpy=                  0.166147
 Thermal correction to Gibbs Free Energy=         0.121061
 Sum of electronic and zero-point Energies=           -422.989544
 Sum of electronic and thermal Energies=              -422.980277
 Sum of electronic and thermal Enthalpies=            -422.979332
 Sum of electronic and thermal Free Energies=         -423.024418

                     E (Thermal)             CV                S
                      KCal/Mol        Cal/Mol-Kelvin    Cal/Mol-Kelvin
 Total                  103.666             34.151             94.891
 Electronic               0.000              0.000              0.000
 Translational            0.889              2.981             40.409
 Rotational               0.889              2.981             28.693
 Vibrational            101.889             28.189             25.790
 Vibration     1          0.593              1.985              6.215
 Vibration     2          0.611              1.927              3.007
 Vibration     3          0.614              1.916              2.847
 Vibration     4          0.619              1.899              2.629
 Vibration     5          0.633              1.854              2.227
 Vibration     6          0.690              1.681              1.437
 Vibration     7          0.706              1.634              1.306
 Vibration     8          0.722              1.590              1.200
 Vibration     9          0.817              1.340              0.768
 Vibration    10          0.888              1.176              0.580
 Vibration    11          0.917              1.116              0.522
 Vibration    12          0.969              1.010              0.432
 Vibration    13          0.970              1.010              0.432

 Normal termination of Gaussian 09 at Mon Jan 27 14:46:42 2020.
