 Gaussian 09, Revision D.01,
 Gaussian 09:  ES64L-G09RevD.01 24-Apr-2013

 -----------------------------
 # b3lyp 6-31G(2df,p) opt Freq
 -----------------------------

 -----
 titel
 -----
 Symbolic Z-matrix:
 Charge =  0 Multiplicity = 1

 SCF Done:  E(RB3LYP) =  -423.121613569     A.U. after   14 cycles
 Optimization completed.
    -- Stationary point found.
 Normal termination of Gaussian 09 at Tue Jan 28 13:28:43 2020.

 ----------------------------------------------------------------------
 #N Geom=AllCheck Guess=TCheck SCRF=Check GenChk RB3LYP/6-31G(2df,p) Fr
 eq
 ----------------------------------------------------------------------

 Structure from the checkpoint file:  "/scratch/puck/g09_2c3569a6-34ac-4d94-b2fc-09349783d46d/Gau-31940.chk"
 -----
 titel
 -----
 Charge =  0 Multiplicity = 1

                         Standard orientation:
 ---------------------------------------------------------------------
 Center     Atomic      Atomic             Coordinates (Angstroms)
 Number     Number       Type             X           Y           Z
 ---------------------------------------------------------------------
      1          6           0        2.180637   -1.441572    0.532966
      2          6           0        1.400208   -0.390963   -0.283083
      3          6           0        1.996731    0.939155   -0.172931
      4          6           0        2.471699    2.037208   -0.054160
      5          6           0       -0.056174   -0.343727    0.161935
      6          8           0       -0.869655   -1.447089   -0.232341
      7          6           0       -1.163259   -0.156827   -0.782408
      8          6           0       -2.487218    0.473726   -0.396032
      9          8           0       -2.673672    0.644145    0.995040
     10          1           0        3.214854   -1.510347    0.187201
     11          1           0        2.193138   -1.175027    1.593988
     12          1           0        1.702873   -2.418571    0.422919
     13          1           0        1.409743   -0.697329   -1.337160
     14          1           0        2.901623    3.003987    0.036064
     15          1           0       -0.207987   -0.034498    1.196080
     16          1           0       -0.918752   -0.062557   -1.843226
     17          1           0       -2.590045    1.423791   -0.943717
     18          1           0       -3.297623   -0.182775   -0.732882
     19          1           0       -2.116957    1.374874    1.281425
 ---------------------------------------------------------------------

 SCF Done:  E(RB3LYP) =  -423.121613569     A.U. after    1 cycles

 The electronic state is 1-A.
 Alpha  occ. eigenvalues --  -19.15155 -19.14455 -10.24223 -10.23899 -10.23754
 Alpha  occ. eigenvalues --  -10.22028 -10.18610 -10.18413 -10.17705  -1.07535
 Alpha  occ. eigenvalues --   -1.02420  -0.81709  -0.73379  -0.72915  -0.67644
 Alpha  occ. eigenvalues --   -0.61897  -0.59758  -0.53910  -0.51852  -0.50226
 Alpha  occ. eigenvalues --   -0.48079  -0.46078  -0.43556  -0.41767  -0.40714
 Alpha  occ. eigenvalues --   -0.38591  -0.37621  -0.36640  -0.34047  -0.29958
 Alpha  occ. eigenvalues --   -0.29600  -0.27536  -0.26972  -0.25685
 Alpha virt. eigenvalues --    0.04423   0.04949   0.06863   0.09858   0.10678
 Alpha virt. eigenvalues --    0.11688   0.12485   0.13666   0.13923   0.16278
 Alpha virt. eigenvalues --    0.16962   0.17743   0.18052   0.18423   0.21211

 Mulliken charges:
               1
     1  C   -0.394282
     2  C   -0.188039
     3  C    0.323871
     4  C   -0.477783
     5  C    0.073957
     6  O   -0.258648
     7  C    0.034432
     8  C   -0.113614
     9  O   -0.403259
    10  H    0.126341
    11  H    0.126817
    12  H    0.137268
    13  H    0.110877
    14  H    0.198136
    15  H    0.098864
    16  H    0.092367
    17  H    0.095541
    18  H    0.128462
    19  H    0.288691
 Sum of Mulliken charges =   0.00000

 Dipole moment (field-independent basis, Debye):
    X=              1.0035    Y=              1.9544    Z=             -0.8047  Tot=              2.3397
 Quadrupole moment (field-independent basis, Debye-Ang):
   XX=            -56.1798   YY=            -51.0571   ZZ=            -52.1188
   XY=             -2.4669   XZ=              3.9546   YZ=              1.4174

  Exact polarizability:  85.698   6.418  83.360   5.405   0.641  63.588
 Approx polarizability: 106.997  17.294 133.338   7.181   3.496  96.650

                      1                      2                      3
                      A                      A                      A
 Frequencies --     58.9725                68.6342               117.7081
 Red. masses --      3.4043                 5.2788                 3.3221
 Frc consts  --      0.0070                 0.0147                 0.0271
 IR Inten    --      3.8491                 0.5566                 2.3791

                      4                      5                      6
                      A                      A                      A
 Frequencies --    168.2514               193.5175               229.6484
 Red. masses --      3.6068                 2.9684                 1.4203
 Frc consts  --      0.0602                 0.0655                 0.0441
 IR Inten    --      2.0340                 3.2154                 0.9270

                      7                      8                      9
                      A                      A                      A
 Frequencies --    248.7762               289.8395               348.1261
 Red. masses --      1.9897                 2.8019                 1.1727
 Frc consts  --      0.0726                 0.1387                 0.0837
 IR Inten    --      0.3452                19.6330               113.3829

                     10                     11                     12
                      A                      A                      A
 Frequencies --    353.2397               482.2692               498.6367
 Red. masses --      3.6302                 3.8556                 5.8840
 Frc consts  --      0.2669                 0.5283                 0.8620
 IR Inten    --      7.2544                12.9889                 5.8494

                     13                     14                     15
                      A                      A                      A
 Frequencies --    545.9949               632.2800               638.5197
 Red. masses --      4.0638                 1.2710                 3.1827
 Frc consts  --      0.7138                 0.2994                 0.7645
 IR Inten    --      4.9338                35.9205                36.7709

                     16                     17                     18
                      A                      A                      A
 Frequencies --    647.3634               794.0505               853.0666
 Red. masses --      1.2860                 4.1568                 2.3417
 Frc consts  --      0.3175                 1.5442                 1.0040
 IR Inten    --     27.5913                17.2577                 1.3590

                     19                     20                     21
                      A                      A                      A
 Frequencies --    887.6019               940.5595               975.1189
 Red. masses --      3.1028                 2.7880                 2.2810
 Frc consts  --      1.4403                 1.4532                 1.2779
 IR Inten    --     16.2254                19.9504                26.7648

                     22                     23                     24
                      A                      A                      A
 Frequencies --    985.2637              1068.1643              1077.2512
 Red. masses --      1.6953                 2.5160                 1.7222
 Frc consts  --      0.9696                 1.6914                 1.1775
 IR Inten    --     23.0333                 4.4105                15.0573

                     25                     26                     27
                      A                      A                      A
 Frequencies --   1108.0409              1123.0776              1157.6023
 Red. masses --      1.7075                 2.9933                 1.4962
 Frc consts  --      1.2352                 2.2245                 1.1813
 IR Inten    --     32.4710                18.4708                 1.2341

                     28                     29                     30
                      A                      A                      A
 Frequencies --   1176.3139              1236.6289              1276.2167
 Red. masses --      1.8019                 1.2599                 1.2938
 Frc consts  --      1.4690                 1.1352                 1.2416
 IR Inten    --      0.3333                14.6499                 3.2101

                     31                     32                     33
                      A                      A                      A
 Frequencies --   1277.1013              1323.4681              1358.0592
 Red. masses --      1.3951                 1.4020                 1.2901
 Frc consts  --      1.3406                 1.4469                 1.4019
 IR Inten    --     14.1847                 8.2126                 1.7745

                     34                     35                     36
                      A                      A                      A
 Frequencies --   1398.2001              1403.6679              1413.4026
 Red. masses --      1.3133                 1.2104                 1.2569
 Frc consts  --      1.5127                 1.4051                 1.4794
 IR Inten    --      0.8534                 5.1061                33.7101

                     37                     38                     39
                      A                      A                      A
 Frequencies --   1486.3263              1491.5212              1495.6411
 Red. masses --      1.0827                 1.5529                 1.0451
 Frc consts  --      1.4092                 2.0354                 1.3774
 IR Inten    --      2.8643                 3.5178                 5.4258

                     40                     41                     42
                      A                      A                      A
 Frequencies --   1501.8704              2234.6788              2984.8289
 Red. masses --      1.5786                 5.9282                 1.0685
 Frc consts  --      2.0979                17.4424                 5.6086
 IR Inten    --      9.4085                 1.6790                49.2532

                     43                     44                     45
                      A                      A                      A
 Frequencies --   3024.3993              3046.1096              3068.2715
 Red. masses --      1.0819                 1.0339                 1.0936
 Frc consts  --      5.8304                 5.6521                 6.0660
 IR Inten    --      6.6780                18.8497                21.4395

                     46                     47                     48
                      A                      A                      A
 Frequencies --   3084.5054              3115.9869              3122.3292
 Red. masses --      1.0874                 1.0875                 1.1007
 Frc consts  --      6.0958                 6.2214                 6.3226
 IR Inten    --     28.6096                 9.5033                28.2694

                     49                     50                     51
                      A                      A                      A
 Frequencies --   3131.0567              3503.5802              3823.2756
 Red. masses --      1.1034                 1.1620                 1.0663
 Frc consts  --      6.3730                 8.4042                 9.1837
 IR Inten    --     15.9439                66.6714                17.9585

 - Thermochemistry -
 -------------------
 Temperature   298.150 Kelvin.  Pressure   1.00000 Atm.
 Atom     1 has atomic number  6 and mass  12.00000

 Molecular mass:   126.06808 amu.
 Principal axes and moments of inertia in atomic units:
                           1         2         3
     Eigenvalues --   707.079481836.505342233.46627
           X            0.99942  -0.03031   0.01570
           Y            0.03054   0.99942  -0.01477
           Z           -0.01524   0.01524   0.99977
 This molecule is an asymmetric top.
 Rotational symmetry number  1.
 Warning -- assumption of classical behavior for rotation
           may cause significant error
 Rotational temperatures (Kelvin)      0.12250     0.04716     0.03878
 Rotational constants (GHZ):           2.55239     0.98270     0.80804
 Zero-point vibrational energy     409535.6 (Joules/Mol)
                                   97.88137 (Kcal/Mol)
 Warning -- explicit consideration of  13 degrees of freedom as
           vibrations may cause significant error
 Vibrational temperatures:     84.85    98.75   169.36   242.08   278.43
          (Kelvin)            330.41   357.93   417.01   500.88   508.23
                              693.88   717.43   785.56   909.71   918.69
                              931.41  1142.46  1227.37  1277.06  1353.25
                             1402.98  1417.57  1536.85  1549.92  1594.22
                             1615.86  1665.53  1692.45  1779.23  1836.19
                             1837.46  1904.17  1953.94  2011.70  2019.56
                             2033.57  2138.49  2145.96  2151.89  2160.85
                             3215.20  4294.50  4351.43  4382.67  4414.55
                             4437.91  4483.20  4492.33  4504.89  5040.86
                             5500.83

 Zero-point correction=                           0.155984 (Hartree/Particle)
 Thermal correction to Energy=                    0.166113
 Thermal correction to Enthalpy=                  0.167057
 Thermal correction to Gibbs Free Energy=         0.120364
 Sum of electronic and zero-point Energies=           -422.965630
 Sum of electronic and thermal Energies=              -422.955500
 Sum of electronic and thermal Enthalpies=            -422.954556
 Sum of electronic and thermal Free Energies=         -423.001249

                     E (Thermal)             CV                S
                      KCal/Mol        Cal/Mol-Kelvin    Cal/Mol-Kelvin
 Total                  104.238             36.484             98.274
 Electronic               0.000              0.000              0.000
 Translational            0.889              2.981             40.409
 Rotational               0.889              2.981             29.452
 Vibrational            102.460             30.522             28.414
 Vibration     1          0.596              1.974              4.491
 Vibration     2          0.598              1.969              4.192
 Vibration     3          0.608              1.935              3.138
 Vibration     4          0.625              1.882              2.455
 Vibration     5          0.635              1.849              2.194
 Vibration     6          0.652              1.796              1.882
 Vibration     7          0.662              1.765              1.739
 Vibration     8          0.686              1.693              1.475
 Vibration     9          0.726              1.579              1.175
 Vibration    10          0.729              1.569              1.152
 Vibration    11          0.839              1.289              0.704
 Vibration    12          0.854              1.253              0.662
 Vibration    13          0.901              1.148              0.553

 Optimization completed.
    -- Stationary point found.
 Normal termination of Gaussian 09 at Tue Jan 28 14:04:58 2020.
