 Gaussian 09, Revision D.01,
 Gaussian 09:  ES64L-G09RevD.01 24-Apr-2013

 -----------------------------
 # b3lyp 6-31G(2df,p) opt Freq
 -----------------------------

 -----
 titel
 -----
 Symbolic Z-matrix:
 Charge =  0 Multiplicity = 1

 SCF Done:  E(RB3LYP) =  -423.171876457     A.U. after   14 cycles
 Optimization completed.
    -- Stationary point found.
 Normal termination of Gaussian 09 at Tue Jan 28 12:46:13 2020.

 ----------------------------------------------------------------------
 #N Geom=AllCheck Guess=TCheck SCRF=Check GenChk RB3LYP/6-31G(2df,p) Fr
 eq
 ----------------------------------------------------------------------

 Structure from the checkpoint file:  "/scratch/puck/g09_8eb9a12a-0524-47ff-a921-52218d3404e7/Gau-10495.chk"
 -----
 titel
 -----
 Charge =  0 Multiplicity = 1

                         Standard orientation:
 ---------------------------------------------------------------------
 Center     Atomic      Atomic             Coordinates (Angstroms)
 Number     Number       Type             X           Y           Z
 ---------------------------------------------------------------------
      1          6           0       -3.008762   -0.954817   -0.004591
      2          6           0       -1.711799   -0.308949    0.435048
      3          6           0       -0.439489   -0.709554   -0.215475
      4          6           0       -1.073971    0.673205   -0.552936
      5          6           0        0.112623    1.329119    0.071873
      6          8           0        0.544430    2.448848    0.073999
      7          6           0        0.751633   -0.032167    0.482484
      8          6           0        2.110271   -0.234878   -0.187957
      9          8           0        2.558098   -1.579963   -0.119526
     10          1           0       -3.184863   -1.882645    0.549595
     11          1           0       -3.860759   -0.290587    0.171618
     12          1           0       -2.988545   -1.200416   -1.071147
     13          1           0       -1.679564   -0.047849    1.491953
     14          1           0       -0.352440   -1.557680   -0.881912
     15          1           0       -1.622330    1.010608   -1.424317
     16          1           0        0.828615   -0.224440    1.560613
     17          1           0        2.037308   -0.003385   -1.256011
     18          1           0        2.837440    0.464457    0.247748
     19          1           0        2.721867   -1.790899    0.805407
 ---------------------------------------------------------------------

 SCF Done:  E(RB3LYP) =  -423.171876457     A.U. after    1 cycles

 The electronic state is 1-A.
 Alpha  occ. eigenvalues --  -19.14125 -19.12934 -10.26756 -10.23462 -10.21557
 Alpha  occ. eigenvalues --  -10.20986 -10.20347 -10.19849 -10.19249  -1.03979
 Alpha  occ. eigenvalues --   -1.02161  -0.91096  -0.77390  -0.71942  -0.64161
 Alpha  occ. eigenvalues --   -0.63401  -0.58438  -0.53705  -0.50140  -0.48634
 Alpha  occ. eigenvalues --   -0.46353  -0.46024  -0.42327  -0.42172  -0.40875
 Alpha  occ. eigenvalues --   -0.39983  -0.38215  -0.37808  -0.35823  -0.32914
 Alpha  occ. eigenvalues --   -0.30280  -0.28334  -0.27624  -0.23695
 Alpha virt. eigenvalues --   -0.01037   0.07038   0.09181   0.09674   0.10469
 Alpha virt. eigenvalues --    0.13014   0.13722   0.14734   0.15613   0.16275
 Alpha virt. eigenvalues --    0.17033   0.17266   0.17824   0.20662   0.21906

 Mulliken charges:
               1
     1  C   -0.424192
     2  C   -0.024703
     3  C   -0.046517
     4  C   -0.183408
     5  C    0.407124
     6  O   -0.330025
     7  C   -0.179310
     8  C   -0.077731
     9  O   -0.420382
    10  H    0.127125
    11  H    0.128983
    12  H    0.122452
    13  H    0.093122
    14  H    0.113100
    15  H    0.105949
    16  H    0.079422
    17  H    0.116307
    18  H    0.109922
    19  H    0.282764
 Sum of Mulliken charges =   0.00000

 Dipole moment (field-independent basis, Debye):
    X=             -1.5665    Y=             -2.3404    Z=              1.0020  Tot=              2.9892
 Quadrupole moment (field-independent basis, Debye-Ang):
   XX=            -50.8965   YY=            -62.9694   ZZ=            -49.8406
   XY=             -0.0358   XZ=              4.0370   YZ=             -2.8989

  Exact polarizability:  90.368   4.299  78.916   2.749  -2.310  63.325
 Approx polarizability: 114.059   5.921 128.088   3.429  -3.313 100.061

                      1                      2                      3
                      A                      A                      A
 Frequencies --     88.4666               120.9844               137.6653
 Red. masses --      3.5243                 2.8107                 5.7392
 Frc consts  --      0.0163                 0.0242                 0.0641
 IR Inten    --      3.8393                 2.5556                 4.9866

                      4                      5                      6
                      A                      A                      A
 Frequencies --    171.4873               229.3199               242.7679
 Red. masses --      2.2716                 1.1049                 3.1826
 Frc consts  --      0.0394                 0.0342                 0.1105
 IR Inten    --      4.1183                 0.9859                 0.4040

                      7                      8                      9
                      A                      A                      A
 Frequencies --    306.4800               309.4000               410.3110
 Red. masses --      1.2516                 3.3012                 2.9424
 Frc consts  --      0.0693                 0.1862                 0.2919
 IR Inten    --     90.1209                15.1604                 5.7287

                     10                     11                     12
                      A                      A                      A
 Frequencies --    446.1524               521.2597               630.1020
 Red. masses --      3.5795                 3.9949                 4.9446
 Frc consts  --      0.4198                 0.6395                 1.1567
 IR Inten    --     11.7499                14.8047                 5.9058

                     13                     14                     15
                      A                      A                      A
 Frequencies --    719.7634               760.3638               864.4687
 Red. masses --      3.2711                 3.1393                 1.4911
 Frc consts  --      0.9984                 1.0694                 0.6565
 IR Inten    --      8.0618                 8.4815                 3.8604

                     16                     17                     18
                      A                      A                      A
 Frequencies --    874.3289               897.0205               916.4798
 Red. masses --      2.2487                 3.3280                 2.5621
 Frc consts  --      1.0128                 1.5777                 1.2679
 IR Inten    --      6.8642                 1.0772                11.8629

                     19                     20                     21
                      A                      A                      A
 Frequencies --    966.0686               989.2455              1020.6938
 Red. masses --      1.6557                 1.5354                 1.7377
 Frc consts  --      0.9104                 0.8853                 1.0666
 IR Inten    --     27.8599                 6.8071                19.9072

                     22                     23                     24
                      A                      A                      A
 Frequencies --   1059.2930              1065.3101              1085.8752
 Red. masses --      1.5076                 3.3188                 1.7033
 Frc consts  --      0.9967                 2.2192                 1.1833
 IR Inten    --     48.2214                86.6785                 6.4394

                     25                     26                     27
                      A                      A                      A
 Frequencies --   1111.5870              1121.3435              1150.8214
 Red. masses --      2.1530                 1.8134                 1.5108
 Frc consts  --      1.5674                 1.3435                 1.1789
 IR Inten    --      5.4180                12.8475                 1.9777

                     28                     29                     30
                      A                      A                      A
 Frequencies --   1183.6747              1199.3036              1212.3181
 Red. masses --      1.4840                 1.8177                 1.6382
 Frc consts  --      1.2250                 1.5404                 1.4186
 IR Inten    --     34.8187                 1.0995                 0.3390

                     31                     32                     33
                      A                      A                      A
 Frequencies --   1259.5942              1282.9437              1348.8475
 Red. masses --      1.8064                 1.5207                 1.4872
 Frc consts  --      1.6886                 1.4747                 1.5943
 IR Inten    --     24.3912                 3.5104                 2.9643

                     34                     35                     36
                      A                      A                      A
 Frequencies --   1382.0176              1415.0095              1419.3543
 Red. masses --      1.3047                 1.3516                 1.3452
 Frc consts  --      1.4682                 1.5945                 1.5967
 IR Inten    --      2.9358                 5.2023                42.1176

                     37                     38                     39
                      A                      A                      A
 Frequencies --   1423.3414              1493.3814              1501.2264
 Red. masses --      1.6525                 1.0463                 1.0814
 Frc consts  --      1.9725                 1.3748                 1.4359
 IR Inten    --     18.3467                 2.1197                 0.4982

                     40                     41                     42
                      A                      A                      A
 Frequencies --   1502.4951              1868.3284              3009.9096
 Red. masses --      1.0759                12.4960                 1.0666
 Frc consts  --      1.4310                25.6996                 5.6931
 IR Inten    --      6.0958               344.1349                39.7413

                     43                     44                     45
                      A                      A                      A
 Frequencies --   3021.3392              3034.5746              3077.5717
 Red. masses --      1.0818                 1.0350                 1.0987
 Frc consts  --      5.8182                 5.6155                 6.1314
 IR Inten    --     27.2306                27.4825                28.5407

                     46                     47                     48
                      A                      A                      A
 Frequencies --   3098.3787              3102.1195              3116.5620
 Red. masses --      1.0955                 1.1008                 1.0948
 Frc consts  --      6.1964                 6.2411                 6.2651
 IR Inten    --      2.0104                17.3502                37.5730

                     49                     50                     51
                      A                      A                      A
 Frequencies --   3190.1000              3208.9415              3813.0926
 Red. masses --      1.0920                 1.0944                 1.0662
 Frc consts  --      6.5474                 6.6396                 9.1333
 IR Inten    --      6.8581                 2.5362                20.7176

 - Thermochemistry -
 -------------------
 Temperature   298.150 Kelvin.  Pressure   1.00000 Atm.
 Atom     1 has atomic number  6 and mass  12.00000

 Molecular mass:   126.06808 amu.
 Principal axes and moments of inertia in atomic units:
                           1         2         3
     Eigenvalues --   765.431221469.251502081.95731
           X            0.99949   0.03114   0.00665
           Y           -0.03108   0.99948  -0.00910
           Z           -0.00693   0.00889   0.99994
 This molecule is an asymmetric top.
 Rotational symmetry number  1.
 Warning -- assumption of classical behavior for rotation
           may cause significant error
 Rotational temperatures (Kelvin)      0.11316     0.05895     0.04160
 Rotational constants (GHZ):           2.35781     1.22834     0.86685
 Zero-point vibrational energy     414993.4 (Joules/Mol)
                                   99.18581 (Kcal/Mol)
 Warning -- explicit consideration of  11 degrees of freedom as
           vibrations may cause significant error
 Vibrational temperatures:    127.28   174.07   198.07   246.73   329.94
          (Kelvin)            349.29   440.96   445.16   590.35   641.91
                              749.98   906.58  1035.58  1093.99  1243.78
                             1257.96  1290.61  1318.61  1389.96  1423.30
                             1468.55  1524.08  1532.74  1562.33  1599.32
                             1613.36  1655.77  1703.04  1725.53  1744.25
                             1812.27  1845.87  1940.69  1988.41  2035.88
                             2042.13  2047.87  2148.64  2159.93  2161.75
                             2688.10  4330.58  4347.03  4366.07  4427.93
                             4457.87  4463.25  4484.03  4589.84  4616.95
                             5486.18

 Zero-point correction=                           0.158063 (Hartree/Particle)
 Thermal correction to Energy=                    0.167190
 Thermal correction to Enthalpy=                  0.168134
 Thermal correction to Gibbs Free Energy=         0.123978
 Sum of electronic and zero-point Energies=           -423.013814
 Sum of electronic and thermal Energies=              -423.004687
 Sum of electronic and thermal Enthalpies=            -423.003743
 Sum of electronic and thermal Free Energies=         -423.047899

                     E (Thermal)             CV                S
                      KCal/Mol        Cal/Mol-Kelvin    Cal/Mol-Kelvin
 Total                  104.913             33.677             92.934
 Electronic               0.000              0.000              0.000
 Translational            0.889              2.981             40.409
 Rotational               0.889              2.981             29.239
 Vibrational            103.136             27.715             23.286
 Vibration     1          0.601              1.957              3.694
 Vibration     2          0.609              1.932              3.085
 Vibration     3          0.614              1.916              2.836
 Vibration     4          0.626              1.878              2.419
 Vibration     5          0.652              1.796              1.884
 Vibration     6          0.659              1.775              1.783
 Vibration     7          0.697              1.661              1.381
 Vibration     8          0.699              1.656              1.366
 Vibration     9          0.774              1.448              0.926
 Vibration    10          0.805              1.369              0.807
 Vibration    11          0.876              1.203              0.607

 Normal termination of Gaussian 09 at Tue Jan 28 14:31:20 2020.
