 Gaussian 09, Revision D.01,
 Gaussian 09:  ES64L-G09RevD.01 24-Apr-2013

 -----------------------------
 # b3lyp 6-31G(2df,p) opt Freq
 -----------------------------

 -----
 titel
 -----
 Symbolic Z-matrix:
 Charge =  0 Multiplicity = 1

 SCF Done:  E(RB3LYP) =  -423.133864455     A.U. after   13 cycles
 Optimization completed.
    -- Stationary point found.
 Normal termination of Gaussian 09 at Tue Jan 28 02:52:02 2020.

 ----------------------------------------------------------------------
 #N Geom=AllCheck Guess=TCheck SCRF=Check GenChk RB3LYP/6-31G(2df,p) Fr
 eq
 ----------------------------------------------------------------------

 Structure from the checkpoint file:  "/scratch/puck/g09_3198f2db-babe-4da8-9347-bf417a9ae7b5/Gau-190052.chk"
 -----
 titel
 -----
 Charge =  0 Multiplicity = 1

                         Standard orientation:
 ---------------------------------------------------------------------
 Center     Atomic      Atomic             Coordinates (Angstroms)
 Number     Number       Type             X           Y           Z
 ---------------------------------------------------------------------
      1          6           0        2.214539    1.040422    0.221169
      2          6           0        1.491099   -0.176251   -0.313550
      3          8           0        1.041586   -1.053851    0.774805
      4          6           0       -0.314383   -0.855115    0.365484
      5          6           0       -0.596675   -1.356529   -1.009974
      6          6           0        0.044391    0.007563   -0.824474
      7          6           0       -0.859134    1.212105   -0.729633
      8          8           0       -1.884846    0.843022    0.218424
      9          6           0       -1.352011   -0.100199    1.158489
     10          1           0        2.499986    1.708049   -0.599358
     11          1           0        1.594651    1.598375    0.927957
     12          1           0        3.123877    0.726437    0.741891
     13          1           0        2.139161   -0.735055   -1.000529
     14          1           0        0.002602   -2.173543   -1.397854
     15          1           0       -1.635052   -1.343678   -1.323635
     16          1           0       -0.299869    2.093287   -0.384116
     17          1           0       -1.383914    1.478519   -1.652002
     18          1           0       -0.862329    0.389637    2.013848
     19          1           0       -2.199984   -0.687374    1.522901
 ---------------------------------------------------------------------

 SCF Done:  E(RB3LYP) =  -423.133864455     A.U. after    1 cycles

 The electronic state is 1-A.
 Alpha  occ. eigenvalues --  -19.14199 -19.14082 -10.24921 -10.23964 -10.23574
 Alpha  occ. eigenvalues --  -10.23466 -10.19890 -10.19494 -10.18534  -1.06011
 Alpha  occ. eigenvalues --   -1.02550  -0.84452  -0.76845  -0.73064  -0.66961
 Alpha  occ. eigenvalues --   -0.63522  -0.58198  -0.52103  -0.51701  -0.48696
 Alpha  occ. eigenvalues --   -0.46690  -0.45634  -0.44924  -0.41200  -0.40682
 Alpha  occ. eigenvalues --   -0.39609  -0.38901  -0.38246  -0.35589  -0.32327
 Alpha  occ. eigenvalues --   -0.31169  -0.26708  -0.25969  -0.23308
 Alpha virt. eigenvalues --    0.05871   0.08637   0.09541   0.11460   0.12425
 Alpha virt. eigenvalues --    0.13889   0.14122   0.14496   0.15824   0.16224
 Alpha virt. eigenvalues --    0.16973   0.17534   0.18845   0.19750   0.20884

 Mulliken charges:
               1
     1  C   -0.405672
     2  C    0.083917
     3  O   -0.337725
     4  C    0.350938
     5  C   -0.373006
     6  C    0.106987
     7  C   -0.155400
     8  O   -0.266499
     9  C   -0.154196
    10  H    0.120363
    11  H    0.127143
    12  H    0.131939
    13  H    0.083833
    14  H    0.121967
    15  H    0.134561
    16  H    0.099593
    17  H    0.112928
    18  H    0.103889
    19  H    0.114439
 Sum of Mulliken charges =   0.00000

 Dipole moment (field-independent basis, Debye):
    X=              0.7836    Y=              0.5164    Z=             -0.9961  Tot=              1.3685
 Quadrupole moment (field-independent basis, Debye-Ang):
   XX=            -54.5046   YY=            -53.7541   ZZ=            -52.4930
   XY=              4.2317   XZ=             -1.4898   YZ=              1.1501

  Exact polarizability:  80.230   4.002  71.835  -0.783   0.843  69.433
 Approx polarizability: 111.619   3.268 106.946  -1.416  -4.755 109.985

                      1                      2                      3
                      A                      A                      A
 Frequencies --    133.2237               202.2637               232.4873
 Red. masses --      3.3477                 3.1199                 1.4013
 Frc consts  --      0.0350                 0.0752                 0.0446
 IR Inten    --      0.3874                 7.4471                 2.2995

                      4                      5                      6
                      A                      A                      A
 Frequencies --    285.0564               342.0220               379.2343
 Red. masses --      1.4938                 2.4650                 2.3577
 Frc consts  --      0.0715                 0.1699                 0.1998
 IR Inten    --      1.1373                 3.5953                 2.5265

                      7                      8                      9
                      A                      A                      A
 Frequencies --    429.3116               469.3383               558.2419
 Red. masses --      2.8625                 3.2628                 3.7903
 Frc consts  --      0.3108                 0.4235                 0.6959
 IR Inten    --      3.8805                 0.4252                 9.7214

                     10                     11                     12
                      A                      A                      A
 Frequencies --    633.6577               643.4268               763.9126
 Red. masses --      4.8247                 3.7816                 2.9527
 Frc consts  --      1.1414                 0.9224                 1.0152
 IR Inten    --      1.5065                 0.7660                 0.6877

                     13                     14                     15
                      A                      A                      A
 Frequencies --    834.1392               842.4563               874.9081
 Red. masses --      3.1658                 4.0199                 3.5430
 Frc consts  --      1.2978                 1.6810                 1.5979
 IR Inten    --     17.6761                39.5792                 3.0202

                     16                     17                     18
                      A                      A                      A
 Frequencies --    898.1638               918.2834               954.3500
 Red. masses --      4.1687                 2.2060                 1.7234
 Frc consts  --      1.9814                 1.0960                 0.9248
 IR Inten    --     23.0194                11.5339                 6.2327

                     19                     20                     21
                      A                      A                      A
 Frequencies --    972.3232              1025.2661              1037.6318
 Red. masses --      1.8622                 2.1906                 2.3252
 Frc consts  --      1.0373                 1.3567                 1.4750
 IR Inten    --      4.0501                29.6710                20.1538

                     22                     23                     24
                      A                      A                      A
 Frequencies --   1052.3432              1055.7888              1080.2936
 Red. masses --      1.8574                 1.7231                 1.6449
 Frc consts  --      1.2119                 1.1317                 1.1311
 IR Inten    --     27.0701                27.6211                18.3420

                     25                     26                     27
                      A                      A                      A
 Frequencies --   1115.8736              1164.4444              1211.3749
 Red. masses --      2.3420                 1.9586                 1.6236
 Frc consts  --      1.7182                 1.5647                 1.4037
 IR Inten    --      2.7894                13.5644                 7.0247

                     28                     29                     30
                      A                      A                      A
 Frequencies --   1220.6122              1249.8623              1294.7778
 Red. masses --      1.3085                 1.6056                 1.5480
 Frc consts  --      1.1486                 1.4778                 1.5290
 IR Inten    --     11.4823                25.6291                16.7140

                     31                     32                     33
                      A                      A                      A
 Frequencies --   1297.1244              1351.1264              1361.6153
 Red. masses --      1.8136                 1.7002                 2.9033
 Frc consts  --      1.7979                 1.8287                 3.1714
 IR Inten    --      2.2229                14.2381                 0.9351

                     34                     35                     36
                      A                      A                      A
 Frequencies --   1383.8381              1387.2123              1408.4653
 Red. masses --      1.4162                 1.4503                 1.3536
 Frc consts  --      1.5979                 1.6443                 1.5820
 IR Inten    --      5.7028                 4.1575                13.3630

                     37                     38                     39
                      A                      A                      A
 Frequencies --   1468.5563              1482.9240              1492.1249
 Red. masses --      1.3903                 1.0642                 1.0552
 Frc consts  --      1.7666                 1.3789                 1.3842
 IR Inten    --      8.4882                 2.8747                 2.6273

                     40                     41                     42
                      A                      A                      A
 Frequencies --   1511.6576              1522.1468              2994.8183
 Red. masses --      1.0833                 1.0913                 1.0671
 Frc consts  --      1.4585                 1.4897                 5.6388
 IR Inten    --      0.7068                 2.2742                54.7735

                     43                     44                     45
                      A                      A                      A
 Frequencies --   3006.1394              3022.4883              3038.7372
 Red. masses --      1.0675                 1.0842                 1.0367
 Frc consts  --      5.6837                 5.8358                 5.6403
 IR Inten    --     53.4727                49.2551                17.4395

                     46                     47                     48
                      A                      A                      A
 Frequencies --   3076.7871              3083.2256              3110.0921
 Red. masses --      1.0960                 1.0959                 1.1001
 Frc consts  --      6.1130                 6.1382                 6.2692
 IR Inten    --     35.7660                35.1188                14.3271

                     49                     50                     51
                      A                      A                      A
 Frequencies --   3123.2422              3131.1474              3226.7089
 Red. masses --      1.1019                 1.0543                 1.1180
 Frc consts  --      6.3330                 6.0900                 6.8579
 IR Inten    --     24.6963                 8.1302                 3.0699

 - Thermochemistry -
 -------------------
 Temperature   298.150 Kelvin.  Pressure   1.00000 Atm.
 Atom     1 has atomic number  6 and mass  12.00000

 Molecular mass:   126.06808 amu.
 Principal axes and moments of inertia in atomic units:
                           1         2         3
     Eigenvalues --   654.751481079.794961218.59773
           X            0.99761   0.06913   0.00152
           Y           -0.06904   0.99469   0.07629
           Z            0.00376  -0.07621   0.99708
 This molecule is an asymmetric top.
 Rotational symmetry number  1.
 Warning -- assumption of classical behavior for rotation
           may cause significant error
 Rotational temperatures (Kelvin)      0.13229     0.08021     0.07108
 Rotational constants (GHZ):           2.75638     1.67137     1.48100
 Zero-point vibrational energy     420817.8 (Joules/Mol)
                                  100.57787 (Kcal/Mol)
 Warning -- explicit consideration of   9 degrees of freedom as
           vibrations may cause significant error
 Vibrational temperatures:    191.68   291.01   334.50   410.13   492.09
          (Kelvin)            545.63   617.68   675.27   803.18   911.69
                              925.75  1099.10  1200.14  1212.11  1258.80
                             1292.26  1321.20  1373.10  1398.95  1475.13
                             1492.92  1514.09  1519.04  1554.30  1605.49
                             1675.37  1742.90  1756.19  1798.27  1862.89
                             1866.27  1943.97  1959.06  1991.03  1995.89
                             2026.46  2112.92  2133.59  2146.83  2174.94
                             2190.03  4308.87  4325.16  4348.68  4372.06
                             4426.80  4436.07  4474.72  4493.64  4505.02
                             4642.51

 Zero-point correction=                           0.160281 (Hartree/Particle)
 Thermal correction to Energy=                    0.167792
 Thermal correction to Enthalpy=                  0.168736
 Thermal correction to Gibbs Free Energy=         0.128716
 Sum of electronic and zero-point Energies=           -422.973583
 Sum of electronic and thermal Energies=              -422.966072
 Sum of electronic and thermal Enthalpies=            -422.965128
 Sum of electronic and thermal Free Energies=         -423.005148

                     E (Thermal)             CV                S
                      KCal/Mol        Cal/Mol-Kelvin    Cal/Mol-Kelvin
 Total                  105.291             30.251             84.229
 Electronic               0.000              0.000              0.000
 Translational            0.889              2.981             40.409
 Rotational               0.889              2.981             28.246
 Vibrational            103.514             24.289             15.574
 Vibration     1          0.613              1.920              2.899
 Vibration     2          0.639              1.837              2.112
 Vibration     3          0.653              1.791              1.860
 Vibration     4          0.683              1.701              1.503
 Vibration     5          0.721              1.591              1.203
 Vibration     6          0.749              1.514              1.042
 Vibration     7          0.791              1.406              0.861
 Vibration     8          0.826              1.318              0.739
 Vibration     9          0.914              1.122              0.527

 Optimization completed.
    -- Stationary point found.
 Normal termination of Gaussian 09 at Tue Jan 28 03:41:41 2020.
