 Gaussian 09, Revision D.01,
 Gaussian 09:  ES64L-G09RevD.01 24-Apr-2013

 -----------------------------
 # b3lyp 6-31G(2df,p) opt Freq
 -----------------------------

 -----
 titel
 -----
 Symbolic Z-matrix:
 Charge =  0 Multiplicity = 1

 SCF Done:  E(RB3LYP) =  -423.202939062     A.U. after   14 cycles
 Optimization completed.
    -- Stationary point found.
 Normal termination of Gaussian 09 at Tue Jan 28 12:39:43 2020.

 ----------------------------------------------------------------------
 #N Geom=AllCheck Guess=TCheck SCRF=Check GenChk RB3LYP/6-31G(2df,p) Fr
 eq
 ----------------------------------------------------------------------

 Structure from the checkpoint file:  "/scratch/puck/g09_b43ca2d3-0cd8-4dd7-98dd-f2e8e235feb8/Gau-94036.chk"
 -----
 titel
 -----
 Charge =  0 Multiplicity = 1

                         Standard orientation:
 ---------------------------------------------------------------------
 Center     Atomic      Atomic             Coordinates (Angstroms)
 Number     Number       Type             X           Y           Z
 ---------------------------------------------------------------------
      1          8           0       -3.171541   -0.404555    0.768743
      2          6           0       -2.418922   -0.674158   -0.411637
      3          6           0       -1.037877   -0.094050   -0.348417
      4          6           0        0.111050   -0.755108   -0.508130
      5          6           0        1.326411    0.149718   -0.423399
      6          6           0        0.720634    1.468708    0.141157
      7          6           0       -0.802143    1.383015   -0.121350
      8          6           0        2.394363   -0.419596    0.491109
      9          8           0        3.506145   -0.732767    0.155508
     10          1           0       -2.706581   -0.817213    1.504327
     11          1           0       -2.369379   -1.752468   -0.622598
     12          1           0       -2.989908   -0.207860   -1.223884
     13          1           0        0.194289   -1.815569   -0.723615
     14          1           0        1.788432    0.285434   -1.409056
     15          1           0        0.902443    1.512774    1.221747
     16          1           0        1.187506    2.352904   -0.297311
     17          1           0       -1.401218    1.775633    0.705582
     18          1           0       -1.097836    1.952483   -1.013790
     19          1           0        2.054326   -0.538714    1.548590
 ---------------------------------------------------------------------

 SCF Done:  E(RB3LYP) =  -423.202939062     A.U. after    1 cycles

 The electronic state is 1-A.
 Alpha  occ. eigenvalues --  -19.14390 -19.13991 -10.26979 -10.23877 -10.20206
 Alpha  occ. eigenvalues --  -10.19785 -10.19743 -10.19425 -10.19281  -1.04693
 Alpha  occ. eigenvalues --   -1.02338  -0.86057  -0.75828  -0.72680  -0.67413
 Alpha  occ. eigenvalues --   -0.61362  -0.57339  -0.53857  -0.51950  -0.48313
 Alpha  occ. eigenvalues --   -0.47164  -0.45115  -0.43853  -0.42679  -0.40866
 Alpha  occ. eigenvalues --   -0.39246  -0.36569  -0.36241  -0.35393  -0.35247
 Alpha  occ. eigenvalues --   -0.33129  -0.28021  -0.26453  -0.24378
 Alpha virt. eigenvalues --   -0.02869   0.01062   0.07900   0.09625   0.10930
 Alpha virt. eigenvalues --    0.12114   0.13520   0.13615   0.15906   0.16009
 Alpha virt. eigenvalues --    0.17750   0.17951   0.19048   0.20665   0.21852

 Mulliken charges:
               1
     1  O   -0.410526
     2  C   -0.168955
     3  C    0.296174
     4  C   -0.207328
     5  C   -0.091028
     6  C   -0.250322
     7  C   -0.296975
     8  C    0.157831
     9  O   -0.248405
    10  H    0.283209
    11  H    0.096033
    12  H    0.118302
    13  H    0.102772
    14  H    0.097918
    15  H    0.107527
    16  H    0.114836
    17  H    0.120395
    18  H    0.111034
    19  H    0.067507
 Sum of Mulliken charges =   0.00000

 Dipole moment (field-independent basis, Debye):
    X=             -1.6130    Y=              0.3360    Z=              0.1889  Tot=              1.6585
 Quadrupole moment (field-independent basis, Debye-Ang):
   XX=            -72.8376   YY=            -50.7473   ZZ=            -50.1316
   XY=              4.7486   XZ=              1.3316   YZ=             -1.1135

  Exact polarizability: 102.921  -6.240  72.501  -1.196   0.832  64.098
 Approx polarizability: 146.707 -18.239 107.033  -7.652   2.165  98.928

                      1                      2                      3
                      A                      A                      A
 Frequencies --     48.8867                68.7314               102.3440
 Red. masses --      5.5114                 4.2282                 2.3519
 Frc consts  --      0.0078                 0.0118                 0.0145
 IR Inten    --      4.7027                 6.2867                 0.4908

                      4                      5                      6
                      A                      A                      A
 Frequencies --    134.8345               225.6074               295.8407
 Red. masses --      3.0104                 2.7510                 1.9254
 Frc consts  --      0.0322                 0.0825                 0.0993
 IR Inten    --      0.5615                 1.2972                17.2531

                      7                      8                      9
                      A                      A                      A
 Frequencies --    334.7914               387.7138               394.4350
 Red. masses --      1.6575                 2.9032                 1.9447
 Frc consts  --      0.1095                 0.2571                 0.1783
 IR Inten    --     54.3983                17.0018                46.0736

                     10                     11                     12
                      A                      A                      A
 Frequencies --    434.5184               531.5627               616.6391
 Red. masses --      3.8948                 3.1179                 2.5675
 Frc consts  --      0.4333                 0.5191                 0.5752
 IR Inten    --     13.7077                 0.7092                17.6344

                     13                     14                     15
                      A                      A                      A
 Frequencies --    706.5886               836.8358               869.3186
 Red. masses --      2.7218                 2.3071                 1.3493
 Frc consts  --      0.8007                 0.9519                 0.6008
 IR Inten    --      4.1475                 0.6265                22.6156

                     16                     17                     18
                      A                      A                      A
 Frequencies --    888.6506               907.7159               933.0098
 Red. masses --      2.7773                 2.1628                 2.2647
 Frc consts  --      1.2922                 1.0499                 1.1615
 IR Inten    --      3.4782                 0.2857                 0.1628

                     19                     20                     21
                      A                      A                      A
 Frequencies --    980.8448               988.9784              1016.4596
 Red. masses --      1.7307                 2.3268                 2.0487
 Frc consts  --      0.9810                 1.3408                 1.2471
 IR Inten    --     28.9627                17.5813                19.3941

                     22                     23                     24
                      A                      A                      A
 Frequencies --   1053.2468              1084.6833              1094.4301
 Red. masses --      4.7899                 2.4306                 1.8738
 Frc consts  --      3.1307                 1.6849                 1.3224
 IR Inten    --     57.1996                12.8586                11.2294

                     25                     26                     27
                      A                      A                      A
 Frequencies --   1166.0621              1185.8545              1195.7753
 Red. masses --      1.6640                 1.5541                 1.1574
 Frc consts  --      1.3331                 1.2876                 0.9750
 IR Inten    --     12.2884                 6.6517                11.3021

                     28                     29                     30
                      A                      A                      A
 Frequencies --   1239.5965              1264.9363              1281.0975
 Red. masses --      1.3393                 1.3616                 1.3622
 Frc consts  --      1.2125                 1.2836                 1.3172
 IR Inten    --      4.3470                 5.3914                 1.2505

                     31                     32                     33
                      A                      A                      A
 Frequencies --   1293.8547              1333.8406              1354.6519
 Red. masses --      1.5173                 1.5461                 1.5292
 Frc consts  --      1.4966                 1.6207                 1.6534
 IR Inten    --      1.0726                 0.1759                 1.8251

                     34                     35                     36
                      A                      A                      A
 Frequencies --   1382.5109              1413.9965              1421.1546
 Red. masses --      1.4060                 1.2298                 1.1871
 Frc consts  --      1.5834                 1.4487                 1.4126
 IR Inten    --      1.0153                69.1585                 3.3815

                     37                     38                     39
                      A                      A                      A
 Frequencies --   1482.7154              1496.1937              1498.9049
 Red. masses --      1.0795                 1.0879                 1.0970
 Frc consts  --      1.3983                 1.4348                 1.4521
 IR Inten    --      1.1610                 1.2399                 2.4254

                     40                     41                     42
                      A                      A                      A
 Frequencies --   1707.7133              1834.4653              2838.7286
 Red. masses --      7.5938                10.4830                 1.0815
 Frc consts  --     13.0478                20.7852                 5.1348
 IR Inten    --      1.2912               230.5160                98.6799

                     43                     44                     45
                      A                      A                      A
 Frequencies --   2996.3737              3012.4342              3033.3558
 Red. masses --      1.0645                 1.0713                 1.0796
 Frc consts  --      5.6309                 5.7279                 5.8529
 IR Inten    --     52.8279                26.1751                13.2052

                     46                     47                     48
                      A                      A                      A
 Frequencies --   3037.4558              3054.0034              3081.5200
 Red. masses --      1.0720                 1.0976                 1.0896
 Frc consts  --      5.8272                 6.0314                 6.0959
 IR Inten    --     27.8223                27.8226                17.1399

                     49                     50                     51
                      A                      A                      A
 Frequencies --   3109.9520              3184.6732              3808.9671
 Red. masses --      1.0967                 1.0933                 1.0663
 Frc consts  --      6.2492                 6.5329                 9.1144
 IR Inten    --     25.7909                10.1053                15.4661

 - Thermochemistry -
 -------------------
 Temperature   298.150 Kelvin.  Pressure   1.00000 Atm.
 Atom     1 has atomic number  8 and mass  15.99491

 Molecular mass:   126.06808 amu.
 Principal axes and moments of inertia in atomic units:
                           1         2         3
     Eigenvalues --   468.729102191.600802416.57869
           X            0.99993   0.01118   0.00457
           Y           -0.01123   0.99989   0.00994
           Z           -0.00446  -0.00999   0.99994
 This molecule is an asymmetric top.
 Rotational symmetry number  1.
 Warning -- assumption of classical behavior for rotation
           may cause significant error
 Rotational temperatures (Kelvin)      0.18478     0.03952     0.03584
 Rotational constants (GHZ):           3.85029     0.82348     0.74682
 Zero-point vibrational energy     416584.3 (Joules/Mol)
                                   99.56603 (Kcal/Mol)
 Warning -- explicit consideration of  12 degrees of freedom as
           vibrations may cause significant error
 Vibrational temperatures:     70.34    98.89   147.25   194.00   324.60
          (Kelvin)            425.65   481.69   557.83   567.50   625.17
                              764.80   887.20  1016.62  1204.02  1250.75
                             1278.57  1306.00  1342.39  1411.22  1422.92
                             1462.46  1515.39  1560.62  1574.64  1677.70
                             1706.18  1720.45  1783.50  1819.96  1843.21
                             1861.57  1919.10  1949.04  1989.12  2034.42
                             2044.72  2133.29  2152.69  2156.59  2457.02
                             2639.38  4084.29  4311.11  4334.22  4364.32
                             4370.22  4394.02  4433.61  4474.52  4582.03
                             5480.25

 Zero-point correction=                           0.158669 (Hartree/Particle)
 Thermal correction to Energy=                    0.167881
 Thermal correction to Enthalpy=                  0.168825
 Thermal correction to Gibbs Free Energy=         0.123494
 Sum of electronic and zero-point Energies=           -423.044270
 Sum of electronic and thermal Energies=              -423.035059
 Sum of electronic and thermal Enthalpies=            -423.034114
 Sum of electronic and thermal Free Energies=         -423.079445

                     E (Thermal)             CV                S
                      KCal/Mol        Cal/Mol-Kelvin    Cal/Mol-Kelvin
 Total                  105.347             33.039             95.406
 Electronic               0.000              0.000              0.000
 Translational            0.889              2.981             40.409
 Rotational               0.889              2.981             29.297
 Vibrational            103.569             27.078             25.700
 Vibration     1          0.595              1.978              4.862
 Vibration     2          0.598              1.969              4.189
 Vibration     3          0.604              1.947              3.409
 Vibration     4          0.613              1.919              2.876
 Vibration     5          0.650              1.802              1.914
 Vibration     6          0.690              1.681              1.440
 Vibration     7          0.716              1.606              1.237
 Vibration     8          0.756              1.496              1.009
 Vibration     9          0.761              1.482              0.983
 Vibration    10          0.795              1.395              0.844
 Vibration    11          0.887              1.180              0.584
 Vibration    12          0.976              0.997              0.422

 Optimization completed.
    -- Stationary point found.
 Normal termination of Gaussian 09 at Tue Jan 28 13:20:12 2020.
