 Gaussian 09, Revision D.01,
 Gaussian 09:  ES64L-G09RevD.01 24-Apr-2013

 -----------------------------
 # b3lyp 6-31G(2df,p) opt Freq
 -----------------------------

 -----
 titel
 -----
 Symbolic Z-matrix:
 Charge =  0 Multiplicity = 1

 SCF Done:  E(RB3LYP) =  -423.210652478     A.U. after   14 cycles
 Optimization completed.
    -- Stationary point found.
 Normal termination of Gaussian 09 at Tue Jan 28 03:16:30 2020.

 ----------------------------------------------------------------------
 #N Geom=AllCheck Guess=TCheck SCRF=Check GenChk RB3LYP/6-31G(2df,p) Fr
 eq
 ----------------------------------------------------------------------

 Structure from the checkpoint file:  "/scratch/puck/g09_65ef0d83-9e43-40db-af42-3c1f1fdd5fb0/Gau-79158.chk"
 -----
 titel
 -----
 Charge =  0 Multiplicity = 1

                         Standard orientation:
 ---------------------------------------------------------------------
 Center     Atomic      Atomic             Coordinates (Angstroms)
 Number     Number       Type             X           Y           Z
 ---------------------------------------------------------------------
      1          6           0        2.656807    0.159812   -0.113054
      2          6           0        1.277141   -0.304381    0.349118
      3          6           0        0.669945   -1.492955   -0.443112
      4          6           0       -0.842561   -1.269787   -0.453092
      5          6           0       -1.493503   -1.014035    0.879163
      6          6           0       -1.124369    0.161331   -0.002312
      7          8           0       -2.109431    0.987801   -0.504623
      8          6           0        0.208769    0.783536    0.216637
      9          8           0        0.386126    1.981038    0.153438
     10          1           0        2.645356    0.415766   -1.177299
     11          1           0        2.965866    1.051346    0.438335
     12          1           0        3.404263   -0.623915    0.041214
     13          1           0        1.334364   -0.564666    1.415599
     14          1           0        1.050739   -1.472762   -1.470689
     15          1           0        0.944047   -2.462490   -0.013059
     16          1           0       -1.442421   -1.714541   -1.238620
     17          1           0       -2.563598   -1.183317    0.931126
     18          1           0       -0.957694   -1.207796    1.803647
     19          1           0       -1.707856    1.870530   -0.520879
 ---------------------------------------------------------------------

 SCF Done:  E(RB3LYP) =  -423.210652478     A.U. after    1 cycles

 The electronic state is 1-A.
 Alpha  occ. eigenvalues --  -19.14494 -19.13956 -10.26868 -10.24668 -10.20508
 Alpha  occ. eigenvalues --  -10.20391 -10.19848 -10.19830 -10.18289  -1.05800
 Alpha  occ. eigenvalues --   -1.02513  -0.88724  -0.79395  -0.70459  -0.67757
 Alpha  occ. eigenvalues --   -0.61546  -0.57077  -0.55790  -0.50869  -0.48950
 Alpha  occ. eigenvalues --   -0.46324  -0.45184  -0.42627  -0.41041  -0.40467
 Alpha  occ. eigenvalues --   -0.39976  -0.37767  -0.36469  -0.35628  -0.34627
 Alpha  occ. eigenvalues --   -0.33650  -0.30975  -0.25416  -0.24070
 Alpha virt. eigenvalues --   -0.02043   0.08215   0.09409   0.11126   0.11426
 Alpha virt. eigenvalues --    0.12744   0.14462   0.15353   0.17053   0.17477
 Alpha virt. eigenvalues --    0.17666   0.19270   0.20367   0.21586   0.23458

 Mulliken charges:
               1
     1  C   -0.401461
     2  C   -0.111291
     3  C   -0.233940
     4  C   -0.111990
     5  C   -0.348062
     6  C    0.355394
     7  O   -0.475226
     8  C    0.338978
     9  O   -0.361719
    10  H    0.124156
    11  H    0.136369
    12  H    0.115122
    13  H    0.107225
    14  H    0.111079
    15  H    0.105495
    16  H    0.105500
    17  H    0.133979
    18  H    0.115422
    19  H    0.294969
 Sum of Mulliken charges =   0.00000

 Dipole moment (field-independent basis, Debye):
    X=              0.9668    Y=             -2.3941    Z=              0.3328  Tot=              2.6033
 Quadrupole moment (field-independent basis, Debye-Ang):
   XX=            -54.8494   YY=            -55.8667   ZZ=            -51.5794
   XY=             -0.7119   XZ=             -0.6649   YZ=             -0.6376

  Exact polarizability:  84.250   2.235  80.678  -0.815  -1.175  62.133
 Approx polarizability: 110.579   4.655 129.860   0.463  -2.663  97.731

                      1                      2                      3
                      A                      A                      A
 Frequencies --     86.8758               159.1021               194.7698
 Red. masses --      4.9290                 2.8358                 1.0534
 Frc consts  --      0.0219                 0.0423                 0.0235
 IR Inten    --      0.2023                 1.9171                 0.2405

                      4                      5                      6
                      A                      A                      A
 Frequencies --    236.1613               291.0651               315.2309
 Red. masses --      2.9172                 4.6586                 2.5628
 Frc consts  --      0.0959                 0.2325                 0.1500
 IR Inten    --      0.8355                25.2046                 0.6245

                      7                      8                      9
                      A                      A                      A
 Frequencies --    352.8203               376.3395               447.6293
 Red. masses --      1.3922                 2.6668                 2.0681
 Frc consts  --      0.1021                 0.2225                 0.2441
 IR Inten    --     57.4713                 1.8473                 5.8000

                     10                     11                     12
                      A                      A                      A
 Frequencies --    510.1970               518.4436               584.5858
 Red. masses --      4.2825                 3.6093                 3.6451
 Frc consts  --      0.6568                 0.5716                 0.7339
 IR Inten    --      2.3860                 5.5143                 6.6534

                     13                     14                     15
                      A                      A                      A
 Frequencies --    674.4472               756.4156               825.4114
 Red. masses --      4.5285                 3.5546                 1.8520
 Frc consts  --      1.2137                 1.1983                 0.7434
 IR Inten    --      4.1471                 6.0669                 3.7394

                     16                     17                     18
                      A                      A                      A
 Frequencies --    846.5201               885.2298               907.3907
 Red. masses --      2.5353                 2.3650                 2.0052
 Frc consts  --      1.0704                 1.0919                 0.9727
 IR Inten    --      7.4684                 7.6133                 6.5330

                     19                     20                     21
                      A                      A                      A
 Frequencies --    924.3903               981.8771               996.1490
 Red. masses --      1.8885                 1.4403                 2.0603
 Frc consts  --      0.9508                 0.8181                 1.2046
 IR Inten    --      3.9402                 1.8578                27.7984

                     22                     23                     24
                      A                      A                      A
 Frequencies --   1052.0475              1054.0009              1081.4476
 Red. masses --      1.2534                 1.4326                 2.0290
 Frc consts  --      0.8174                 0.9377                 1.3981
 IR Inten    --      2.5217                 4.5694                40.1593

                     25                     26                     27
                      A                      A                      A
 Frequencies --   1083.4611              1134.6762              1145.4880
 Red. masses --      1.9561                 2.2002                 1.9224
 Frc consts  --      1.3529                 1.6690                 1.4862
 IR Inten    --     20.0164                 5.5269                 3.1929

                     28                     29                     30
                      A                      A                      A
 Frequencies --   1207.2197              1220.0703              1283.0468
 Red. masses --      1.5700                 1.6274                 1.5383
 Frc consts  --      1.3481                 1.4273                 1.4921
 IR Inten    --     45.0506                78.3138                 5.0104

                     31                     32                     33
                      A                      A                      A
 Frequencies --   1301.9082              1322.8970              1355.0394
 Red. masses --      1.3767                 1.8292                 1.8408
 Frc consts  --      1.3748                 1.8861                 1.9914
 IR Inten    --      1.0660                 6.7420                32.1421

                     34                     35                     36
                      A                      A                      A
 Frequencies --   1398.0924              1411.9232              1433.4109
 Red. masses --      2.3904                 1.2701                 1.4857
 Frc consts  --      2.7529                 1.4918                 1.7986
 IR Inten    --     45.3712                12.3120                40.0937

                     37                     38                     39
                      A                      A                      A
 Frequencies --   1484.3919              1492.5226              1496.4777
 Red. masses --      1.3628                 1.0947                 1.0505
 Frc consts  --      1.7692                 1.4367                 1.3860
 IR Inten    --      3.4594                 8.2197                 2.8578

                     40                     41                     42
                      A                      A                      A
 Frequencies --   1500.3320              1805.5569              3008.0116
 Red. masses --      1.1402                12.3576                 1.0810
 Frc consts  --      1.5122                23.7359                 5.7630
 IR Inten    --      0.6572               221.2474                 7.8291

                     43                     44                     45
                      A                      A                      A
 Frequencies --   3034.8708              3042.5438              3075.4989
 Red. masses --      1.0576                 1.0364                 1.1052
 Frc consts  --      5.7394                 5.6525                 6.1594
 IR Inten    --     29.4462                30.9436                22.0601

                     46                     47                     48
                      A                      A                      A
 Frequencies --   3110.6332              3121.4325              3124.9297
 Red. masses --      1.1019                 1.0552                 1.1013
 Frc consts  --      6.2821                 6.0575                 6.3362
 IR Inten    --     23.3762                11.9701                13.3258

                     49                     50                     51
                      A                      A                      A
 Frequencies --   3182.6880              3216.3537              3709.0290
 Red. masses --      1.0917                 1.1146                 1.0650
 Frc consts  --      6.5157                 6.7935                 8.6320
 IR Inten    --      6.8720                 5.3814                53.9739

 - Thermochemistry -
 -------------------
 Temperature   298.150 Kelvin.  Pressure   1.00000 Atm.
 Atom     1 has atomic number  6 and mass  12.00000

 Molecular mass:   126.06808 amu.
 Principal axes and moments of inertia in atomic units:
                           1         2         3
     Eigenvalues --   706.227781108.535371582.98916
           X            0.99992   0.00574  -0.01119
           Y           -0.00581   0.99997  -0.00601
           Z            0.01116   0.00607   0.99992
 This molecule is an asymmetric top.
 Rotational symmetry number  1.
 Warning -- assumption of classical behavior for rotation
           may cause significant error
 Rotational temperatures (Kelvin)      0.12264     0.07813     0.05472
 Rotational constants (GHZ):           2.55547     1.62804     1.14008
 Zero-point vibrational energy     417263.8 (Joules/Mol)
                                   99.72843 (Kcal/Mol)
 Warning -- explicit consideration of  12 degrees of freedom as
           vibrations may cause significant error
 Vibrational temperatures:    124.99   228.91   280.23   339.78   418.78
          (Kelvin)            453.55   507.63   541.47   644.04   734.06
                              745.92   841.09   970.38  1088.31  1187.58
                             1217.95  1273.65  1305.53  1329.99  1412.70
                             1433.23  1513.66  1516.47  1555.96  1558.86
                             1632.54  1648.10  1736.92  1755.41  1846.02
                             1873.15  1903.35  1949.60  2011.54  2031.44
                             2062.36  2135.71  2147.40  2153.09  2158.64
                             2597.79  4327.85  4366.50  4377.54  4424.95
                             4475.50  4491.04  4496.07  4579.17  4627.61
                             5336.46

 Zero-point correction=                           0.158927 (Hartree/Particle)
 Thermal correction to Energy=                    0.167470
 Thermal correction to Enthalpy=                  0.168414
 Thermal correction to Gibbs Free Energy=         0.126090
 Sum of electronic and zero-point Energies=           -423.051725
 Sum of electronic and thermal Energies=              -423.043182
 Sum of electronic and thermal Enthalpies=            -423.042238
 Sum of electronic and thermal Free Energies=         -423.084563

                     E (Thermal)             CV                S
                      KCal/Mol        Cal/Mol-Kelvin    Cal/Mol-Kelvin
 Total                  105.089             33.108             89.079
 Electronic               0.000              0.000              0.000
 Translational            0.889              2.981             40.409
 Rotational               0.889              2.981             28.607
 Vibrational            103.312             27.146             20.064
 Vibration     1          0.601              1.958              3.729
 Vibration     2          0.621              1.892              2.560
 Vibration     3          0.635              1.847              2.182
 Vibration     4          0.655              1.785              1.832
 Vibration     5          0.687              1.690              1.468
 Vibration     6          0.703              1.645              1.335
 Vibration     7          0.729              1.569              1.154
 Vibration     8          0.747              1.521              1.054
 Vibration     9          0.807              1.366              0.803
 Vibration    10          0.865              1.227              0.633
 Vibration    11          0.873              1.209              0.614
 Vibration    12          0.942              1.065              0.477

 Optimization completed.
    -- Stationary point found.
 Normal termination of Gaussian 09 at Tue Jan 28 03:59:53 2020.
