 Gaussian 09, Revision D.01,
 Gaussian 09:  ES64L-G09RevD.01 24-Apr-2013

 -----------------------------
 # b3lyp 6-31G(2df,p) opt Freq
 -----------------------------

 -----
 titel
 -----
 Symbolic Z-matrix:
 Charge =  0 Multiplicity = 1

 SCF Done:  E(RB3LYP) =  -423.143214350     A.U. after   14 cycles
 Optimization completed.
    -- Stationary point found.
 Normal termination of Gaussian 09 at Mon Jan 27 12:14:59 2020.

 ----------------------------------------------------------------------
 #N Geom=AllCheck Guess=TCheck SCRF=Check GenChk RB3LYP/6-31G(2df,p) Fr
 eq
 ----------------------------------------------------------------------

 Structure from the checkpoint file:  "/scratch/puck/g09_322493d7-7db2-414b-b58e-e256634af6db/Gau-71741.chk"
 -----
 titel
 -----
 Charge =  0 Multiplicity = 1

                         Standard orientation:
 ---------------------------------------------------------------------
 Center     Atomic      Atomic             Coordinates (Angstroms)
 Number     Number       Type             X           Y           Z
 ---------------------------------------------------------------------
      1          6           0       -1.905856    0.546254   -0.284296
      2          8           0       -1.751848   -0.481674    0.750948
      3          6           0       -0.392217   -0.014976    0.964553
      4          6           0        0.942411   -0.741883    0.789361
      5          6           0        1.796391    0.546659    0.447568
      6          6           0        0.837749    1.502365   -0.402311
      7          6           0       -0.372652    0.584010   -0.426242
      8          8           0       -0.026587   -0.515587   -1.293761
      9          6           0        0.701404   -1.482395   -0.519527
     10          1           0       -2.465031    0.179896   -1.146958
     11          1           0       -2.360415    1.455410    0.128172
     12          1           0       -0.370058    0.707032    1.789688
     13          1           0        1.347036   -1.340710    1.605670
     14          1           0        2.120910    1.044954    1.364641
     15          1           0        2.693711    0.268802   -0.110227
     16          1           0        0.656704    2.447693    0.116427
     17          1           0        1.238666    1.712101   -1.395025
     18          1           0        0.096423   -2.387668   -0.380149
     19          1           0        1.626162   -1.749628   -1.044371
 ---------------------------------------------------------------------

 SCF Done:  E(RB3LYP) =  -423.143214350     A.U. after    1 cycles

 The electronic state is 1-A.
 Alpha  occ. eigenvalues --  -19.13767 -19.13158 -10.23471 -10.23138 -10.22653
 Alpha  occ. eigenvalues --  -10.22329 -10.19970 -10.19658 -10.19175  -1.05988
 Alpha  occ. eigenvalues --   -1.00593  -0.82689  -0.76243  -0.69660  -0.67189
 Alpha  occ. eigenvalues --   -0.63509  -0.57294  -0.54785  -0.50989  -0.49348
 Alpha  occ. eigenvalues --   -0.46523  -0.45830  -0.43060  -0.41425  -0.39719
 Alpha  occ. eigenvalues --   -0.37916  -0.36550  -0.35820  -0.34515  -0.32165
 Alpha  occ. eigenvalues --   -0.31874  -0.27784  -0.25727  -0.24392
 Alpha virt. eigenvalues --    0.07228   0.07952   0.09950   0.11695   0.13564
 Alpha virt. eigenvalues --    0.14106   0.14439   0.15347   0.15888   0.16503
 Alpha virt. eigenvalues --    0.17687   0.18531   0.18907   0.20327   0.21554

 Mulliken charges:
               1
     1  C   -0.180725
     2  O   -0.319708
     3  C    0.138674
     4  C   -0.122780
     5  C   -0.215392
     6  C   -0.312947
     7  C    0.394153
     8  O   -0.312831
     9  C   -0.076839
    10  H    0.121354
    11  H    0.100429
    12  H    0.077581
    13  H    0.073852
    14  H    0.107582
    15  H    0.111773
    16  H    0.101528
    17  H    0.112417
    18  H    0.105273
    19  H    0.096607
 Sum of Mulliken charges =   0.00000

 Dipole moment (field-independent basis, Debye):
    X=              1.6537    Y=              1.2357    Z=              0.7337  Tot=              2.1909
 Quadrupole moment (field-independent basis, Debye-Ang):
   XX=            -53.0445   YY=            -51.2528   ZZ=            -55.1142
   XY=             -3.3694   XZ=              2.4073   YZ=              0.2868

  Exact polarizability:  81.552  -3.154  74.147   2.419   1.345  65.995
 Approx polarizability: 114.068  -2.668 107.861   2.218   0.952 104.589

                      1                      2                      3
                      A                      A                      A
 Frequencies --    189.7332               276.3608               310.6163
 Red. masses --      2.2885                 3.6927                 2.3177
 Frc consts  --      0.0485                 0.1662                 0.1317
 IR Inten    --      2.6423                 3.9463                 3.2438

                      4                      5                      6
                      A                      A                      A
 Frequencies --    353.0292               408.4182               430.6017
 Red. masses --      2.2828                 3.3904                 2.6780
 Frc consts  --      0.1676                 0.3332                 0.2926
 IR Inten    --      1.6130                 1.6496                 4.0517

                      7                      8                      9
                      A                      A                      A
 Frequencies --    568.7972               646.2038               722.0914
 Red. masses --      4.4439                 4.3032                 5.5362
 Frc consts  --      0.8471                 1.0587                 1.7008
 IR Inten    --      0.8587                 0.8344                10.0368

                     10                     11                     12
                      A                      A                      A
 Frequencies --    785.7723               817.8020               834.6449
 Red. masses --      1.6574                 2.3472                 4.8760
 Frc consts  --      0.6029                 0.9249                 2.0013
 IR Inten    --      1.4630                 3.2994                13.7907

                     13                     14                     15
                      A                      A                      A
 Frequencies --    842.7415               874.3238               881.4230
 Red. masses --      3.1289                 2.5021                 3.2069
 Frc consts  --      1.3093                 1.1270                 1.4679
 IR Inten    --     17.7259                12.8691                 4.0223

                     16                     17                     18
                      A                      A                      A
 Frequencies --    933.4446               943.3672               967.9259
 Red. masses --      2.6075                 4.9284                 1.6883
 Frc consts  --      1.3386                 2.5842                 0.9319
 IR Inten    --     17.1243                45.5575                 2.4042

                     19                     20                     21
                      A                      A                      A
 Frequencies --    988.8514              1024.5345              1033.8954
 Red. masses --      1.8926                 2.3706                 1.8991
 Frc consts  --      1.0904                 1.4661                 1.1960
 IR Inten    --     26.8922                15.6613                25.0859

                     22                     23                     24
                      A                      A                      A
 Frequencies --   1049.4117              1081.3297              1113.8288
 Red. masses --      2.3272                 3.1710                 1.5867
 Frc consts  --      1.5100                 2.1845                 1.1598
 IR Inten    --     10.8064                39.5697                 1.3247

                     25                     26                     27
                      A                      A                      A
 Frequencies --   1141.7353              1170.2797              1184.7981
 Red. masses --      1.3636                 1.5052                 1.3962
 Frc consts  --      1.0473                 1.2146                 1.1547
 IR Inten    --      1.2596                 3.6372                 9.4483

                     28                     29                     30
                      A                      A                      A
 Frequencies --   1208.9073              1225.6868              1244.9273
 Red. masses --      1.4298                 1.5492                 1.3628
 Frc consts  --      1.2311                 1.3712                 1.2444
 IR Inten    --      3.5983                 5.8115                 3.7324

                     31                     32                     33
                      A                      A                      A
 Frequencies --   1267.7311              1295.2919              1296.4765
 Red. masses --      1.6531                 1.4923                 1.6235
 Frc consts  --      1.5653                 1.4752                 1.6078
 IR Inten    --      6.5887                 2.1290                 4.7857

                     34                     35                     36
                      A                      A                      A
 Frequencies --   1316.3175              1346.4486              1369.3634
 Red. masses --      1.6313                 2.1519                 1.2740
 Frc consts  --      1.6653                 2.2986                 1.4076
 IR Inten    --      4.7962                 3.6134                 1.1983

                     37                     38                     39
                      A                      A                      A
 Frequencies --   1390.6809              1479.0718              1496.3327
 Red. masses --      1.3861                 1.0873                 1.1131
 Frc consts  --      1.5794                 1.4015                 1.4684
 IR Inten    --      5.7343                 0.6575                 3.0389

                     40                     41                     42
                      A                      A                      A
 Frequencies --   1497.9494              1523.3060              3014.6827
 Red. masses --      1.1060                 1.0986                 1.0578
 Frc consts  --      1.4621                 1.5019                 5.6643
 IR Inten    --      0.9200                 0.5852                73.8615

                     43                     44                     45
                      A                      A                      A
 Frequencies --   3026.1003              3035.9071              3057.3446
 Red. masses --      1.0661                 1.0808                 1.1071
 Frc consts  --      5.7518                 5.8690                 6.0969
 IR Inten    --     46.9217                43.3768                28.5718

                     46                     47                     48
                      A                      A                      A
 Frequencies --   3061.4719              3070.8215              3108.1677
 Red. masses --      1.0612                 1.0610                 1.1056
 Frc consts  --      5.8601                 5.8950                 6.2929
 IR Inten    --     27.2335                45.1647                 5.6445

                     49                     50                     51
                      A                      A                      A
 Frequencies --   3118.1290              3121.2803              3129.0007
 Red. masses --      1.0889                 1.1044                 1.1057
 Frc consts  --      6.2378                 6.3391                 6.3779
 IR Inten    --     28.5181                19.2469                38.1362

 - Thermochemistry -
 -------------------
 Temperature   298.150 Kelvin.  Pressure   1.00000 Atm.
 Atom     1 has atomic number  6 and mass  12.00000

 Molecular mass:   126.06808 amu.
 Principal axes and moments of inertia in atomic units:
                           1         2         3
     Eigenvalues --   642.82413 954.921521045.64369
           X            0.99924  -0.02726   0.02787
           Y            0.02607   0.99878   0.04195
           Z           -0.02898  -0.04119   0.99873
 This molecule is an asymmetric top.
 Rotational symmetry number  1.
 Warning -- assumption of classical behavior for rotation
           may cause significant error
 Rotational temperatures (Kelvin)      0.13474     0.09070     0.08283
 Rotational constants (GHZ):           2.80752     1.88994     1.72596
 Zero-point vibrational energy     426333.3 (Joules/Mol)
                                  101.89610 (Kcal/Mol)
 Warning -- explicit consideration of   7 degrees of freedom as
           vibrations may cause significant error
 Vibrational temperatures:    272.98   397.62   446.91   507.93   587.62
          (Kelvin)            619.54   818.37   929.74  1038.93  1130.55
                             1176.63  1200.87  1212.52  1257.96  1268.17
                             1343.02  1357.29  1392.63  1422.73  1474.07
                             1487.54  1509.87  1555.79  1602.55  1642.70
                             1683.77  1704.66  1739.35  1763.49  1791.17
                             1823.98  1863.63  1865.34  1893.88  1937.24
                             1970.21  2000.88  2128.05  2152.89  2155.21
                             2191.69  4337.45  4353.88  4367.99  4398.83
                             4404.77  4418.22  4471.95  4486.29  4490.82
                             4501.93

 Zero-point correction=                           0.162382 (Hartree/Particle)
 Thermal correction to Energy=                    0.168931
 Thermal correction to Enthalpy=                  0.169875
 Thermal correction to Gibbs Free Energy=         0.131876
 Sum of electronic and zero-point Energies=           -422.980833
 Sum of electronic and thermal Energies=              -422.974283
 Sum of electronic and thermal Enthalpies=            -422.973339
 Sum of electronic and thermal Free Energies=         -423.011338

                     E (Thermal)             CV                S
                      KCal/Mol        Cal/Mol-Kelvin    Cal/Mol-Kelvin
 Total                  106.006             27.768             79.976
 Electronic               0.000              0.000              0.000
 Translational            0.889              2.981             40.409
 Rotational               0.889              2.981             27.953
 Vibrational            104.228             21.806             11.614
 Vibration     1          0.633              1.854              2.230
 Vibration     2          0.678              1.717              1.556
 Vibration     3          0.699              1.653              1.359
 Vibration     4          0.729              1.569              1.153
 Vibration     5          0.773              1.452              0.932
 Vibration     6          0.792              1.404              0.857
 Vibration     7          0.925              1.099              0.507

 Optimization completed.
    -- Stationary point found.
 Normal termination of Gaussian 09 at Mon Jan 27 13:04:05 2020.
