 Gaussian 09, Revision D.01,
 Gaussian 09:  ES64L-G09RevD.01 24-Apr-2013

 -----------------------------
 # b3lyp 6-31G(2df,p) opt Freq
 -----------------------------

 -----
 titel
 -----
 Symbolic Z-matrix:
 Charge =  0 Multiplicity = 1

 SCF Done:  E(RB3LYP) =  -423.204171961     A.U. after   13 cycles
 Optimization completed.
    -- Stationary point found.
 Normal termination of Gaussian 09 at Tue Jan 28 00:36:17 2020.

 ----------------------------------------------------------------------
 #N Geom=AllCheck Guess=TCheck SCRF=Check GenChk RB3LYP/6-31G(2df,p) Fr
 eq
 ----------------------------------------------------------------------

 Structure from the checkpoint file:  "/scratch/puck/g09_83d989b3-62d0-4c50-8fd3-8e68fc17c904/Gau-36471.chk"
 -----
 titel
 -----
 Charge =  0 Multiplicity = 1

                         Standard orientation:
 ---------------------------------------------------------------------
 Center     Atomic      Atomic             Coordinates (Angstroms)
 Number     Number       Type             X           Y           Z
 ---------------------------------------------------------------------
      1          8           0       -2.323435   -0.398168   -0.393988
      2          6           0       -1.339028    0.169487    0.458350
      3          6           0       -0.771651    1.443953   -0.135467
      4          6           0        0.534464    1.615963   -0.345316
      5          6           0        1.522793    0.528816    0.024714
      6          6           0        1.409686   -0.647057   -0.965521
      7          8           0        0.224695   -1.352777   -0.566617
      8          6           0       -0.212468   -0.850018    0.713512
      9          6           0        1.022254   -0.172158    1.305696
     10          1           0       -1.819533   -0.825498   -1.100842
     11          1           0       -1.858004    0.388963    1.401359
     12          1           0       -1.495680    2.204765   -0.413897
     13          1           0        0.912883    2.524410   -0.805872
     14          1           0        2.543828    0.908531    0.097739
     15          1           0        1.299473   -0.327502   -2.006317
     16          1           0        2.278381   -1.316513   -0.891861
     17          1           0       -0.592892   -1.700586    1.285234
     18          1           0        0.784857    0.528334    2.108826
     19          1           0        1.740295   -0.911258    1.674651
 ---------------------------------------------------------------------

 SCF Done:  E(RB3LYP) =  -423.204171961     A.U. after    1 cycles

 The electronic state is 1-A.
 Alpha  occ. eigenvalues --  -19.14348 -19.12319 -10.23187 -10.23108 -10.22770
 Alpha  occ. eigenvalues --  -10.20025 -10.19045 -10.18650 -10.17964  -1.04172
 Alpha  occ. eigenvalues --   -1.00271  -0.82951  -0.75974  -0.74386  -0.66355
 Alpha  occ. eigenvalues --   -0.61533  -0.57429  -0.53923  -0.52855  -0.49425
 Alpha  occ. eigenvalues --   -0.45533  -0.44427  -0.43469  -0.41876  -0.41034
 Alpha  occ. eigenvalues --   -0.40586  -0.36581  -0.36080  -0.32660  -0.32326
 Alpha  occ. eigenvalues --   -0.31649  -0.27231  -0.26031  -0.23965
 Alpha virt. eigenvalues --    0.01009   0.08430   0.10376   0.12101   0.12554
 Alpha virt. eigenvalues --    0.13950   0.14483   0.15452   0.16704   0.17044
 Alpha virt. eigenvalues --    0.17874   0.18633   0.19442   0.21569   0.22375

 Mulliken charges:
               1
     1  O   -0.443165
     2  C    0.106176
     3  C   -0.089660
     4  C   -0.072748
     5  C   -0.086422
     6  C   -0.066484
     7  O   -0.292242
     8  C    0.066819
     9  C   -0.249800
    10  H    0.283993
    11  H    0.083555
    12  H    0.096569
    13  H    0.091183
    14  H    0.072744
    15  H    0.106738
    16  H    0.096482
    17  H    0.082470
    18  H    0.110648
    19  H    0.103144
 Sum of Mulliken charges =   0.00000

 Dipole moment (field-independent basis, Debye):
    X=              2.4817    Y=              0.9151    Z=              0.5679  Tot=              2.7053
 Quadrupole moment (field-independent basis, Debye-Ang):
   XX=            -56.0921   YY=            -53.8422   ZZ=            -50.5918
   XY=             -0.7129   XZ=             -1.2496   YZ=             -1.2260

  Exact polarizability:  86.503  -0.760  71.441  -3.681  -2.863  66.745
 Approx polarizability: 133.020   2.583 103.757  -6.755  -1.212 100.668

                      1                      2                      3
                      A                      A                      A
 Frequencies --    135.2328               239.7441               269.4091
 Red. masses --      4.1876                 2.7597                 6.0869
 Frc consts  --      0.0451                 0.0935                 0.2603
 IR Inten    --      0.9479                 1.7284                 6.0819

                      4                      5                      6
                      A                      A                      A
 Frequencies --    361.2635               402.0252               429.1094
 Red. masses --      2.3703                 2.0136                 3.9492
 Frc consts  --      0.1823                 0.1917                 0.4284
 IR Inten    --      1.2108                 0.0449                 1.0788

                      7                      8                      9
                      A                      A                      A
 Frequencies --    486.6903               497.6538               610.0323
 Red. masses --      1.4721                 2.2357                 4.0679
 Frc consts  --      0.2054                 0.3262                 0.8919
 IR Inten    --     41.6807                45.1962                 0.7136

                     10                     11                     12
                      A                      A                      A
 Frequencies --    679.8637               720.9843               783.4594
 Red. masses --      3.5450                 2.2738                 3.9327
 Frc consts  --      0.9654                 0.6964                 1.4223
 IR Inten    --      1.5169                 5.8951                 1.4434

                     13                     14                     15
                      A                      A                      A
 Frequencies --    816.7853               850.7689               885.3977
 Red. masses --      2.5651                 2.7548                 3.4661
 Frc consts  --      1.0082                 1.1748                 1.6009
 IR Inten    --     44.3358                12.5761                 7.8077

                     16                     17                     18
                      A                      A                      A
 Frequencies --    898.5789               943.6135               959.4876
 Red. masses --      2.0199                 2.7088                 2.0840
 Frc consts  --      0.9609                 1.4211                 1.1304
 IR Inten    --      2.0226                 8.1151                 8.2267

                     19                     20                     21
                      A                      A                      A
 Frequencies --    996.7751               998.8302              1022.2340
 Red. masses --      1.8420                 1.3953                 2.4744
 Frc consts  --      1.0783                 0.8202                 1.5234
 IR Inten    --     15.5692                 4.2537                13.2988

                     22                     23                     24
                      A                      A                      A
 Frequencies --   1034.6004              1068.6384              1090.5034
 Red. masses --      2.3042                 1.9509                 4.8251
 Frc consts  --      1.4532                 1.3127                 3.3807
 IR Inten    --     44.4904                31.8722                74.5511

                     25                     26                     27
                      A                      A                      A
 Frequencies --   1113.4797              1159.9144              1177.0968
 Red. masses --      1.7956                 1.1679                 1.2099
 Frc consts  --      1.3117                 0.9258                 0.9877
 IR Inten    --     26.1005                 2.7366                 7.6234

                     28                     29                     30
                      A                      A                      A
 Frequencies --   1213.5236              1227.6938              1265.3416
 Red. masses --      1.1340                 1.5299                 1.3109
 Frc consts  --      0.9839                 1.3586                 1.2366
 IR Inten    --      0.7675                 2.4171                12.4052

                     31                     32                     33
                      A                      A                      A
 Frequencies --   1307.0729              1312.8711              1332.2706
 Red. masses --      1.5600                 1.4032                 1.5715
 Frc consts  --      1.5703                 1.4250                 1.6435
 IR Inten    --      5.1106                 4.6446                 3.8193

                     34                     35                     36
                      A                      A                      A
 Frequencies --   1345.4794              1360.3363              1388.7347
 Red. masses --      1.3388                 1.6417                 1.3474
 Frc consts  --      1.4280                 1.7899                 1.5310
 IR Inten    --      1.6583                 0.5882                 8.3856

                     37                     38                     39
                      A                      A                      A
 Frequencies --   1404.0975              1437.1659              1487.4567
 Red. masses --      1.5001                 1.2807                 1.1055
 Frc consts  --      1.7425                 1.5585                 1.4411
 IR Inten    --      4.7699                77.4700                 5.3231

                     40                     41                     42
                      A                      A                      A
 Frequencies --   1519.8634              1700.5924              3002.3104
 Red. masses --      1.0947                 6.7074                 1.0666
 Frc consts  --      1.4899                11.4289                 5.6645
 IR Inten    --      0.3586                 1.0387                77.0994

                     43                     44                     45
                      A                      A                      A
 Frequencies --   3017.0226              3054.0539              3076.7315
 Red. masses --      1.0832                 1.0640                 1.0980
 Frc consts  --      5.8091                 5.8469                 6.1241
 IR Inten    --     30.6029                20.9614                37.5481

                     46                     47                     48
                      A                      A                      A
 Frequencies --   3080.8863              3093.1776              3118.6707
 Red. masses --      1.0869                 1.0871                 1.1029
 Frc consts  --      6.0785                 6.1279                 6.3199
 IR Inten    --     42.9759                31.0007                16.7225

                     49                     50                     51
                      A                      A                      A
 Frequencies --   3155.2856              3179.0889              3747.1319
 Red. masses --      1.0845                 1.0982                 1.0648
 Frc consts  --      6.3612                 6.5394                 8.8086
 IR Inten    --      8.9674                24.3852                30.8364

 - Thermochemistry -
 -------------------
 Temperature   298.150 Kelvin.  Pressure   1.00000 Atm.
 Atom     1 has atomic number  8 and mass  15.99491

 Molecular mass:   126.06808 amu.
 Principal axes and moments of inertia in atomic units:
                           1         2         3
     Eigenvalues --   686.17376 995.010861200.39595
           X            0.99982  -0.01709  -0.00828
           Y            0.01677   0.99918  -0.03690
           Z            0.00891   0.03675   0.99928
 This molecule is an asymmetric top.
 Rotational symmetry number  1.
 Warning -- assumption of classical behavior for rotation
           may cause significant error
 Rotational temperatures (Kelvin)      0.12623     0.08705     0.07215
 Rotational constants (GHZ):           2.63015     1.81379     1.50345
 Zero-point vibrational energy     427419.9 (Joules/Mol)
                                  102.15581 (Kcal/Mol)
 Warning -- explicit consideration of   9 degrees of freedom as
           vibrations may cause significant error
 Vibrational temperatures:    194.57   344.94   387.62   519.78   578.42
          (Kelvin)            617.39   700.24   716.01   877.70   978.17
                             1037.33  1127.22  1175.17  1224.07  1273.89
                             1292.85  1357.65  1380.49  1434.14  1437.09
                             1470.76  1488.56  1537.53  1568.99  1602.05
                             1668.86  1693.58  1745.99  1766.38  1820.54
                             1880.58  1888.93  1916.84  1935.84  1957.22
                             1998.08  2020.18  2067.76  2140.12  2186.74
                             2446.77  4319.65  4340.82  4394.10  4426.72
                             4432.70  4450.39  4487.07  4539.75  4573.99
                             5391.28

 Zero-point correction=                           0.162796 (Hartree/Particle)
 Thermal correction to Energy=                    0.169842
 Thermal correction to Enthalpy=                  0.170786
 Thermal correction to Gibbs Free Energy=         0.131698
 Sum of electronic and zero-point Energies=           -423.041376
 Sum of electronic and thermal Energies=              -423.034330
 Sum of electronic and thermal Enthalpies=            -423.033386
 Sum of electronic and thermal Free Energies=         -423.072474

                     E (Thermal)             CV                S
                      KCal/Mol        Cal/Mol-Kelvin    Cal/Mol-Kelvin
 Total                  106.577             29.261             82.268
 Electronic               0.000              0.000              0.000
 Translational            0.889              2.981             40.409
 Rotational               0.889              2.981             28.196
 Vibrational            104.800             23.299             13.664
 Vibration     1          0.613              1.918              2.870
 Vibration     2          0.657              1.780              1.805
 Vibration     3          0.674              1.729              1.600
 Vibration     4          0.735              1.552              1.117
 Vibration     5          0.768              1.466              0.955
 Vibration     6          0.790              1.407              0.862
 Vibration     7          0.843              1.280              0.692
 Vibration     8          0.853              1.255              0.664
 Vibration     9          0.969              1.011              0.433

 Normal termination of Gaussian 09 at Tue Jan 28 02:53:25 2020.
