 Gaussian 09, Revision D.01,
 Gaussian 09:  ES64L-G09RevD.01 24-Apr-2013

 -----------------------------
 # b3lyp 6-31G(2df,p) opt Freq
 -----------------------------

 -----
 titel
 -----
 Symbolic Z-matrix:
 Charge =  0 Multiplicity = 1

 SCF Done:  E(RB3LYP) =  -423.143739117     A.U. after   14 cycles
 Optimization completed.
    -- Stationary point found.
 Normal termination of Gaussian 09 at Mon Jan 27 14:00:28 2020.

 ----------------------------------------------------------------------
 #N Geom=AllCheck Guess=TCheck SCRF=Check GenChk RB3LYP/6-31G(2df,p) Fr
 eq
 ----------------------------------------------------------------------

 Structure from the checkpoint file:  "/scratch/puck/g09_79d763fb-ea23-4730-9316-4b510f2ac6dd/Gau-49875.chk"
 -----
 titel
 -----
 Charge =  0 Multiplicity = 1

                         Standard orientation:
 ---------------------------------------------------------------------
 Center     Atomic      Atomic             Coordinates (Angstroms)
 Number     Number       Type             X           Y           Z
 ---------------------------------------------------------------------
      1          6           0        4.005698   -0.203816    0.011398
      2          6           0        2.557026   -0.064846   -0.002526
      3          6           0        1.357426    0.048942   -0.024923
      4          6           0       -0.088544    0.192741   -0.021238
      5          8           0       -0.484309    1.572364   -0.092761
      6          6           0       -0.947034   -0.550431   -1.084864
      7          6           0       -2.024391   -0.792778    0.013243
      8          8           0       -3.061609    0.159258    0.030513
      9          6           0       -0.913063   -0.553729    1.078982
     10          1           0        4.373346   -0.470216    1.008450
     11          1           0        4.334270   -0.984295   -0.683676
     12          1           0        4.494984    0.730281   -0.285564
     13          1           0       -0.054006    2.034119    0.636313
     14          1           0       -1.243184    0.047476   -1.949070
     15          1           0       -0.465040   -1.473950   -1.411392
     16          1           0       -2.504862   -1.772999    0.021071
     17          1           0       -2.636151    1.026306   -0.006373
     18          1           0       -1.190615    0.034045    1.957885
     19          1           0       -0.424108   -1.480237    1.389901
 ---------------------------------------------------------------------

 SCF Done:  E(RB3LYP) =  -423.143739117     A.U. after    1 cycles

 The electronic state is 1-A.
 Alpha  occ. eigenvalues --  -19.15245 -19.12260 -10.26021 -10.22893 -10.20970
 Alpha  occ. eigenvalues --  -10.18346 -10.18095 -10.18035 -10.17122  -1.03598
 Alpha  occ. eigenvalues --   -1.00647  -0.83028  -0.78006  -0.71464  -0.66989
 Alpha  occ. eigenvalues --   -0.64618  -0.57652  -0.54751  -0.49627  -0.46421
 Alpha  occ. eigenvalues --   -0.45924  -0.43431  -0.43268  -0.42444  -0.41390
 Alpha  occ. eigenvalues --   -0.40684  -0.36994  -0.36112  -0.34507  -0.31494
 Alpha  occ. eigenvalues --   -0.27728  -0.25979  -0.25498  -0.24459
 Alpha virt. eigenvalues --    0.03432   0.04631   0.08149   0.10411   0.10617
 Alpha virt. eigenvalues --    0.12966   0.13352   0.14907   0.16321   0.16914
 Alpha virt. eigenvalues --    0.17478   0.19737   0.19993   0.21229   0.21326

 Mulliken charges:
               1
     1  C   -0.504224
     2  C    0.140339
     3  C   -0.028180
     4  C    0.178392
     5  O   -0.470050
     6  C   -0.264523
     7  C    0.140969
     8  O   -0.443983
     9  C   -0.286307
    10  H    0.149882
    11  H    0.152913
    12  H    0.152701
    13  H    0.282339
    14  H    0.115651
    15  H    0.111290
    16  H    0.080397
    17  H    0.284457
    18  H    0.099020
    19  H    0.108918
 Sum of Mulliken charges =   0.00000

 Dipole moment (field-independent basis, Debye):
    X=              3.0669    Y=             -0.1570    Z=              0.9180  Tot=              3.2052
 Quadrupole moment (field-independent basis, Debye-Ang):
   XX=            -54.3547   YY=            -49.7318   ZZ=            -52.3891
   XY=             -0.1131   XZ=              0.3439   YZ=              2.6523

  Exact polarizability: 114.789  -1.546  66.755   0.620   1.206  63.591
 Approx polarizability: 156.874  -6.379  99.905   1.910   1.262  92.517

                      1                      2                      3
                      A                      A                      A
 Frequencies --     23.5356                80.1221                88.7980
 Red. masses --      1.0282                 4.0812                 3.8987
 Frc consts  --      0.0003                 0.0154                 0.0181
 IR Inten    --      0.0237                 0.4690                 0.1600

                      4                      5                      6
                      A                      A                      A
 Frequencies --    157.2392               257.0963               299.5632
 Red. masses --      4.1642                 3.9352                 4.2735
 Frc consts  --      0.0607                 0.1533                 0.2259
 IR Inten    --      3.4761                 7.0901                 1.1496

                      7                      8                      9
                      A                      A                      A
 Frequencies --    312.7764               363.4253               377.4362
 Red. masses --      1.8246                 3.0006                 2.0947
 Frc consts  --      0.1052                 0.2335                 0.1758
 IR Inten    --     20.2101                12.8157                50.1191

                     10                     11                     12
                      A                      A                      A
 Frequencies --    425.3260               426.0471               508.2338
 Red. masses --      1.8736                 1.9132                 3.9797
 Frc consts  --      0.1997                 0.2046                 0.6057
 IR Inten    --      7.2924                 1.4709                 5.7901

                     13                     14                     15
                      A                      A                      A
 Frequencies --    528.8768               535.7953               567.5919
 Red. masses --      1.4706                 2.4666                 5.6266
 Frc consts  --      0.2424                 0.4172                 1.0680
 IR Inten    --     62.4732                46.2059                 8.1627

                     16                     17                     18
                      A                      A                      A
 Frequencies --    798.8110               844.0372               863.5588
 Red. masses --      1.8552                 2.6646                 4.5145
 Frc consts  --      0.6975                 1.1184                 1.9835
 IR Inten    --      0.7108                20.4768                 9.1981

                     19                     20                     21
                      A                      A                      A
 Frequencies --    897.0496               941.1616               961.6066
 Red. masses --      3.1513                 2.6550                 2.3288
 Frc consts  --      1.4941                 1.3856                 1.2688
 IR Inten    --     13.9222                 4.5579                32.5186

                     22                     23                     24
                      A                      A                      A
 Frequencies --   1006.9992              1023.5399              1051.9885
 Red. masses --      2.4313                 2.9680                 1.4112
 Frc consts  --      1.4526                 1.8320                 0.9201
 IR Inten    --     15.8197                12.2046                 0.7086

                     25                     26                     27
                      A                      A                      A
 Frequencies --   1054.7093              1066.3712              1147.9646
 Red. masses --      1.4076                 1.1105                 2.3650
 Frc consts  --      0.9226                 0.7441                 1.8363
 IR Inten    --      0.8087                 6.8325               208.5268

                     28                     29                     30
                      A                      A                      A
 Frequencies --   1173.9742              1198.1833              1247.8932
 Red. masses --      2.0452                 1.5435                 1.7735
 Frc consts  --      1.6607                 1.3056                 1.6271
 IR Inten    --     18.6964                 1.3547                 6.1988

                     31                     32                     33
                      A                      A                      A
 Frequencies --   1256.7601              1277.2486              1338.8229
 Red. masses --      1.3947                 2.0446                 1.4792
 Frc consts  --      1.2979                 1.9652                 1.5622
 IR Inten    --      1.1121                20.4208                 0.7284

                     34                     35                     36
                      A                      A                      A
 Frequencies --   1360.6311              1413.7316              1445.1473
 Red. masses --      1.7706                 1.2455                 1.0902
 Frc consts  --      1.9313                 1.4667                 1.3415
 IR Inten    --     91.8930                 9.5697                 5.5385

                     37                     38                     39
                      A                      A                      A
 Frequencies --   1455.5991              1475.4010              1476.4767
 Red. masses --      1.1595                 1.1934                 1.0433
 Frc consts  --      1.4475                 1.5306                 1.3401
 IR Inten    --     65.6972                32.1456                 7.1676

                     40                     41                     42
                      A                      A                      A
 Frequencies --   1477.8594              2363.1930              3028.1738
 Red. masses --      1.0397                11.8924                 1.0347
 Frc consts  --      1.3379                39.1307                 5.5903
 IR Inten    --      5.6062                11.6333                30.3587

                     43                     44                     45
                      A                      A                      A
 Frequencies --   3058.9476              3073.9930              3089.3662
 Red. masses --      1.0576                 1.0591                 1.1003
 Frc consts  --      5.8305                 5.8964                 6.1875
 IR Inten    --     24.4457                10.1857                 9.3941

                     46                     47                     48
                      A                      A                      A
 Frequencies --   3090.7676              3094.7065              3124.3399
 Red. masses --      1.1001                 1.0887                 1.1084
 Frc consts  --      6.1916                 6.1432                 6.3747
 IR Inten    --      8.0465                45.0666                19.3736

                     49                     50                     51
                      A                      A                      A
 Frequencies --   3140.3310              3759.4199              3795.5931
 Red. masses --      1.1092                 1.0654                 1.0660
 Frc consts  --      6.4446                 8.8713                 9.0482
 IR Inten    --     14.2040                44.8089                18.7922

 - Thermochemistry -
 -------------------
 Temperature   298.150 Kelvin.  Pressure   1.00000 Atm.
 Atom     1 has atomic number  6 and mass  12.00000

 Molecular mass:   126.06808 amu.
 Principal axes and moments of inertia in atomic units:
                           1         2         3
     Eigenvalues --   400.742072263.322852365.23553
           X            1.00000  -0.00058   0.00048
           Y            0.00056   0.99909   0.04261
           Z           -0.00050  -0.04261   0.99909
 This molecule is an asymmetric top.
 Rotational symmetry number  1.
 Rotational temperatures (Kelvin)      0.21613     0.03827     0.03662
 Rotational constants (GHZ):           4.50350     0.79739     0.76303
 Zero-point vibrational energy     411672.2 (Joules/Mol)
                                   98.39202 (Kcal/Mol)
 Warning -- explicit consideration of  15 degrees of freedom as
           vibrations may cause significant error
 Vibrational temperatures:     33.86   115.28   127.76   226.23   369.90
          (Kelvin)            431.00   450.01   522.89   543.05   611.95
                              612.99   731.23   760.93   770.89   816.64
                             1149.31  1214.38  1242.47  1290.65  1354.12
                             1383.54  1448.85  1472.64  1513.57  1517.49
                             1534.27  1651.66  1689.08  1723.92  1795.44
                             1808.20  1837.67  1926.27  1957.64  2034.04
                             2079.24  2094.28  2122.77  2124.32  2126.31
                             3400.10  4356.86  4401.14  4422.78  4444.90
                             4446.92  4452.59  4495.22  4518.23  5408.96
                             5461.01

 Zero-point correction=                           0.156798 (Hartree/Particle)
 Thermal correction to Energy=                    0.166690
 Thermal correction to Enthalpy=                  0.167635
 Thermal correction to Gibbs Free Energy=         0.120897
 Sum of electronic and zero-point Energies=           -422.986941
 Sum of electronic and thermal Energies=              -422.977049
 Sum of electronic and thermal Enthalpies=            -422.976105
 Sum of electronic and thermal Free Energies=         -423.022842

                     E (Thermal)             CV                S
                      KCal/Mol        Cal/Mol-Kelvin    Cal/Mol-Kelvin
 Total                  104.600             36.207             98.367
 Electronic               0.000              0.000              0.000
 Translational            0.889              2.981             40.409
 Rotational               0.889              2.981             29.152
 Vibrational            102.822             30.246             28.806
 Vibration     1          0.593              1.985              6.311
 Vibration     2          0.600              1.963              3.888
 Vibration     3          0.602              1.957              3.686
 Vibration     4          0.621              1.895              2.583
 Vibration     5          0.667              1.751              1.681
 Vibration     6          0.692              1.675              1.419
 Vibration     7          0.701              1.649              1.348
 Vibration     8          0.737              1.548              1.107
 Vibration     9          0.748              1.518              1.049
 Vibration    10          0.787              1.415              0.874
 Vibration    11          0.788              1.414              0.872
 Vibration    12          0.863              1.232              0.638
 Vibration    13          0.884              1.186              0.590
 Vibration    14          0.891              1.171              0.574
 Vibration    15          0.924              1.101              0.509

 Optimization completed on the basis of negligible forces.
    -- Stationary point found.
 Normal termination of Gaussian 09 at Mon Jan 27 14:37:29 2020.
