 Gaussian 09, Revision D.01,
 Gaussian 09:  ES64L-G09RevD.01 24-Apr-2013

 -----------------------------
 # b3lyp 6-31G(2df,p) opt Freq
 -----------------------------

 -----
 titel
 -----
 Symbolic Z-matrix:
 Charge =  0 Multiplicity = 1

 SCF Done:  E(RB3LYP) =  -423.138578892     A.U. after   12 cycles
 Optimization completed.
    -- Stationary point found.
 Normal termination of Gaussian 09 at Mon Jan 27 11:18:06 2020.

 ----------------------------------------------------------------------
 #N Geom=AllCheck Guess=TCheck SCRF=Check GenChk RB3LYP/6-31G(2df,p) Fr
 eq
 ----------------------------------------------------------------------

 Structure from the checkpoint file:  "/scratch/puck/g09_7e44235d-b0ea-40f7-9159-6f294fe2dc98/Gau-162689.chk"
 -----
 titel
 -----
 Charge =  0 Multiplicity = 1

                         Standard orientation:
 ---------------------------------------------------------------------
 Center     Atomic      Atomic             Coordinates (Angstroms)
 Number     Number       Type             X           Y           Z
 ---------------------------------------------------------------------
      1          6           0        0.738389   -0.220561    1.513991
      2          6           0        0.492920    0.705754    0.336611
      3          6           0        1.736745    0.838275   -0.548870
      4          6           0        1.703042   -0.727477   -0.747794
      5          6           0        0.456049   -0.780297    0.137143
      6          8           0       -0.698101   -1.472664   -0.205658
      7          6           0       -1.861348   -0.648495   -0.061150
      8          6           0       -1.638095    0.796731   -0.518215
      9          8           0       -0.660230    1.478475    0.276982
     10          1           0        1.723896   -0.311133    1.964987
     11          1           0       -0.089649   -0.261070    2.212394
     12          1           0        1.535566    1.369876   -1.481436
     13          1           0        2.627411    1.266679   -0.079257
     14          1           0        1.483923   -1.002764   -1.781240
     15          1           0        2.570962   -1.294597   -0.399168
     16          1           0       -2.641732   -1.113182   -0.670882
     17          1           0       -2.199529   -0.648863    0.986203
     18          1           0       -1.340766    0.804918   -1.577969
     19          1           0       -2.569650    1.360063   -0.414520
 ---------------------------------------------------------------------

 SCF Done:  E(RB3LYP) =  -423.138578892     A.U. after    1 cycles

 The electronic state is 1-A.
 Alpha  occ. eigenvalues --  -19.15078 -19.15065 -10.23713 -10.23668 -10.23192
 Alpha  occ. eigenvalues --  -10.23014 -10.18909 -10.18880 -10.18357  -1.06203
 Alpha  occ. eigenvalues --   -1.02651  -0.88472  -0.74753  -0.73248  -0.67400
 Alpha  occ. eigenvalues --   -0.61448  -0.58944  -0.52524  -0.52365  -0.49629
 Alpha  occ. eigenvalues --   -0.46685  -0.45062  -0.43865  -0.43111  -0.39127
 Alpha  occ. eigenvalues --   -0.38852  -0.37883  -0.36018  -0.35016  -0.34207
 Alpha  occ. eigenvalues --   -0.32286  -0.28597  -0.24134  -0.21839
 Alpha virt. eigenvalues --    0.08376   0.08983   0.10862   0.11718   0.12471
 Alpha virt. eigenvalues --    0.12968   0.13868   0.14874   0.16111   0.17038
 Alpha virt. eigenvalues --    0.18670   0.18781   0.19487   0.19792   0.21895

 Mulliken charges:
               1
     1  C   -0.397966
     2  C    0.338600
     3  C   -0.295096
     4  C   -0.286765
     5  C    0.352534
     6  O   -0.296688
     7  C   -0.098451
     8  C   -0.106249
     9  O   -0.292530
    10  H    0.103341
    11  H    0.119237
    12  H    0.110398
    13  H    0.100409
    14  H    0.111508
    15  H    0.100506
    16  H    0.115823
    17  H    0.105438
    18  H    0.101353
    19  H    0.114600
 Sum of Mulliken charges =   0.00000

 Dipole moment (field-independent basis, Debye):
    X=             -0.4230    Y=              0.1044    Z=             -0.6391  Tot=              0.7735
 Quadrupole moment (field-independent basis, Debye-Ang):
   XX=            -47.3417   YY=            -59.5499   ZZ=            -51.6750
   XY=             -0.2257   XZ=              0.6887   YZ=             -1.7116

  Exact polarizability:  85.629  -0.271  65.109   1.488  -1.446  70.944
 Approx polarizability: 112.745  -0.689 103.266   2.869   1.282 106.049

                      1                      2                      3
                      A                      A                      A
 Frequencies --    135.9393               197.1334               292.2767
 Red. masses --      3.0472                 2.0533                 1.8802
 Frc consts  --      0.0332                 0.0470                 0.0946
 IR Inten    --      4.4308                 0.1532                 1.3622

                      4                      5                      6
                      A                      A                      A
 Frequencies --    350.9961               386.4868               426.7896
 Red. masses --      2.8068                 3.0832                 3.7334
 Frc consts  --      0.2037                 0.2713                 0.4007
 IR Inten    --      3.6194                 0.4868                 5.8978

                      7                      8                      9
                      A                      A                      A
 Frequencies --    480.0712               503.7498               543.9946
 Red. masses --      3.4976                 2.7177                 3.7363
 Frc consts  --      0.4749                 0.4063                 0.6515
 IR Inten    --      2.4554                 3.6105                14.5498

                     10                     11                     12
                      A                      A                      A
 Frequencies --    632.6265               735.0124               739.5728
 Red. masses --      2.4822                 2.4682                 4.9525
 Frc consts  --      0.5853                 0.7856                 1.5960
 IR Inten    --      0.4955                 2.8812                 4.0250

                     13                     14                     15
                      A                      A                      A
 Frequencies --    777.4852               866.3090               890.7022
 Red. masses --      1.2918                 2.6096                 1.9454
 Frc consts  --      0.4601                 1.1539                 0.9093
 IR Inten    --      0.0699                27.2742                13.2944

                     16                     17                     18
                      A                      A                      A
 Frequencies --    900.1474               914.5719               957.8013
 Red. masses --      4.0478                 2.4163                 1.8732
 Frc consts  --      1.9324                 1.1908                 1.0125
 IR Inten    --      6.4420                 7.8346                12.9943

                     19                     20                     21
                      A                      A                      A
 Frequencies --    963.3345               992.3699              1045.1500
 Red. masses --      1.6550                 2.2731                 1.4512
 Frc consts  --      0.9049                 1.3189                 0.9340
 IR Inten    --      4.0430                 3.8343                 9.5573

                     22                     23                     24
                      A                      A                      A
 Frequencies --   1070.8109              1102.0263              1117.4245
 Red. masses --      3.8970                 2.8607                 1.9021
 Frc consts  --      2.6327                 2.0470                 1.3993
 IR Inten    --     82.3016                 2.6587                25.7917

                     25                     26                     27
                      A                      A                      A
 Frequencies --   1120.1911              1161.9917              1199.1598
 Red. masses --      1.6749                 3.6002                 1.3165
 Frc consts  --      1.2383                 2.8641                 1.1154
 IR Inten    --      0.9693                 7.7366                 0.2911

                     28                     29                     30
                      A                      A                      A
 Frequencies --   1222.2201              1233.3339              1262.2998
 Red. masses --      1.4091                 1.4765                 1.4934
 Frc consts  --      1.2402                 1.3232                 1.4020
 IR Inten    --      2.3883                 1.6424                17.3875

                     31                     32                     33
                      A                      A                      A
 Frequencies --   1274.9203              1296.7984              1312.5327
 Red. masses --      2.4806                 1.1860                 2.2844
 Frc consts  --      2.3756                 1.1751                 2.3187
 IR Inten    --     44.8752                 4.5944                13.9378

                     34                     35                     36
                      A                      A                      A
 Frequencies --   1376.2667              1399.8694              1421.1545
 Red. masses --      1.6899                 1.4595                 1.5154
 Frc consts  --      1.8859                 1.6851                 1.8033
 IR Inten    --    106.2238                 6.2470                 6.7431

                     37                     38                     39
                      A                      A                      A
 Frequencies --   1474.1098              1474.4666              1490.1660
 Red. masses --      1.2008                 1.1117                 1.1118
 Frc consts  --      1.5374                 1.4240                 1.4546
 IR Inten    --     11.2000                 1.7863                 5.7132

                     40                     41                     42
                      A                      A                      A
 Frequencies --   1498.4477              1514.4416              2988.5981
 Red. masses --      1.0932                 1.4971                 1.0703
 Frc consts  --      1.4462                 2.0230                 5.6326
 IR Inten    --      2.3498                37.5457                22.2972

                     43                     44                     45
                      A                      A                      A
 Frequencies --   2999.6371              3050.7283              3059.2503
 Red. masses --      1.0666                 1.0592                 1.0616
 Frc consts  --      5.6545                 5.8083                 5.8541
 IR Inten    --     64.6159                42.4900                52.3745

                     46                     47                     48
                      A                      A                      A
 Frequencies --   3089.2823              3096.7634              3106.7888
 Red. masses --      1.0957                 1.0942                 1.1065
 Frc consts  --      6.1609                 6.1825                 6.2926
 IR Inten    --     26.8208                35.0681                 1.3668

                     49                     50                     51
                      A                      A                      A
 Frequencies --   3108.7532              3125.9742              3218.4959
 Red. masses --      1.0591                 1.1053                 1.1114
 Frc consts  --      6.0307                 6.3635                 6.7831
 IR Inten    --     13.6799                34.6464                 7.7878

 - Thermochemistry -
 -------------------
 Temperature   298.150 Kelvin.  Pressure   1.00000 Atm.
 Atom     1 has atomic number  6 and mass  12.00000

 Molecular mass:   126.06808 amu.
 Principal axes and moments of inertia in atomic units:
                           1         2         3
     Eigenvalues --   659.31173 985.783971195.37998
           X            1.00000  -0.00120  -0.00123
           Y            0.00115   0.99892  -0.04638
           Z            0.00128   0.04638   0.99892
 This molecule is an asymmetric top.
 Rotational symmetry number  1.
 Warning -- assumption of classical behavior for rotation
           may cause significant error
 Rotational temperatures (Kelvin)      0.13137     0.08786     0.07246
 Rotational constants (GHZ):           2.73731     1.83077     1.50976
 Zero-point vibrational energy     422278.3 (Joules/Mol)
                                  100.92694 (Kcal/Mol)
 Warning -- explicit consideration of   9 degrees of freedom as
           vibrations may cause significant error
 Vibrational temperatures:    195.59   283.63   420.52   505.00   556.07
          (Kelvin)            614.05   690.71   724.78   782.69   910.21
                             1057.52  1064.08  1118.63  1246.42  1281.52
                             1295.11  1315.86  1378.06  1386.02  1427.80
                             1503.74  1540.66  1585.57  1607.72  1611.70
                             1671.84  1725.32  1758.50  1774.49  1816.17
                             1834.32  1865.80  1888.44  1980.14  2014.10
                             2044.72  2120.91  2121.43  2144.01  2155.93
                             2178.94  4299.92  4315.80  4389.31  4401.57
                             4444.78  4455.55  4469.97  4472.80  4497.57
                             4630.69

 Zero-point correction=                           0.160837 (Hartree/Particle)
 Thermal correction to Energy=                    0.168017
 Thermal correction to Enthalpy=                  0.168961
 Thermal correction to Gibbs Free Energy=         0.129641
 Sum of electronic and zero-point Energies=           -422.977742
 Sum of electronic and thermal Energies=              -422.970562
 Sum of electronic and thermal Enthalpies=            -422.969617
 Sum of electronic and thermal Free Energies=         -423.008938

                     E (Thermal)             CV                S
                      KCal/Mol        Cal/Mol-Kelvin    Cal/Mol-Kelvin
 Total                  105.432             29.609             82.757
 Electronic               0.000              0.000              0.000
 Translational            0.889              2.981             40.409
 Rotational               0.889              2.981             28.143
 Vibrational            103.655             23.648             14.206
 Vibration     1          0.614              1.917              2.860
 Vibration     2          0.637              1.844              2.160
 Vibration     3          0.688              1.688              1.461
 Vibration     4          0.728              1.573              1.162
 Vibration     5          0.755              1.499              1.014
 Vibration     6          0.788              1.412              0.869
 Vibration     7          0.836              1.294              0.710
 Vibration     8          0.859              1.242              0.649
 Vibration     9          0.899              1.153              0.557

 Normal termination of Gaussian 09 at Mon Jan 27 12:08:14 2020.
