 Gaussian 09, Revision D.01,
 Gaussian 09:  ES64L-G09RevD.01 24-Apr-2013

 -----------------------------
 # b3lyp 6-31G(2df,p) opt Freq
 -----------------------------

 -----
 titel
 -----
 Symbolic Z-matrix:
 Charge =  0 Multiplicity = 1

 SCF Done:  E(RB3LYP) =  -423.122883268     A.U. after   14 cycles
 Optimization completed.
    -- Stationary point found.
 Normal termination of Gaussian 09 at Mon Jan 27 17:27:25 2020.

 ----------------------------------------------------------------------
 #N Geom=AllCheck Guess=TCheck SCRF=Check GenChk RB3LYP/6-31G(2df,p) Fr
 eq
 ----------------------------------------------------------------------

 Structure from the checkpoint file:  "/scratch/puck/g09_b66f2015-206f-437b-b755-330fe5897866/Gau-79117.chk"
 -----
 titel
 -----
 Charge =  0 Multiplicity = 1

                         Standard orientation:
 ---------------------------------------------------------------------
 Center     Atomic      Atomic             Coordinates (Angstroms)
 Number     Number       Type             X           Y           Z
 ---------------------------------------------------------------------
      1          6           0       -2.534449    0.305032   -0.700751
      2          6           0       -1.206994   -0.045194   -0.091630
      3          6           0       -1.035279   -0.593167    1.294157
      4          6           0       -0.346408    0.700053    0.950853
      5          6           0        0.921127    0.491883    0.098863
      6          8           0        1.564770    1.698675   -0.151179
      7          6           0        1.734760   -0.814225    0.271739
      8          8           0        0.822790   -1.525819   -0.604068
      9          6           0        0.080681   -0.317721   -0.914499
     10          1           0       -3.218239    0.705916    0.054775
     11          1           0       -2.431059    1.059958   -1.488526
     12          1           0       -3.011842   -0.576969   -1.145000
     13          1           0       -1.903950   -0.478509    1.935680
     14          1           0       -0.481383   -1.511218    1.457464
     15          1           0       -0.545857    1.626458    1.476186
     16          1           0        2.240263    1.552357   -0.822706
     17          1           0        2.743718   -0.757130   -0.162941
     18          1           0        1.797442   -1.260709    1.270252
     19          1           0        0.029798   -0.102973   -1.985606
 ---------------------------------------------------------------------

 SCF Done:  E(RB3LYP) =  -423.122883268     A.U. after    1 cycles

 The electronic state is 1-A.
 Alpha  occ. eigenvalues --  -19.15176 -19.13426 -10.24119 -10.22626 -10.22603
 Alpha  occ. eigenvalues --  -10.19757 -10.19158 -10.18595 -10.18059  -1.04994
 Alpha  occ. eigenvalues --   -1.02244  -0.88336  -0.73215  -0.70925  -0.69081
 Alpha  occ. eigenvalues --   -0.61219  -0.56974  -0.52988  -0.52658  -0.49928
 Alpha  occ. eigenvalues --   -0.45947  -0.44348  -0.42078  -0.40854  -0.40015
 Alpha  occ. eigenvalues --   -0.39713  -0.38421  -0.37491  -0.35127  -0.29501
 Alpha  occ. eigenvalues --   -0.29159  -0.28330  -0.24823  -0.23190
 Alpha virt. eigenvalues --    0.05985   0.07878   0.09892   0.11010   0.12056
 Alpha virt. eigenvalues --    0.13290   0.14207   0.15322   0.16059   0.17214
 Alpha virt. eigenvalues --    0.17879   0.18275   0.19546   0.21018   0.23371

 Mulliken charges:
               1
     1  C   -0.506610
     2  C    0.358446
     3  C   -0.349679
     4  C   -0.146530
     5  C    0.376006
     6  O   -0.477657
     7  C   -0.165836
     8  O   -0.295288
     9  C   -0.041177
    10  H    0.119608
    11  H    0.118853
    12  H    0.124248
    13  H    0.109985
    14  H    0.127777
    15  H    0.094167
    16  H    0.282811
    17  H    0.088559
    18  H    0.108783
    19  H    0.073535
 Sum of Mulliken charges =   0.00000

 Dipole moment (field-independent basis, Debye):
    X=              0.0910    Y=              0.6872    Z=             -0.2573  Tot=              0.7394
 Quadrupole moment (field-independent basis, Debye-Ang):
   XX=            -47.6498   YY=            -59.3016   ZZ=            -51.0248
   XY=              0.1766   XZ=             -2.1451   YZ=             -3.0292

  Exact polarizability:  86.509  -0.968  66.802  -0.203  -2.291  71.290
 Approx polarizability: 113.439   1.466 105.166   0.750   0.099 108.525

                      1                      2                      3
                      A                      A                      A
 Frequencies --    140.9006               193.8710               253.0898
 Red. masses --      3.3556                 1.0488                 2.4092
 Frc consts  --      0.0393                 0.0232                 0.0909
 IR Inten    --      1.5284                 0.1751                 1.8719

                      4                      5                      6
                      A                      A                      A
 Frequencies --    257.2871               293.0987               328.1397
 Red. masses --      2.6283                 2.1649                 1.7740
 Frc consts  --      0.1025                 0.1096                 0.1125
 IR Inten    --     12.5743                17.3073                37.2595

                      7                      8                      9
                      A                      A                      A
 Frequencies --    363.0417               375.2278               475.0594
 Red. masses --      2.8401                 2.8825                 2.3514
 Frc consts  --      0.2205                 0.2391                 0.3127
 IR Inten    --      8.1649                35.5075                 1.5511

                     10                     11                     12
                      A                      A                      A
 Frequencies --    503.4804               587.5948               649.0309
 Red. masses --      2.9679                 3.8990                 3.6989
 Frc consts  --      0.4433                 0.7932                 0.9180
 IR Inten    --      2.5096                 2.1001                 2.6028

                     13                     14                     15
                      A                      A                      A
 Frequencies --    755.5430               794.0820               832.5914
 Red. masses --      3.8249                 3.6270                 2.1296
 Frc consts  --      1.2865                 1.3475                 0.8698
 IR Inten    --     11.1872                 5.7093                 4.6370

                     16                     17                     18
                      A                      A                      A
 Frequencies --    884.3438               931.2966               940.9215
 Red. masses --      1.8585                 1.9750                 1.5055
 Frc consts  --      0.8564                 1.0093                 0.7853
 IR Inten    --     17.2988                 5.3025                 8.7711

                     19                     20                     21
                      A                      A                      A
 Frequencies --    968.3005               981.2113               999.2942
 Red. masses --      3.4694                 1.9413                 3.1778
 Frc consts  --      1.9166                 1.1012                 1.8697
 IR Inten    --     82.4618                16.7559                 6.5259

                     22                     23                     24
                      A                      A                      A
 Frequencies --   1009.9816              1054.9340              1066.7323
 Red. masses --      1.5106                 2.2485                 2.0442
 Frc consts  --      0.9079                 1.4744                 1.3705
 IR Inten    --      2.6283                18.0878                37.5557

                     25                     26                     27
                      A                      A                      A
 Frequencies --   1087.2240              1094.1737              1114.0415
 Red. masses --      1.4390                 1.8338                 1.7058
 Frc consts  --      1.0022                 1.2935                 1.2473
 IR Inten    --      8.5722                19.9513                 1.1899

                     28                     29                     30
                      A                      A                      A
 Frequencies --   1147.2310              1170.5480              1218.5643
 Red. masses --      1.2201                 2.3514                 1.5965
 Frc consts  --      0.9461                 1.8982                 1.3967
 IR Inten    --      5.2648                 4.0394                 2.1787

                     31                     32                     33
                      A                      A                      A
 Frequencies --   1247.9179              1276.3579              1284.0358
 Red. masses --      1.8010                 2.3604                 1.7913
 Frc consts  --      1.6525                 2.2655                 1.7400
 IR Inten    --      5.6975                64.0932                19.6411

                     34                     35                     36
                      A                      A                      A
 Frequencies --   1356.8251              1389.4053              1399.0818
 Red. masses --      1.9774                 1.7532                 2.0365
 Frc consts  --      2.1448                 1.9941                 2.3487
 IR Inten    --     63.7214                11.7243                 8.9427

                     37                     38                     39
                      A                      A                      A
 Frequencies --   1419.6188              1485.2267              1495.2003
 Red. masses --      1.5050                 1.0491                 1.2673
 Frc consts  --      1.7870                 1.3635                 1.6693
 IR Inten    --      0.9374                 3.3753                 6.9305

                     40                     41                     42
                      A                      A                      A
 Frequencies --   1498.1223              1513.3101              2991.9875
 Red. masses --      1.1239                 1.1006                 1.0633
 Frc consts  --      1.4862                 1.4851                 5.6084
 IR Inten    --      2.0993                 1.7848                80.0709

                     43                     44                     45
                      A                      A                      A
 Frequencies --   3019.6506              3064.0756              3074.1979
 Red. masses --      1.0359                 1.1012                 1.0902
 Frc consts  --      5.5653                 6.0912                 6.0702
 IR Inten    --     35.9559                41.2997                28.1319

                     46                     47                     48
                      A                      A                      A
 Frequencies --   3078.9204              3095.2901              3128.8730
 Red. masses --      1.0996                 1.1001                 1.0540
 Frc consts  --      6.1418                 6.2101                 6.0795
 IR Inten    --     28.6341                21.6612                15.4341

                     49                     50                     51
                      A                      A                      A
 Frequencies --   3185.6618              3210.5540              3799.3583
 Red. masses --      1.0938                 1.1144                 1.0657
 Frc consts  --      6.5400                 6.7678                 9.0640
 IR Inten    --      8.5487                 7.5788                17.8614

 - Thermochemistry -
 -------------------
 Temperature   298.150 Kelvin.  Pressure   1.00000 Atm.
 Atom     1 has atomic number  6 and mass  12.00000

 Molecular mass:   126.06808 amu.
 Principal axes and moments of inertia in atomic units:
                           1         2         3
     Eigenvalues --   680.505681151.822521319.69827
           X            0.99968  -0.02313   0.01046
           Y            0.02397   0.99578  -0.08856
           Z           -0.00837   0.08878   0.99602
 This molecule is an asymmetric top.
 Rotational symmetry number  1.
 Warning -- assumption of classical behavior for rotation
           may cause significant error
 Rotational temperatures (Kelvin)      0.12728     0.07520     0.06563
 Rotational constants (GHZ):           2.65206     1.56686     1.36754
 Zero-point vibrational energy     415609.6 (Joules/Mol)
                                   99.33309 (Kcal/Mol)
 Warning -- explicit consideration of  11 degrees of freedom as
           vibrations may cause significant error
 Vibrational temperatures:    202.72   278.94   364.14   370.18   421.70
          (Kelvin)            472.12   522.34   539.87   683.50   724.40
                              845.42   933.81  1087.06  1142.51  1197.91
                             1272.37  1339.93  1353.77  1393.17  1411.74
                             1437.76  1453.14  1517.81  1534.79  1564.27
                             1574.27  1602.86  1650.61  1684.16  1753.24
                             1795.47  1836.39  1847.44  1952.17  1999.04
                             2012.96  2042.51  2136.91  2151.26  2155.46
                             2177.31  4304.80  4344.60  4408.52  4423.08
                             4429.87  4453.43  4501.74  4583.45  4619.27
                             5466.42

 Zero-point correction=                           0.158297 (Hartree/Particle)
 Thermal correction to Energy=                    0.166405
 Thermal correction to Enthalpy=                  0.167350
 Thermal correction to Gibbs Free Energy=         0.126286
 Sum of electronic and zero-point Energies=           -422.964586
 Sum of electronic and thermal Energies=              -422.956478
 Sum of electronic and thermal Enthalpies=            -422.955534
 Sum of electronic and thermal Free Energies=         -422.996597

                     E (Thermal)             CV                S
                      KCal/Mol        Cal/Mol-Kelvin    Cal/Mol-Kelvin
 Total                  104.421             32.479             86.426
 Electronic               0.000              0.000              0.000
 Translational            0.889              2.981             40.409
 Rotational               0.889              2.981             28.427
 Vibrational            102.644             26.517             17.590
 Vibration     1          0.615              1.912              2.792
 Vibration     2          0.635              1.848              2.190
 Vibration     3          0.664              1.758              1.709
 Vibration     4          0.667              1.750              1.680
 Vibration     5          0.688              1.687              1.456
 Vibration     6          0.711              1.619              1.269
 Vibration     7          0.737              1.548              1.109
 Vibration     8          0.746              1.523              1.058
 Vibration     9          0.832              1.305              0.724
 Vibration    10          0.859              1.242              0.649
 Vibration    11          0.945              1.058              0.471

 Optimization completed.
    -- Stationary point found.
 Normal termination of Gaussian 09 at Mon Jan 27 18:21:14 2020.
