 Gaussian 09, Revision D.01,
 Gaussian 09:  ES64L-G09RevD.01 24-Apr-2013

 -----------------------------
 # b3lyp 6-31G(2df,p) opt Freq
 -----------------------------

 -----
 titel
 -----
 Symbolic Z-matrix:
 Charge =  0 Multiplicity = 1

 SCF Done:  E(RB3LYP) =  -423.200611623     A.U. after   14 cycles
 Optimization completed.
    -- Stationary point found.
 Normal termination of Gaussian 09 at Mon Jan 27 16:56:18 2020.

 ----------------------------------------------------------------------
 #N Geom=AllCheck Guess=TCheck SCRF=Check GenChk RB3LYP/6-31G(2df,p) Fr
 eq
 ----------------------------------------------------------------------

 Structure from the checkpoint file:  "/scratch/puck/g09_c03d8cd0-283e-4925-b4c3-6fe32c1aa301/Gau-37968.chk"
 -----
 titel
 -----
 Charge =  0 Multiplicity = 1

                         Standard orientation:
 ---------------------------------------------------------------------
 Center     Atomic      Atomic             Coordinates (Angstroms)
 Number     Number       Type             X           Y           Z
 ---------------------------------------------------------------------
      1          6           0       -0.653673   -0.391424    1.551518
      2          6           0       -0.493557   -0.095742    0.057627
      3          6           0        0.092006    1.316135   -0.197785
      4          6           0        1.586601    1.314823   -0.016861
      5          6           0        2.293819    0.188646   -0.015320
      6          6           0        1.648474   -1.151945   -0.208921
      7          8           0        0.295202   -1.072977   -0.621053
      8          6           0       -1.844817   -0.162859   -0.652641
      9          8           0       -2.881840    0.220266   -0.179464
     10          1           0       -1.485532    0.196633    1.945909
     11          1           0       -0.879984   -1.450941    1.701131
     12          1           0        0.253222   -0.140472    2.107140
     13          1           0       -0.157156    1.649415   -1.215667
     14          1           0       -0.386932    2.031359    0.480029
     15          1           0        2.075019    2.277135    0.109792
     16          1           0        3.369697    0.194438    0.135799
     17          1           0        2.163476   -1.714942   -0.996781
     18          1           0        1.741576   -1.751142    0.713941
     19          1           0       -1.773408   -0.575599   -1.682862
 ---------------------------------------------------------------------

 SCF Done:  E(RB3LYP) =  -423.200611623     A.U. after    1 cycles

 The electronic state is 1-A.
 Alpha  occ. eigenvalues --  -19.14775 -19.14418 -10.26844 -10.24834 -10.23912
 Alpha  occ. eigenvalues --  -10.19838 -10.19323 -10.19008 -10.17850  -1.05487
 Alpha  occ. eigenvalues --   -1.04014  -0.81248  -0.79463  -0.71159  -0.66255
 Alpha  occ. eigenvalues --   -0.65122  -0.56784  -0.51454  -0.50754  -0.49946
 Alpha  occ. eigenvalues --   -0.46667  -0.44873  -0.43606  -0.42514  -0.41065
 Alpha  occ. eigenvalues --   -0.40231  -0.38710  -0.37588  -0.36669  -0.36262
 Alpha  occ. eigenvalues --   -0.31698  -0.26484  -0.25439  -0.25054
 Alpha virt. eigenvalues --   -0.02433   0.01431   0.08670   0.10936   0.12589
 Alpha virt. eigenvalues --    0.13045   0.14414   0.14560   0.16305   0.16760
 Alpha virt. eigenvalues --    0.17113   0.17858   0.18555   0.21174   0.21845

 Mulliken charges:
               1
     1  C   -0.441347
     2  C    0.266557
     3  C   -0.280766
     4  C   -0.074247
     5  C   -0.060401
     6  C   -0.123034
     7  O   -0.302319
     8  C    0.135046
     9  O   -0.261623
    10  H    0.142742
    11  H    0.126138
    12  H    0.122658
    13  H    0.116157
    14  H    0.123043
    15  H    0.095875
    16  H    0.095624
    17  H    0.121998
    18  H    0.104805
    19  H    0.093093
 Sum of Mulliken charges =   0.00000

 Dipole moment (field-independent basis, Debye):
    X=              2.8257    Y=              0.2542    Z=              0.3064  Tot=              2.8536
 Quadrupole moment (field-independent basis, Debye-Ang):
   XX=            -58.8620   YY=            -51.4025   ZZ=            -53.0039
   XY=              0.3017   XZ=              0.7081   YZ=             -0.6560

  Exact polarizability:  90.010  -6.192  76.304  -0.059   1.198  63.664
 Approx polarizability: 126.342 -16.683 119.840  -2.216   4.234  95.386

                      1                      2                      3
                      A                      A                      A
 Frequencies --     77.7872               131.0000               184.4691
 Red. masses --      4.1173                 2.8818                 2.4577
 Frc consts  --      0.0147                 0.0291                 0.0493
 IR Inten    --      6.6400                 0.4776                 1.9414

                      4                      5                      6
                      A                      A                      A
 Frequencies --    222.9551               241.2289               284.1013
 Red. masses --      1.2108                 2.0978                 2.6400
 Frc consts  --      0.0355                 0.0719                 0.1255
 IR Inten    --      0.5682                 5.5002                 4.8977

                      7                      8                      9
                      A                      A                      A
 Frequencies --    347.7142               386.2532               426.4293
 Red. masses --      2.5576                 2.4565                 3.4559
 Frc consts  --      0.1822                 0.2159                 0.3703
 IR Inten    --      0.8860                 0.0949                 2.0308

                     10                     11                     12
                      A                      A                      A
 Frequencies --    431.3437               533.5236               634.6970
 Red. masses --      4.1249                 5.3075                 3.6515
 Frc consts  --      0.4522                 0.8901                 0.8667
 IR Inten    --      5.3104                 2.0001                18.2634

                     13                     14                     15
                      A                      A                      A
 Frequencies --    666.9022               742.0232               839.0636
 Red. masses --      1.2267                 3.6266                 3.6649
 Frc consts  --      0.3215                 1.1765                 1.5202
 IR Inten    --     18.3082                 8.7316                18.7711

                     16                     17                     18
                      A                      A                      A
 Frequencies --    888.1913               903.4318               930.4926
 Red. masses --      2.8950                 2.3804                 2.3493
 Frc consts  --      1.3456                 1.1447                 1.1984
 IR Inten    --      6.7539                 5.7342                10.1410

                     19                     20                     21
                      A                      A                      A
 Frequencies --    963.9973               990.0724               996.3283
 Red. masses --      1.8770                 1.7422                 1.2978
 Frc consts  --      1.0277                 1.0062                 0.7590
 IR Inten    --     11.9313                 6.7791                 2.1305

                     22                     23                     24
                      A                      A                      A
 Frequencies --   1005.0063              1042.2390              1117.5693
 Red. masses --      1.8268                 1.8094                 2.4398
 Frc consts  --      1.0871                 1.1580                 1.7953
 IR Inten    --      3.9830                 9.3914                 2.1367

                     25                     26                     27
                      A                      A                      A
 Frequencies --   1124.2945              1179.4783              1191.1905
 Red. masses --      2.2797                 2.3334                 1.5360
 Frc consts  --      1.6978                 1.9126                 1.2841
 IR Inten    --     80.3891                 6.2306                 0.4350

                     28                     29                     30
                      A                      A                      A
 Frequencies --   1218.4658              1268.7428              1290.2641
 Red. masses --      1.6646                 1.1130                 1.8770
 Frc consts  --      1.4561                 1.0556                 1.8411
 IR Inten    --     46.4906                 0.0483                10.3082

                     31                     32                     33
                      A                      A                      A
 Frequencies --   1353.7407              1381.5054              1394.2358
 Red. masses --      1.5980                 1.2261                 1.3235
 Frc consts  --      1.7254                 1.3788                 1.5159
 IR Inten    --      4.0992                 0.9073                 4.1316

                     34                     35                     36
                      A                      A                      A
 Frequencies --   1405.2519              1411.9419              1469.2204
 Red. masses --      1.2857                 1.6454                 1.0824
 Frc consts  --      1.4959                 1.9327                 1.3767
 IR Inten    --     20.6666                 9.6258                 3.6530

                     37                     38                     39
                      A                      A                      A
 Frequencies --   1485.4073              1493.0702              1501.0912
 Red. masses --      1.0653                 1.0578                 1.0700
 Frc consts  --      1.3849                 1.3893                 1.4205
 IR Inten    --      2.2241                 4.3562                 1.1029

                     40                     41                     42
                      A                      A                      A
 Frequencies --   1729.5815              1839.3789              2900.2736
 Red. masses --      6.5547                10.7788                 1.0848
 Frc consts  --     11.5528                21.4864                 5.3762
 IR Inten    --      3.9431               145.2632                82.2041

                     43                     44                     45
                      A                      A                      A
 Frequencies --   2951.8826              3004.4862              3047.0505
 Red. masses --      1.0726                 1.0689                 1.0868
 Frc consts  --      5.5066                 5.6852                 5.9450
 IR Inten    --     53.5612                23.6941                29.3553

                     46                     47                     48
                      A                      A                      A
 Frequencies --   3049.8067              3066.0281              3124.7112
 Red. masses --      1.0350                 1.0911                 1.1024
 Frc consts  --      5.6720                 6.0431                 6.3417
 IR Inten    --     11.6353                12.5431                14.2154

                     49                     50                     51
                      A                      A                      A
 Frequencies --   3136.0878              3155.4757              3178.5497
 Red. masses --      1.1016                 1.0839                 1.0980
 Frc consts  --      6.3834                 6.3586                 6.5362
 IR Inten    --      6.7196                 6.0021                24.6011

 - Thermochemistry -
 -------------------
 Temperature   298.150 Kelvin.  Pressure   1.00000 Atm.
 Atom     1 has atomic number  6 and mass  12.00000

 Molecular mass:   126.06808 amu.
 Principal axes and moments of inertia in atomic units:
                           1         2         3
     Eigenvalues --   567.911401420.795091568.07200
           X            0.99999  -0.00196  -0.00335
           Y            0.00182   0.99918  -0.04055
           Z            0.00342   0.04054   0.99917
 This molecule is an asymmetric top.
 Rotational symmetry number  1.
 Warning -- assumption of classical behavior for rotation
           may cause significant error
 Rotational temperatures (Kelvin)      0.15251     0.06096     0.05524
 Rotational constants (GHZ):           3.17786     1.27023     1.15093
 Zero-point vibrational energy     414733.5 (Joules/Mol)
                                   99.12369 (Kcal/Mol)
 Warning -- explicit consideration of  11 degrees of freedom as
           vibrations may cause significant error
 Vibrational temperatures:    111.92   188.48   265.41   320.78   347.07
          (Kelvin)            408.76   500.28   555.73   613.54   620.61
                              767.62   913.19   959.52  1067.60  1207.22
                             1277.91  1299.84  1338.77  1386.98  1424.49
                             1433.49  1445.98  1499.55  1607.93  1617.61
                             1697.00  1713.86  1753.10  1825.44  1856.40
                             1947.73  1987.68  2005.99  2021.84  2031.47
                             2113.88  2137.17  2148.19  2159.73  2488.48
                             2646.45  4172.84  4247.10  4322.78  4384.02
                             4387.99  4411.33  4495.76  4512.13  4540.02
                             4573.22

 Zero-point correction=                           0.157964 (Hartree/Particle)
 Thermal correction to Energy=                    0.166714
 Thermal correction to Enthalpy=                  0.167658
 Thermal correction to Gibbs Free Energy=         0.124688
 Sum of electronic and zero-point Energies=           -423.042648
 Sum of electronic and thermal Energies=              -423.033897
 Sum of electronic and thermal Enthalpies=            -423.032953
 Sum of electronic and thermal Free Energies=         -423.075923

                     E (Thermal)             CV                S
                      KCal/Mol        Cal/Mol-Kelvin    Cal/Mol-Kelvin
 Total                  104.615             33.007             90.438
 Electronic               0.000              0.000              0.000
 Translational            0.889              2.981             40.409
 Rotational               0.889              2.981             28.627
 Vibrational            102.837             27.045             21.402
 Vibration     1          0.599              1.964              3.946
 Vibration     2          0.612              1.922              2.931
 Vibration     3          0.631              1.861              2.283
 Vibration     4          0.649              1.806              1.935
 Vibration     5          0.658              1.777              1.794
 Vibration     6          0.683              1.703              1.509
 Vibration     7          0.725              1.580              1.177
 Vibration     8          0.755              1.500              1.015
 Vibration     9          0.788              1.413              0.870
 Vibration    10          0.792              1.402              0.854
 Vibration    11          0.889              1.176              0.579

 Optimization completed.
    -- Stationary point found.
 Normal termination of Gaussian 09 at Mon Jan 27 17:54:46 2020.
