 Gaussian 09, Revision D.01,
 Gaussian 09:  ES64L-G09RevD.01 24-Apr-2013

 -----------------------------
 # b3lyp 6-31G(2df,p) opt Freq
 -----------------------------

 -----
 titel
 -----
 Symbolic Z-matrix:
 Charge =  0 Multiplicity = 1

 SCF Done:  E(RB3LYP) =  -423.200315273     A.U. after   14 cycles
 Optimization completed.
    -- Stationary point found.
 Normal termination of Gaussian 09 at Tue Jan 28 01:58:00 2020.

 ----------------------------------------------------------------------
 #N Geom=AllCheck Guess=TCheck SCRF=Check GenChk RB3LYP/6-31G(2df,p) Fr
 eq
 ----------------------------------------------------------------------

 Structure from the checkpoint file:  "/scratch/puck/g09_37743512-3829-405c-bd7d-2d0d71764016/Gau-169932.chk"
 -----
 titel
 -----
 Charge =  0 Multiplicity = 1

                         Standard orientation:
 ---------------------------------------------------------------------
 Center     Atomic      Atomic             Coordinates (Angstroms)
 Number     Number       Type             X           Y           Z
 ---------------------------------------------------------------------
      1          8           0       -2.538056   -1.016437   -0.490751
      2          6           0       -1.990303    0.237432   -0.201120
      3          6           0       -1.439012    0.519240    1.178727
      4          6           0       -0.512366    0.283252   -0.002267
      5          6           0        0.352469    1.418123   -0.555521
      6          6           0        1.768298    1.069711   -0.068212
      7          6           0        1.786538   -0.461661    0.029487
      8          8           0        2.767583   -1.146812    0.155612
      9          6           0        0.342531   -0.973282   -0.059732
     10          1           0       -3.400955   -1.071643   -0.066947
     11          1           0       -2.450435    1.070719   -0.734978
     12          1           0       -1.536279    1.524178    1.578218
     13          1           0       -1.521560   -0.276209    1.912634
     14          1           0        0.319917    1.408869   -1.652516
     15          1           0        0.013497    2.404454   -0.228352
     16          1           0        2.582865    1.434392   -0.697712
     17          1           0        1.942593    1.457091    0.944200
     18          1           0        0.225875   -1.492134   -1.020716
     19          1           0        0.139344   -1.710621    0.719098
 ---------------------------------------------------------------------

 SCF Done:  E(RB3LYP) =  -423.200315273     A.U. after    1 cycles

 The electronic state is 1-A.
 Alpha  occ. eigenvalues --  -19.14862 -19.12353 -10.26356 -10.23889 -10.20279
 Alpha  occ. eigenvalues --  -10.19341 -10.18921 -10.18842 -10.18666  -1.03506
 Alpha  occ. eigenvalues --   -1.03306  -0.87250  -0.79630  -0.71995  -0.65729
 Alpha  occ. eigenvalues --   -0.61248  -0.55183  -0.53965  -0.51247  -0.48153
 Alpha  occ. eigenvalues --   -0.47577  -0.45029  -0.43100  -0.41076  -0.40332
 Alpha  occ. eigenvalues --   -0.39026  -0.37986  -0.37209  -0.34916  -0.33326
 Alpha  occ. eigenvalues --   -0.32297  -0.28069  -0.26190  -0.23320
 Alpha virt. eigenvalues --   -0.01184   0.07248   0.09136   0.10657   0.11353
 Alpha virt. eigenvalues --    0.12188   0.14698   0.15076   0.15729   0.16660
 Alpha virt. eigenvalues --    0.17396   0.19780   0.20339   0.21340   0.23806

 Mulliken charges:
               1
     1  O   -0.419281
     2  C    0.036449
     3  C   -0.380036
     4  C    0.339013
     5  C   -0.303621
     6  C   -0.315056
     7  C    0.399372
     8  O   -0.313232
     9  C   -0.386281
    10  H    0.289758
    11  H    0.083553
    12  H    0.109635
    13  H    0.115423
    14  H    0.109745
    15  H    0.102995
    16  H    0.126663
    17  H    0.132556
    18  H    0.140972
    19  H    0.131373
 Sum of Mulliken charges =   0.00000

 Dipole moment (field-independent basis, Debye):
    X=             -3.0746    Y=              2.2878    Z=              0.4970  Tot=              3.8645
 Quadrupole moment (field-independent basis, Debye-Ang):
   XX=            -56.2376   YY=            -53.9445   ZZ=            -52.1523
   XY=              5.0633   XZ=             -3.2854   YZ=             -0.9944

  Exact polarizability:  88.270  -0.026  74.540  -1.726  -0.353  64.122
 Approx polarizability: 117.849  -4.166 109.361  -0.822   0.887  99.899

                      1                      2                      3
                      A                      A                      A
 Frequencies --     62.7316               116.9191               156.0685
 Red. masses --      3.7484                 2.4638                 4.6044
 Frc consts  --      0.0087                 0.0198                 0.0661
 IR Inten    --      2.3094                 1.4298                 0.3963

                      4                      5                      6
                      A                      A                      A
 Frequencies --    243.3370               290.2889               359.8306
 Red. masses --      2.4951                 1.2706                 2.0524
 Frc consts  --      0.0870                 0.0631                 0.1566
 IR Inten    --      6.2084                94.4303                10.4322

                      7                      8                      9
                      A                      A                      A
 Frequencies --    387.0671               452.4734               466.3765
 Red. masses --      2.7454                 2.7937                 2.2973
 Frc consts  --      0.2423                 0.3370                 0.2944
 IR Inten    --      6.4063                 4.7916                 6.0852

                     10                     11                     12
                      A                      A                      A
 Frequencies --    477.1101               565.3348               595.1412
 Red. masses --      3.0219                 4.5822                 2.4453
 Frc consts  --      0.4053                 0.8629                 0.5103
 IR Inten    --      4.9220                 3.8350                 1.5535

                     13                     14                     15
                      A                      A                      A
 Frequencies --    727.3598               744.5205               809.3828
 Red. masses --      2.2123                 2.7627                 2.6250
 Frc consts  --      0.6896                 0.9023                 1.0132
 IR Inten    --      1.9565                 1.9073                 2.4933

                     16                     17                     18
                      A                      A                      A
 Frequencies --    842.2201               885.2599               919.9128
 Red. masses --      2.0649                 2.0141                 1.4727
 Frc consts  --      0.8630                 0.9300                 0.7343
 IR Inten    --      0.4666                 7.1439                 2.8916

                     19                     20                     21
                      A                      A                      A
 Frequencies --    945.0963               980.0639              1004.3506
 Red. masses --      1.7192                 2.1404                 1.9679
 Frc consts  --      0.9047                 1.2113                 1.1695
 IR Inten    --      3.5324                14.4273                 6.7375

                     22                     23                     24
                      A                      A                      A
 Frequencies --   1020.2823              1043.2682              1083.8966
 Red. masses --      1.6326                 1.5924                 1.6956
 Frc consts  --      1.0013                 1.0212                 1.1737
 IR Inten    --      2.8634                 5.9594                 8.4945

                     25                     26                     27
                      A                      A                      A
 Frequencies --   1135.1018              1157.0040              1169.5952
 Red. masses --      2.7466                 2.2497                 1.4376
 Frc consts  --      2.0851                 1.7744                 1.1587
 IR Inten    --     63.6326                60.8543                 0.6976

                     28                     29                     30
                      A                      A                      A
 Frequencies --   1190.9848              1210.0650              1246.9523
 Red. masses --      1.9137                 1.5878                 1.5391
 Frc consts  --      1.5993                 1.3698                 1.4100
 IR Inten    --     29.6259                 9.0647                 4.6382

                     31                     32                     33
                      A                      A                      A
 Frequencies --   1258.5579              1288.2688              1305.3141
 Red. masses --      1.6276                 1.4790                 1.4038
 Frc consts  --      1.5189                 1.4462                 1.4092
 IR Inten    --     20.9792                10.9050                25.1375

                     34                     35                     36
                      A                      A                      A
 Frequencies --   1321.7754              1362.4799              1427.6514
 Red. masses --      1.4867                 1.7424                 1.2804
 Frc consts  --      1.5303                 1.9057                 1.5376
 IR Inten    --     15.2820                 0.2989                 2.3736

                     37                     38                     39
                      A                      A                      A
 Frequencies --   1447.9389              1450.2170              1493.9079
 Red. masses --      1.1069                 1.0914                 1.8616
 Frc consts  --      1.3673                 1.3524                 2.4479
 IR Inten    --     19.0243                 1.8471                 9.1539

                     40                     41                     42
                      A                      A                      A
 Frequencies --   1499.2553              1847.8726              3027.0088
 Red. masses --      1.1430                12.7174                 1.0683
 Frc consts  --      1.5138                25.5855                 5.7675
 IR Inten    --      1.4602               235.7288                19.6496

                     43                     44                     45
                      A                      A                      A
 Frequencies --   3033.6701              3036.6697              3082.9419
 Red. masses --      1.0693                 1.0656                 1.0874
 Frc consts  --      5.7982                 5.7896                 6.0893
 IR Inten    --     12.0034                16.1240                30.6517

                     46                     47                     48
                      A                      A                      A
 Frequencies --   3091.7534              3112.1555              3112.8561
 Red. masses --      1.0961                 1.0955                 1.0925
 Frc consts  --      6.1733                 6.2515                 6.2372
 IR Inten    --     25.4329                15.6866                 4.3649

                     49                     50                     51
                      A                      A                      A
 Frequencies --   3119.5097              3210.3509              3805.6079
 Red. masses --      1.0545                 1.1170                 1.0663
 Frc consts  --      6.0462                 6.7831                 9.0985
 IR Inten    --     11.8975                 9.5823                24.0576

 - Thermochemistry -
 -------------------
 Temperature   298.150 Kelvin.  Pressure   1.00000 Atm.
 Atom     1 has atomic number  8 and mass  15.99491

 Molecular mass:   126.06808 amu.
 Principal axes and moments of inertia in atomic units:
                           1         2         3
     Eigenvalues --   548.492171609.189381888.70041
           X            0.99978   0.01787  -0.01064
           Y           -0.01801   0.99975  -0.01361
           Z            0.01039   0.01380   0.99985
 This molecule is an asymmetric top.
 Rotational symmetry number  1.
 Warning -- assumption of classical behavior for rotation
           may cause significant error
 Rotational temperatures (Kelvin)      0.15791     0.05382     0.04586
 Rotational constants (GHZ):           3.29037     1.12152     0.95555
 Zero-point vibrational energy     416442.6 (Joules/Mol)
                                   99.53216 (Kcal/Mol)
 Warning -- explicit consideration of  12 degrees of freedom as
           vibrations may cause significant error
 Vibrational temperatures:     90.26   168.22   224.55   350.11   417.66
          (Kelvin)            517.72   556.90   651.01   671.01   686.45
                              813.39   856.27  1046.51  1071.20  1164.52
                             1211.77  1273.69  1323.55  1359.78  1410.09
                             1445.03  1467.96  1501.03  1559.48  1633.16
                             1664.67  1682.78  1713.56  1741.01  1794.08
                             1810.78  1853.53  1878.05  1901.74  1960.30
                             2054.07  2083.26  2086.54  2149.40  2157.09
                             2658.67  4355.19  4364.77  4369.08  4435.66
                             4448.34  4477.69  4478.70  4488.27  4618.97
                             5475.41

 Zero-point correction=                           0.158615 (Hartree/Particle)
 Thermal correction to Energy=                    0.167142
 Thermal correction to Enthalpy=                  0.168087
 Thermal correction to Gibbs Free Energy=         0.125213
 Sum of electronic and zero-point Energies=           -423.041701
 Sum of electronic and thermal Energies=              -423.033173
 Sum of electronic and thermal Enthalpies=            -423.032229
 Sum of electronic and thermal Free Energies=         -423.075103

                     E (Thermal)             CV                S
                      KCal/Mol        Cal/Mol-Kelvin    Cal/Mol-Kelvin
 Total                  104.883             32.818             90.236
 Electronic               0.000              0.000              0.000
 Translational            0.889              2.981             40.409
 Rotational               0.889              2.981             28.901
 Vibrational            103.106             26.856             20.926
 Vibration     1          0.597              1.972              4.369
 Vibration     2          0.608              1.935              3.151
 Vibration     3          0.620              1.896              2.597
 Vibration     4          0.659              1.774              1.778
 Vibration     5          0.686              1.692              1.472
 Vibration     6          0.734              1.555              1.123
 Vibration     7          0.755              1.498              1.011
 Vibration     8          0.811              1.355              0.788
 Vibration     9          0.824              1.325              0.748
 Vibration    10          0.834              1.301              0.718
 Vibration    11          0.921              1.106              0.513
 Vibration    12          0.953              1.042              0.458

 Normal termination of Gaussian 09 at Tue Jan 28 02:32:06 2020.
