 Gaussian 09, Revision D.01,
 Gaussian 09:  ES64L-G09RevD.01 24-Apr-2013

 -----------------------------
 # b3lyp 6-31G(2df,p) opt Freq
 -----------------------------

 -----
 titel
 -----
 Symbolic Z-matrix:
 Charge =  0 Multiplicity = 1

 SCF Done:  E(RB3LYP) =  -423.160104720     A.U. after   14 cycles
 Optimization completed.
    -- Stationary point found.
 Normal termination of Gaussian 09 at Mon Jan 27 16:44:44 2020.

 ----------------------------------------------------------------------
 #N Geom=AllCheck Guess=TCheck SCRF=Check GenChk RB3LYP/6-31G(2df,p) Fr
 eq
 ----------------------------------------------------------------------

 Structure from the checkpoint file:  "/scratch/puck/g09_03f24317-10f0-4bfa-84fa-28cadfadf260/Gau-84692.chk"
 -----
 titel
 -----
 Charge =  0 Multiplicity = 1

                         Standard orientation:
 ---------------------------------------------------------------------
 Center     Atomic      Atomic             Coordinates (Angstroms)
 Number     Number       Type             X           Y           Z
 ---------------------------------------------------------------------
      1          6           0        1.038259    0.585912    1.564352
      2          6           0        0.523496    0.434170    0.145239
      3          8           0        0.145721    1.693625   -0.465310
      4          6           0       -1.216772    1.262134   -0.687411
      5          6           0       -0.916789   -0.090202   -0.055742
      6          6           0       -1.749268   -0.900480    0.887424
      7          6           0       -1.377447   -1.455451   -0.468296
      8          6           0        1.507717   -0.306715   -0.749548
      9          8           0        2.141315   -1.270673   -0.402695
     10          1           0        1.898085    1.262750    1.578848
     11          1           0        0.261520    0.993261    2.215563
     12          1           0        1.364328   -0.385841    1.945103
     13          1           0       -1.937127    1.895079   -0.153694
     14          1           0       -1.471883    1.247640   -1.754822
     15          1           0       -1.267349   -1.324447    1.762107
     16          1           0       -2.774607   -0.583405    1.051436
     17          1           0       -0.638932   -2.249739   -0.505777
     18          1           0       -2.148847   -1.521202   -1.229030
     19          1           0        1.563352    0.106087   -1.781800
 ---------------------------------------------------------------------

 SCF Done:  E(RB3LYP) =  -423.160104720     A.U. after    1 cycles

 The electronic state is 1-A.
 Alpha  occ. eigenvalues --  -19.14551 -19.14346 -10.26979 -10.24948 -10.23929
 Alpha  occ. eigenvalues --  -10.21406 -10.19948 -10.19847 -10.18229  -1.05693
 Alpha  occ. eigenvalues --   -1.04409  -0.86937  -0.76857  -0.69544  -0.67228
 Alpha  occ. eigenvalues --   -0.61549  -0.59781  -0.52471  -0.50822  -0.50563
 Alpha  occ. eigenvalues --   -0.47762  -0.46217  -0.43229  -0.42063  -0.40615
 Alpha  occ. eigenvalues --   -0.39260  -0.38103  -0.37308  -0.36679  -0.32954
 Alpha  occ. eigenvalues --   -0.30715  -0.29024  -0.27843  -0.24000
 Alpha virt. eigenvalues --   -0.03018   0.07039   0.09483   0.09899   0.10862
 Alpha virt. eigenvalues --    0.12055   0.12669   0.13944   0.15371   0.16690
 Alpha virt. eigenvalues --    0.17676   0.18650   0.20372   0.21772   0.22172

 Mulliken charges:
               1
     1  C   -0.445138
     2  C    0.259080
     3  O   -0.333129
     4  C   -0.143714
     5  C    0.249298
     6  C   -0.320882
     7  C   -0.330670
     8  C    0.125130
     9  O   -0.259541
    10  H    0.132156
    11  H    0.121310
    12  H    0.140302
    13  H    0.107546
    14  H    0.107071
    15  H    0.126573
    16  H    0.118798
    17  H    0.137367
    18  H    0.118925
    19  H    0.089516
 Sum of Mulliken charges =   0.00000

 Dipole moment (field-independent basis, Debye):
    X=             -2.5004    Y=              0.2798    Z=              0.2629  Tot=              2.5297
 Quadrupole moment (field-independent basis, Debye-Ang):
   XX=            -54.2410   YY=            -58.5655   ZZ=            -50.8205
   XY=              2.5011   XZ=              1.4132   YZ=              0.2462

  Exact polarizability:  80.539  -2.674  72.614   1.069  -1.153  73.167
 Approx polarizability: 112.484  -7.869 111.546   1.188  -4.463 104.873

                      1                      2                      3
                      A                      A                      A
 Frequencies --     59.1300                78.2340               176.2687
 Red. masses --      4.5467                 2.8659                 2.3995
 Frc consts  --      0.0094                 0.0103                 0.0439
 IR Inten    --      8.8576                 0.3012                 1.6081

                      4                      5                      6
                      A                      A                      A
 Frequencies --    204.2993               219.3269               253.5911
 Red. masses --      1.3219                 1.8063                 3.2716
 Frc consts  --      0.0325                 0.0512                 0.1240
 IR Inten    --      0.5608                 2.3210                 8.7795

                      7                      8                      9
                      A                      A                      A
 Frequencies --    273.2574               354.0572               388.8632
 Red. masses --      2.0003                 3.1026                 2.5690
 Frc consts  --      0.0880                 0.2292                 0.2289
 IR Inten    --      0.6039                 2.5146                 2.0047

                     10                     11                     12
                      A                      A                      A
 Frequencies --    456.5830               503.0983               581.9115
 Red. masses --      4.6267                 3.6820                 4.4405
 Frc consts  --      0.5683                 0.5491                 0.8859
 IR Inten    --      2.8254                 9.7371                 4.1992

                     13                     14                     15
                      A                      A                      A
 Frequencies --    723.0327               777.1989               868.1632
 Red. masses --      3.1164                 1.0678                 1.8252
 Frc consts  --      0.9599                 0.3800                 0.8105
 IR Inten    --     12.5120                 0.3701                 5.2538

                     16                     17                     18
                      A                      A                      A
 Frequencies --    879.1015               889.2076               918.3840
 Red. masses --      2.7785                 2.1199                 1.7301
 Frc consts  --      1.2651                 0.9876                 0.8597
 IR Inten    --     17.4624                 0.4299                 4.0157

                     19                     20                     21
                      A                      A                      A
 Frequencies --    952.0566               984.9898               999.2343
 Red. masses --      1.8941                 2.0695                 2.2001
 Frc consts  --      1.0115                 1.1830                 1.2943
 IR Inten    --     20.0952                 3.7893                21.8379

                     22                     23                     24
                      A                      A                      A
 Frequencies --   1022.7325              1061.5492              1082.8979
 Red. masses --      4.6857                 1.4686                 1.4806
 Frc consts  --      2.8877                 0.9751                 1.0230
 IR Inten    --     66.9552                 7.2300                 0.7101

                     25                     26                     27
                      A                      A                      A
 Frequencies --   1096.8987              1137.9013              1153.3008
 Red. masses --      1.8335                 2.4333                 1.1204
 Frc consts  --      1.2998                 1.8563                 0.8780
 IR Inten    --      1.1888                31.5721                 0.4641

                     28                     29                     30
                      A                      A                      A
 Frequencies --   1177.9127              1190.1934              1230.0319
 Red. masses --      2.6183                 1.2984                 3.5552
 Frc consts  --      2.1404                 1.0837                 3.1692
 IR Inten    --     17.8949                 0.4709                 3.9361

                     31                     32                     33
                      A                      A                      A
 Frequencies --   1260.1003              1325.9304              1381.4110
 Red. masses --      3.2450                 1.4592                 1.2215
 Frc consts  --      3.0358                 1.5115                 1.3734
 IR Inten    --      3.2542                 3.2945                 1.1227

                     34                     35                     36
                      A                      A                      A
 Frequencies --   1398.7231              1401.2297              1461.8679
 Red. masses --      1.6483                 1.5962                 1.0854
 Frc consts  --      1.9000                 1.8465                 1.3666
 IR Inten    --      8.6352                 9.8148                 2.6005

                     37                     38                     39
                      A                      A                      A
 Frequencies --   1481.1374              1486.6763              1503.4785
 Red. masses --      1.0543                 1.0719                 1.5612
 Frc consts  --      1.3627                 1.3959                 2.0792
 IR Inten    --      3.9120                 2.6794                 1.1509

                     40                     41                     42
                      A                      A                      A
 Frequencies --   1526.0442              1822.4106              2888.0094
 Red. masses --      1.1005                10.9113                 1.0847
 Frc consts  --      1.5099                21.3510                 5.3304
 IR Inten    --      0.9789               123.6060                89.9144

                     43                     44                     45
                      A                      A                      A
 Frequencies --   3007.5329              3045.7728              3049.8283
 Red. masses --      1.0547                 1.0343                 1.1109
 Frc consts  --      5.6208                 5.6533                 6.0878
 IR Inten    --     74.4647                 8.2557                37.6516

                     46                     47                     48
                      A                      A                      A
 Frequencies --   3119.4970              3125.4424              3128.2522
 Red. masses --      1.1006                 1.0504                 1.0583
 Frc consts  --      6.3105                 6.0457                 6.1021
 IR Inten    --     11.4816                13.3317                 7.5446

                     49                     50                     51
                      A                      A                      A
 Frequencies --   3133.6361              3205.2031              3219.4156
 Red. masses --      1.1029                 1.1178                 1.1155
 Frc consts  --      6.3812                 6.7661                 6.8120
 IR Inten    --      9.7138                 0.2296                 9.2470

 - Thermochemistry -
 -------------------
 Temperature   298.150 Kelvin.  Pressure   1.00000 Atm.
 Atom     1 has atomic number  6 and mass  12.00000

 Molecular mass:   126.06808 amu.
 Principal axes and moments of inertia in atomic units:
                           1         2         3
     Eigenvalues --   837.222901131.237781371.12488
           X            0.99799   0.05728   0.02710
           Y           -0.05768   0.99824   0.01396
           Z           -0.02625  -0.01550   0.99954
 This molecule is an asymmetric top.
 Rotational symmetry number  1.
 Warning -- assumption of classical behavior for rotation
           may cause significant error
 Rotational temperatures (Kelvin)      0.10345     0.07657     0.06317
 Rotational constants (GHZ):           2.15563     1.59537     1.31625
 Zero-point vibrational energy     410707.9 (Joules/Mol)
                                   98.16155 (Kcal/Mol)
 Warning -- explicit consideration of  12 degrees of freedom as
           vibrations may cause significant error
 Vibrational temperatures:     85.07   112.56   253.61   293.94   315.56
          (Kelvin)            364.86   393.16   509.41   559.49   656.92
                              723.85   837.24  1040.28  1118.21  1249.09
                             1264.83  1279.37  1321.35  1369.80  1417.18
                             1437.67  1471.48  1527.33  1558.05  1578.19
                             1637.18  1659.34  1694.75  1712.42  1769.74
                             1813.00  1907.72  1987.54  2012.45  2016.05
                             2103.30  2131.02  2138.99  2163.17  2195.63
                             2622.04  4155.20  4327.16  4382.18  4388.02
                             4488.25  4496.81  4500.85  4508.60  4611.57
                             4632.02

 Zero-point correction=                           0.156430 (Hartree/Particle)
 Thermal correction to Energy=                    0.165619
 Thermal correction to Enthalpy=                  0.166563
 Thermal correction to Gibbs Free Energy=         0.122213
 Sum of electronic and zero-point Energies=           -423.003674
 Sum of electronic and thermal Energies=              -422.994486
 Sum of electronic and thermal Enthalpies=            -422.993542
 Sum of electronic and thermal Free Energies=         -423.037892

                     E (Thermal)             CV                S
                      KCal/Mol        Cal/Mol-Kelvin    Cal/Mol-Kelvin
 Total                  103.927             33.750             93.343
 Electronic               0.000              0.000              0.000
 Translational            0.889              2.981             40.409
 Rotational               0.889              2.981             28.653
 Vibrational            102.150             27.788             24.281
 Vibration     1          0.597              1.974              4.486
 Vibration     2          0.600              1.964              3.935
 Vibration     3          0.628              1.872              2.368
 Vibration     4          0.640              1.834              2.094
 Vibration     5          0.647              1.812              1.965
 Vibration     6          0.665              1.757              1.705
 Vibration     7          0.676              1.723              1.576
 Vibration     8          0.730              1.567              1.148
 Vibration     9          0.757              1.494              1.005
 Vibration    10          0.815              1.346              0.776
 Vibration    11          0.858              1.243              0.650
 Vibration    12          0.939              1.070              0.482

 Normal termination of Gaussian 09 at Mon Jan 27 17:27:04 2020.
