 Gaussian 09, Revision D.01,
 Gaussian 09:  ES64L-G09RevD.01 24-Apr-2013

 -----------------------------
 # b3lyp 6-31G(2df,p) opt Freq
 -----------------------------

 -----
 titel
 -----
 Symbolic Z-matrix:
 Charge =  0 Multiplicity = 1

 SCF Done:  E(RB3LYP) =  -423.184647807     A.U. after   14 cycles
 SCF Done:  E(RB3LYP) =  -423.184647736     A.U. after    7 cycles
 SCF Done:  E(RB3LYP) =  -423.184647748     A.U. after    7 cycles
 SCF Done:  E(RB3LYP) =  -423.184647819     A.U. after    7 cycles
 SCF Done:  E(RB3LYP) =  -423.184647871     A.U. after    6 cycles
 Optimization completed.
    -- Stationary point found.
 Normal termination of Gaussian 09 at Tue Jan 28 08:26:15 2020.

 ----------------------------------------------------------------------
 #N Geom=AllCheck Guess=TCheck SCRF=Check GenChk RB3LYP/6-31G(2df,p) Fr
 eq
 ----------------------------------------------------------------------

 Structure from the checkpoint file:  "/scratch/puck/g09_1cd18d29-3d1a-4abf-893a-b9893b7a0500/Gau-127988.chk"
 -----
 titel
 -----
 Charge =  0 Multiplicity = 1

                         Standard orientation:
 ---------------------------------------------------------------------
 Center     Atomic      Atomic             Coordinates (Angstroms)
 Number     Number       Type             X           Y           Z
 ---------------------------------------------------------------------
      1          6           0       -2.768243    0.609844    0.082256
      2          8           0       -1.361828    0.608356    0.358902
      3          6           0       -0.661360   -0.382122   -0.218553
      4          8           0       -1.152527   -1.235457   -0.911079
      5          6           0        0.835365   -0.295885    0.149016
      6          6           0        0.972884   -0.445109    1.686822
      7          6           0        1.592771   -1.428328   -0.572179
      8          6           0        1.357779    1.006671   -0.273196
      9          6           0        1.818160    2.058690   -0.627490
     10          1           0       -3.230793   -0.316688    0.431688
     11          1           0       -3.174214    1.466997    0.619093
     12          1           0       -2.947782    0.709478   -0.991046
     13          1           0        2.028383   -0.400532    1.966776
     14          1           0        0.437973    0.352252    2.204232
     15          1           0        0.568861   -1.410524    2.007684
     16          1           0        1.196239   -2.399221   -0.266131
     17          1           0        1.483062   -1.342612   -1.654453
     18          1           0        2.654967   -1.378134   -0.320550
     19          1           0        2.214002    2.993229   -0.939936
 ---------------------------------------------------------------------

 SCF Done:  E(RB3LYP) =  -423.184647871     A.U. after    1 cycles

 The electronic state is 1-A.
 Alpha  occ. eigenvalues --  -19.18676 -19.13005 -10.30730 -10.23981 -10.23188
 Alpha  occ. eigenvalues --  -10.18804 -10.18277 -10.17940 -10.17386  -1.10655
 Alpha  occ. eigenvalues --   -1.01810  -0.83515  -0.73384  -0.72844  -0.69326
 Alpha  occ. eigenvalues --   -0.63476  -0.57107  -0.53811  -0.50369  -0.48573
 Alpha  occ. eigenvalues --   -0.47791  -0.45460  -0.43499  -0.42044  -0.39830
 Alpha  occ. eigenvalues --   -0.38776  -0.37872  -0.36841  -0.35788  -0.35056
 Alpha  occ. eigenvalues --   -0.30517  -0.29066  -0.26671  -0.25651
 Alpha virt. eigenvalues --    0.00556   0.05409   0.06568   0.09092   0.11635
 Alpha virt. eigenvalues --    0.12276   0.12703   0.14670   0.15219   0.15672
 Alpha virt. eigenvalues --    0.16749   0.16882   0.19030   0.20029   0.20552

 Mulliken charges:
               1
     1  C   -0.240121
     2  O   -0.230569
     3  C    0.460913
     4  O   -0.365955
     5  C   -0.056000
     6  C   -0.411798
     7  C   -0.400749
     8  C    0.352833
     9  C   -0.503083
    10  H    0.140917
    11  H    0.135735
    12  H    0.143911
    13  H    0.129150
    14  H    0.141549
    15  H    0.122620
    16  H    0.126725
    17  H    0.136593
    18  H    0.119435
    19  H    0.197894
 Sum of Mulliken charges =   0.00000

 Dipole moment (field-independent basis, Debye):
    X=             -0.2646    Y=              0.9603    Z=              1.1584  Tot=              1.5277
 Quadrupole moment (field-independent basis, Debye-Ang):
   XX=            -47.6213   YY=            -52.3448   ZZ=            -53.8700
   XY=             -2.3422   XZ=             -1.6882   YZ=             -3.7868

  Exact polarizability:  82.743   4.976  85.452  -2.500  -2.978  65.876
 Approx polarizability: 106.337  15.719 135.700  -2.981  -2.911  97.851

                      1                      2                      3
                      A                      A                      A
 Frequencies --     34.8064               103.9782               127.1895
 Red. masses --      5.6077                 3.1492                 1.1244
 Frc consts  --      0.0040                 0.0201                 0.0107
 IR Inten    --      1.0326                 0.9318                 0.0541

                      4                      5                      6
                      A                      A                      A
 Frequencies --    158.9101               177.0064               214.6126
 Red. masses --      3.2628                 2.9118                 3.1062
 Frc consts  --      0.0485                 0.0538                 0.0843
 IR Inten    --      1.7865                 0.5894                 2.0263

                      7                      8                      9
                      A                      A                      A
 Frequencies --    221.0045               252.6254               306.0342
 Red. masses --      1.0527                 1.2073                 2.3881
 Frc consts  --      0.0303                 0.0454                 0.1318
 IR Inten    --      0.0153                 0.7264                 1.9327

                     10                     11                     12
                      A                      A                      A
 Frequencies --    333.9106               349.2503               414.5695
 Red. masses --      3.4763                 2.9299                 4.3322
 Frc consts  --      0.2284                 0.2106                 0.4387
 IR Inten    --     12.0701                 4.0486                 3.9162

                     13                     14                     15
                      A                      A                      A
 Frequencies --    474.3369               556.0833               600.3444
 Red. masses --      7.9415                 4.9817                 4.1206
 Frc consts  --      1.0528                 0.9076                 0.8750
 IR Inten    --      1.6712                 4.8450                 3.5249

                     16                     17                     18
                      A                      A                      A
 Frequencies --    628.7199               636.1284               774.3799
 Red. masses --      1.2219                 1.2266                 7.8252
 Frc consts  --      0.2846                 0.2924                 2.7647
 IR Inten    --     42.5202                44.5932                 4.6924

                     19                     20                     21
                      A                      A                      A
 Frequencies --    788.3514               874.8237               949.7356
 Red. masses --      3.8157                 2.7925                 1.6170
 Frc consts  --      1.3972                 1.2592                 0.8593
 IR Inten    --      5.4853                10.6819                 1.7547

                     22                     23                     24
                      A                      A                      A
 Frequencies --    957.9276              1017.6311              1040.9520
 Red. masses --      2.1678                 2.8572                 1.5765
 Frc consts  --      1.1720                 1.7433                 1.0065
 IR Inten    --      1.1721                 6.7528                 8.6905

                     25                     26                     27
                      A                      A                      A
 Frequencies --   1164.6733              1177.8793              1179.2182
 Red. masses --      3.7853                 1.7280                 1.5853
 Frc consts  --      3.0252                 1.4125                 1.2989
 IR Inten    --     30.3932                89.6924                65.4697

                     28                     29                     30
                      A                      A                      A
 Frequencies --   1215.0114              1241.0405              1274.3438
 Red. masses --      1.6913                 2.8224                 4.7306
 Frc consts  --      1.4711                 2.5612                 4.5263
 IR Inten    --     39.6154                13.6440               195.2735

                     31                     32                     33
                      A                      A                      A
 Frequencies --   1394.2941              1418.1367              1471.6282
 Red. masses --      1.2007                 1.2087                 1.1845
 Frc consts  --      1.3753                 1.4322                 1.5114
 IR Inten    --      2.2130                 8.0796                 7.3925

                     34                     35                     36
                      A                      A                      A
 Frequencies --   1478.5992              1481.5624              1482.1422
 Red. masses --      1.0477                 1.0471                 1.0470
 Frc consts  --      1.3495                 1.3542                 1.3551
 IR Inten    --      2.5087                 1.5359                 5.8726

                     37                     38                     39
                      A                      A                      A
 Frequencies --   1494.2488              1496.5948              1506.6639
 Red. masses --      1.0502                 1.0534                 1.0615
 Frc consts  --      1.3816                 1.3902                 1.4197
 IR Inten    --      2.5372                10.6560                13.0834

                     40                     41                     42
                      A                      A                      A
 Frequencies --   1819.8056              2234.4576              3045.4187
 Red. masses --     11.7797                 5.9290                 1.0357
 Frc consts  --     22.9844                17.4411                 5.6593
 IR Inten    --    211.5540                 1.2274                16.7379

                     43                     44                     45
                      A                      A                      A
 Frequencies --   3052.7541              3056.2864              3118.8995
 Red. masses --      1.0298                 1.0343                 1.1016
 Frc consts  --      5.6543                 5.6922                 6.3134
 IR Inten    --     32.0014                14.6569                11.8373

                     46                     47                     48
                      A                      A                      A
 Frequencies --   3127.9119              3133.8560              3143.0905
 Red. masses --      1.1057                 1.1030                 1.1023
 Frc consts  --      6.3735                 6.3822                 6.4159
 IR Inten    --     17.2599                21.1786                12.6933

                     49                     50                     51
                      A                      A                      A
 Frequencies --   3147.6916              3161.4877              3502.3235
 Red. masses --      1.1018                 1.1060                 1.1619
 Frc consts  --      6.4320                 6.5129                 8.3974
 IR Inten    --     12.1915                13.5729                67.6561

 - Thermochemistry -
 -------------------
 Temperature   298.150 Kelvin.  Pressure   1.00000 Atm.
 Atom     1 has atomic number  6 and mass  12.00000

 Molecular mass:   126.06808 amu.
 Principal axes and moments of inertia in atomic units:
                           1         2         3
     Eigenvalues --   816.695211387.124491646.36818
           X            0.99840  -0.05654   0.00117
           Y            0.05655   0.99790  -0.03167
           Z            0.00062   0.03168   0.99950
 This molecule is an asymmetric top.
 Rotational symmetry number  1.
 Warning -- assumption of classical behavior for rotation
           may cause significant error
 Rotational temperatures (Kelvin)      0.10605     0.06244     0.05261
 Rotational constants (GHZ):           2.20981     1.30107     1.09620
 Zero-point vibrational energy     406810.1 (Joules/Mol)
                                   97.22994 (Kcal/Mol)
 Warning -- explicit consideration of  15 degrees of freedom as
           vibrations may cause significant error
 Vibrational temperatures:     50.08   149.60   183.00   228.64   254.67
          (Kelvin)            308.78   317.98   363.47   440.31   480.42
                              502.49   596.47   682.46   800.08   863.76
                              904.59   915.25  1114.16  1134.26  1258.67
                             1366.46  1378.24  1464.14  1497.70  1675.70
                             1694.70  1696.63  1748.13  1785.58  1833.49
                             2006.08  2040.38  2117.34  2127.37  2131.64
                             2132.47  2149.89  2153.26  2167.75  2618.29
                             3214.88  4381.67  4392.23  4397.31  4487.40
                             4500.36  4508.91  4522.20  4528.82  4548.67
                             5039.06

 Zero-point correction=                           0.154946 (Hartree/Particle)
 Thermal correction to Energy=                    0.165688
 Thermal correction to Enthalpy=                  0.166632
 Thermal correction to Gibbs Free Energy=         0.118892
 Sum of electronic and zero-point Energies=           -423.029702
 Sum of electronic and thermal Energies=              -423.018960
 Sum of electronic and thermal Enthalpies=            -423.018015
 Sum of electronic and thermal Free Energies=         -423.065756

                     E (Thermal)             CV                S
                      KCal/Mol        Cal/Mol-Kelvin    Cal/Mol-Kelvin
 Total                  103.971             38.086            100.478
 Electronic               0.000              0.000              0.000
 Translational            0.889              2.981             40.409
 Rotational               0.889              2.981             29.013
 Vibrational            102.193             32.124             31.057
 Vibration     1          0.594              1.983              5.535
 Vibration     2          0.605              1.946              3.378
 Vibration     3          0.611              1.926              2.988
 Vibration     4          0.621              1.893              2.563
 Vibration     5          0.628              1.871              2.360
 Vibration     6          0.645              1.819              2.004
 Vibration     7          0.648              1.809              1.951
 Vibration     8          0.664              1.758              1.712
 Vibration     9          0.696              1.662              1.384
 Vibration    10          0.715              1.608              1.241
 Vibration    11          0.727              1.577              1.170
 Vibration    12          0.778              1.439              0.911
 Vibration    13          0.831              1.307              0.726
 Vibration    14          0.912              1.126              0.532
 Vibration    15          0.958              1.031              0.449

 Optimization completed.
    -- Stationary point found.
 Normal termination of Gaussian 09 at Tue Jan 28 09:05:36 2020.
