 Gaussian 09, Revision D.01,
 Gaussian 09:  ES64L-G09RevD.01 24-Apr-2013

 -----------------------------
 # b3lyp 6-31G(2df,p) opt Freq
 -----------------------------

 -----
 titel
 -----
 Symbolic Z-matrix:
 Charge =  0 Multiplicity = 1

 SCF Done:  E(RB3LYP) =  -423.170782705     A.U. after   14 cycles
 Optimization completed.
    -- Stationary point found.
 Normal termination of Gaussian 09 at Tue Jan 28 08:23:58 2020.

 ----------------------------------------------------------------------
 #N Geom=AllCheck Guess=TCheck SCRF=Check GenChk RB3LYP/6-31G(2df,p) Fr
 eq
 ----------------------------------------------------------------------

 Structure from the checkpoint file:  "/scratch/puck/g09_3019b178-aa8a-4e6f-971f-46690b864303/Gau-81459.chk"
 -----
 titel
 -----
 Charge =  0 Multiplicity = 1

                         Standard orientation:
 ---------------------------------------------------------------------
 Center     Atomic      Atomic             Coordinates (Angstroms)
 Number     Number       Type             X           Y           Z
 ---------------------------------------------------------------------
      1          6           0       -1.981526   -1.158410   -0.566238
      2          6           0       -0.771112   -0.466575    0.043046
      3          6           0       -1.147102    0.778496    0.835655
      4          8           0       -1.750427    1.765773    0.013682
      5          6           0        0.374573   -1.356339    0.386697
      6          6           0        1.555004   -0.607161    1.025252
      7          6           0        1.610536    0.260087   -0.260875
      8          8           0        2.387873    1.080669   -0.661690
      9          6           0        0.455666   -0.462014   -0.887584
     10          1           0       -1.690682   -1.988929   -1.215726
     11          1           0       -2.627168   -1.556630    0.224629
     12          1           0       -2.567652   -0.444240   -1.149952
     13          1           0       -1.903456    0.516278    1.584347
     14          1           0       -0.285424    1.190418    1.375397
     15          1           0       -1.084207    2.062995   -0.615928
     16          1           0        0.267109   -2.433923    0.394539
     17          1           0        1.408037   -0.114126    1.989147
     18          1           0        2.459995   -1.220674    1.078393
     19          1           0        0.347648   -0.711217   -1.936497
 ---------------------------------------------------------------------

 SCF Done:  E(RB3LYP) =  -423.170782705     A.U. after    1 cycles

 The electronic state is 1-A.
 Alpha  occ. eigenvalues --  -19.14064 -19.13334 -10.27305 -10.23555 -10.22173
 Alpha  occ. eigenvalues --  -10.21733 -10.20660 -10.20026 -10.18751  -1.04383
 Alpha  occ. eigenvalues --   -1.02226  -0.91430  -0.77305  -0.69828  -0.68747
 Alpha  occ. eigenvalues --   -0.63988  -0.56435  -0.53695  -0.50250  -0.49322
 Alpha  occ. eigenvalues --   -0.47026  -0.45051  -0.44731  -0.41546  -0.40812
 Alpha  occ. eigenvalues --   -0.39644  -0.38367  -0.37531  -0.36142  -0.34599
 Alpha  occ. eigenvalues --   -0.30270  -0.29102  -0.26844  -0.24406
 Alpha virt. eigenvalues --   -0.01702   0.07248   0.08171   0.09988   0.10644
 Alpha virt. eigenvalues --    0.11888   0.13247   0.14502   0.15658   0.16428
 Alpha virt. eigenvalues --    0.17322   0.18302   0.19260   0.20898   0.22423

 Mulliken charges:
               1
     1  C   -0.456793
     2  C    0.294409
     3  C   -0.137460
     4  O   -0.416420
     5  C   -0.107979
     6  C   -0.379448
     7  C    0.399708
     8  O   -0.317286
     9  C   -0.231964
    10  H    0.115714
    11  H    0.122398
    12  H    0.141682
    13  H    0.111996
    14  H    0.099893
    15  H    0.290978
    16  H    0.102669
    17  H    0.124629
    18  H    0.134562
    19  H    0.108713
 Sum of Mulliken charges =   0.00000

 Dipole moment (field-independent basis, Debye):
    X=             -0.9375    Y=             -2.6843    Z=              0.6464  Tot=              2.9159
 Quadrupole moment (field-independent basis, Debye-Ang):
   XX=            -62.0888   YY=            -54.2086   ZZ=            -51.0686
   XY=             -1.4772   XZ=              2.8833   YZ=              0.2668

  Exact polarizability:  86.450   5.142  72.326   1.327  -2.851  70.000
 Approx polarizability: 121.920  11.413 111.996  -3.189 -10.284 109.739

                      1                      2                      3
                      A                      A                      A
 Frequencies --     63.9700               125.9714               176.9192
 Red. masses --      6.2139                 3.0680                 2.1457
 Frc consts  --      0.0150                 0.0287                 0.0396
 IR Inten    --      3.9417                 4.4975                 0.8715

                      4                      5                      6
                      A                      A                      A
 Frequencies --    220.1819               259.8979               272.3891
 Red. masses --      1.3175                 2.9833                 2.6764
 Frc consts  --      0.0376                 0.1187                 0.1170
 IR Inten    --      0.8445                 0.7202                 2.8886

                      7                      8                      9
                      A                      A                      A
 Frequencies --    323.8247               369.6933               442.5379
 Red. masses --      1.4793                 1.7503                 2.5134
 Frc consts  --      0.0914                 0.1409                 0.2900
 IR Inten    --     51.6294                51.2359                 1.9369

                     10                     11                     12
                      A                      A                      A
 Frequencies --    464.9813               518.4794               561.1186
 Red. masses --      3.9206                 3.5957                 2.8076
 Frc consts  --      0.4994                 0.5695                 0.5208
 IR Inten    --      2.6945                 2.0666                 3.5759

                     13                     14                     15
                      A                      A                      A
 Frequencies --    637.8798               723.4169               827.5529
 Red. masses --      3.1658                 3.5310                 2.6014
 Frc consts  --      0.7590                 1.0887                 1.0497
 IR Inten    --      1.5757                 7.3535                26.9976

                     16                     17                     18
                      A                      A                      A
 Frequencies --    839.6755               869.0739               914.0494
 Red. masses --      2.0881                 2.8316                 2.0129
 Frc consts  --      0.8674                 1.2601                 0.9909
 IR Inten    --      5.1292                 4.3575                 3.9151

                     19                     20                     21
                      A                      A                      A
 Frequencies --    950.9308               960.2257               999.0120
 Red. masses --      1.4860                 1.4038                 2.1404
 Frc consts  --      0.7917                 0.7626                 1.2586
 IR Inten    --     14.3049                 1.0457                21.2927

                     22                     23                     24
                      A                      A                      A
 Frequencies --   1022.0738              1036.1669              1065.6903
 Red. masses --      2.2460                 1.4791                 3.6357
 Frc consts  --      1.3823                 0.9356                 2.4328
 IR Inten    --     24.3097                18.5163                67.5258

                     25                     26                     27
                      A                      A                      A
 Frequencies --   1074.6794              1097.6886              1128.0024
 Red. masses --      2.0882                 1.6426                 2.0410
 Frc consts  --      1.4210                 1.1661                 1.5301
 IR Inten    --     19.8553                 7.1405                17.1228

                     28                     29                     30
                      A                      A                      A
 Frequencies --   1165.1837              1211.5420              1244.6058
 Red. masses --      1.4831                 1.4863                 1.4049
 Frc consts  --      1.1863                 1.2854                 1.2822
 IR Inten    --      2.7290                20.8592                 1.9999

                     31                     32                     33
                      A                      A                      A
 Frequencies --   1268.8821              1301.8727              1364.1905
 Red. masses --      1.8432                 2.5263                 1.7238
 Frc consts  --      1.7485                 2.5228                 1.8901
 IR Inten    --     11.0590                 0.1342                 5.3316

                     34                     35                     36
                      A                      A                      A
 Frequencies --   1407.8222              1413.7712              1424.3870
 Red. masses --      1.2571                 1.6632                 1.3688
 Frc consts  --      1.4680                 1.9587                 1.6363
 IR Inten    --     15.0649                18.4640                24.4485

                     37                     38                     39
                      A                      A                      A
 Frequencies --   1465.8187              1485.5754              1504.3655
 Red. masses --      1.1048                 1.0545                 1.0767
 Frc consts  --      1.3986                 1.3712                 1.4357
 IR Inten    --      5.1938                 3.0291                 5.6765

                     40                     41                     42
                      A                      A                      A
 Frequencies --   1507.2554              1874.8442              3022.8849
 Red. masses --      1.0925                12.4345                 1.0594
 Frc consts  --      1.4623                25.7519                 5.7038
 IR Inten    --      2.0697               345.3318                35.3341

                     43                     44                     45
                      A                      A                      A
 Frequencies --   3035.7134              3060.9799              3068.5686
 Red. masses --      1.0377                 1.0590                 1.1028
 Frc consts  --      5.6342                 5.8461                 6.1180
 IR Inten    --     19.9726                14.5339                36.1990

                     46                     47                     48
                      A                      A                      A
 Frequencies --   3101.3898              3112.5502              3125.5468
 Red. masses --      1.0992                 1.1056                 1.1013
 Frc consts  --      6.2294                 6.3106                 6.3388
 IR Inten    --     20.0189                13.4512                11.1021

                     49                     50                     51
                      A                      A                      A
 Frequencies --   3186.7933              3195.8637              3803.8091
 Red. masses --      1.0898                 1.0958                 1.0660
 Frc consts  --      6.5210                 6.5943                 9.0879
 IR Inten    --      6.5945                 6.6915                16.0253

 - Thermochemistry -
 -------------------
 Temperature   298.150 Kelvin.  Pressure   1.00000 Atm.
 Atom     1 has atomic number  6 and mass  12.00000

 Molecular mass:   126.06808 amu.
 Principal axes and moments of inertia in atomic units:
                           1         2         3
     Eigenvalues --   733.391381302.142631603.79168
           X            0.99963   0.00611   0.02651
           Y           -0.00692   0.99951   0.03056
           Z           -0.02631  -0.03073   0.99918
 This molecule is an asymmetric top.
 Rotational symmetry number  1.
 Warning -- assumption of classical behavior for rotation
           may cause significant error
 Rotational temperatures (Kelvin)      0.11810     0.06652     0.05401
 Rotational constants (GHZ):           2.46082     1.38598     1.12530
 Zero-point vibrational energy     414507.8 (Joules/Mol)
                                   99.06975 (Kcal/Mol)
 Warning -- explicit consideration of  12 degrees of freedom as
           vibrations may cause significant error
 Vibrational temperatures:     92.04   181.24   254.55   316.79   373.93
          (Kelvin)            391.91   465.91   531.91   636.71   669.00
                              745.98   807.32   917.77  1040.83  1190.66
                             1208.10  1250.40  1315.11  1368.18  1381.55
                             1437.35  1470.53  1490.81  1533.29  1546.22
                             1579.33  1622.94  1676.44  1743.14  1790.71
                             1825.64  1873.10  1962.76  2025.54  2034.10
                             2049.37  2108.98  2137.41  2164.44  2168.60
                             2697.48  4349.25  4367.71  4404.06  4414.98
                             4462.20  4478.26  4496.96  4585.08  4598.13
                             5472.83

 Zero-point correction=                           0.157878 (Hartree/Particle)
 Thermal correction to Energy=                    0.166817
 Thermal correction to Enthalpy=                  0.167761
 Thermal correction to Gibbs Free Energy=         0.124253
 Sum of electronic and zero-point Energies=           -423.012905
 Sum of electronic and thermal Energies=              -423.003966
 Sum of electronic and thermal Enthalpies=            -423.003022
 Sum of electronic and thermal Free Energies=         -423.046529

                     E (Thermal)             CV                S
                      KCal/Mol        Cal/Mol-Kelvin    Cal/Mol-Kelvin
 Total                  104.679             33.906             91.570
 Electronic               0.000              0.000              0.000
 Translational            0.889              2.981             40.409
 Rotational               0.889              2.981             28.817
 Vibrational            102.902             27.944             22.344
 Vibration     1          0.597              1.972              4.331
 Vibration     2          0.611              1.927              3.007
 Vibration     3          0.628              1.871              2.361
 Vibration     4          0.647              1.810              1.958
 Vibration     5          0.668              1.746              1.662
 Vibration     6          0.675              1.724              1.581
 Vibration     7          0.708              1.628              1.291
 Vibration     8          0.742              1.534              1.081
 Vibration     9          0.802              1.377              0.819
 Vibration    10          0.822              1.328              0.752
 Vibration    11          0.873              1.209              0.613
 Vibration    12          0.917              1.115              0.522

 Normal termination of Gaussian 09 at Tue Jan 28 09:12:22 2020.
