 Gaussian 09, Revision D.01,
 Gaussian 09:  ES64L-G09RevD.01 24-Apr-2013

 -----------------------------
 # b3lyp 6-31G(2df,p) opt Freq
 -----------------------------

 -----
 titel
 -----
 Symbolic Z-matrix:
 Charge =  0 Multiplicity = 1

 SCF Done:  E(RB3LYP) =  -423.123965527     A.U. after   12 cycles
 Optimization completed.
    -- Stationary point found.
 Normal termination of Gaussian 09 at Mon Jan 27 11:20:49 2020.

 ----------------------------------------------------------------------
 #N Geom=AllCheck Guess=TCheck SCRF=Check GenChk RB3LYP/6-31G(2df,p) Fr
 eq
 ----------------------------------------------------------------------

 Structure from the checkpoint file:  "/scratch/puck/g09_2ab24713-e243-479a-9895-79fdaf86db49/Gau-131287.chk"
 -----
 titel
 -----
 Charge =  0 Multiplicity = 1

                         Standard orientation:
 ---------------------------------------------------------------------
 Center     Atomic      Atomic             Coordinates (Angstroms)
 Number     Number       Type             X           Y           Z
 ---------------------------------------------------------------------
      1          6           0       -1.739222   -1.119289    0.756251
      2          6           0       -1.739203   -1.119304   -0.756251
      3          6           0       -1.026681   -0.041532   -0.000002
      4          6           0       -1.295508    1.457706   -0.000005
      5          8           0        0.127945    1.720814   -0.000002
      6          6           0        0.455753    0.324352    0.000000
      7          6           0        1.476104   -0.184485   -1.035450
      8          8           0        2.283161   -0.782638    0.000005
      9          6           0        1.476100   -0.184483    1.035452
     10          1           0       -2.656393   -0.854403    1.272748
     11          1           0       -1.143764   -1.872012    1.263034
     12          1           0       -1.143693   -1.872028   -1.262972
     13          1           0       -2.656355   -0.854469   -1.272805
     14          1           0       -1.784392    1.862104   -0.895071
     15          1           0       -1.784396    1.862105    0.895059
     16          1           0        1.125333   -0.921127   -1.768079
     17          1           0        1.992720    0.633878   -1.553667
     18          1           0        1.125324   -0.921123    1.768083
     19          1           0        1.992712    0.633881    1.553672
 ---------------------------------------------------------------------

 SCF Done:  E(RB3LYP) =  -423.123965527     A.U. after    1 cycles

 The electronic state is 1-A.
 Alpha  occ. eigenvalues --  -19.14113 -19.13180 -10.24434 -10.23534 -10.22564
 Alpha  occ. eigenvalues --  -10.22564 -10.20762 -10.19743 -10.19719  -1.05467
 Alpha  occ. eigenvalues --   -1.02852  -0.86603  -0.73069  -0.69262  -0.69129
 Alpha  occ. eigenvalues --   -0.61358  -0.60414  -0.52623  -0.51600  -0.50645
 Alpha  occ. eigenvalues --   -0.47836  -0.46829  -0.43624  -0.43306  -0.40581
 Alpha  occ. eigenvalues --   -0.37421  -0.37064  -0.36776  -0.35472  -0.30271
 Alpha  occ. eigenvalues --   -0.29869  -0.28695  -0.24874  -0.24804
 Alpha virt. eigenvalues --    0.06170   0.08671   0.08955   0.09952   0.10144
 Alpha virt. eigenvalues --    0.11783   0.12888   0.13310   0.17013   0.17304
 Alpha virt. eigenvalues --    0.17422   0.18838   0.19409   0.21617   0.22794

 Mulliken charges:
               1
     1  C   -0.325918
     2  C   -0.325918
     3  C    0.221417
     4  C   -0.145523
     5  O   -0.318998
     6  C    0.312542
     7  C   -0.132141
     8  O   -0.275448
     9  C   -0.132140
    10  H    0.118663
    11  H    0.124006
    12  H    0.124006
    13  H    0.118664
    14  H    0.105849
    15  H    0.105849
    16  H    0.102106
    17  H    0.110439
    18  H    0.102105
    19  H    0.110438
 Sum of Mulliken charges =   0.00000

 Dipole moment (field-independent basis, Debye):
    X=             -2.5186    Y=             -0.4127    Z=              0.0000  Tot=              2.5521
 Quadrupole moment (field-independent basis, Debye-Ang):
   XX=            -55.4696   YY=            -56.6443   ZZ=            -50.2023
   XY=              0.5842   XZ=              0.0000   YZ=              0.0000

  Exact polarizability:  79.898  -0.029  71.379   0.000   0.000  73.059
 Approx polarizability: 106.388  -0.671 104.922   0.000   0.000 107.396

                      1                      2                      3
                      A                      A                      A
 Frequencies --     75.8844                76.1461               193.0043
 Red. masses --      4.5610                 2.8135                 2.5164
 Frc consts  --      0.0155                 0.0096                 0.0552
 IR Inten    --      4.3725                 0.6665                 0.0666

                      4                      5                      6
                      A                      A                      A
 Frequencies --    238.8907               268.3485               341.7467
 Red. masses --      2.5082                 2.0838                 2.8470
 Frc consts  --      0.0843                 0.0884                 0.1959
 IR Inten    --      1.3033                 1.6188                 1.8060

                      7                      8                      9
                      A                      A                      A
 Frequencies --    401.1649               493.7939               504.7224
 Red. masses --      2.3274                 3.0925                 4.6181
 Frc consts  --      0.2207                 0.4443                 0.6931
 IR Inten    --      2.4066                 4.3812                 0.1863

                     10                     11                     12
                      A                      A                      A
 Frequencies --    563.0059               775.6351               820.8290
 Red. masses --      3.7673                 1.0550                 3.2901
 Frc consts  --      0.7036                 0.3739                 1.3060
 IR Inten    --      1.8093                 0.2252                 8.3447

                     13                     14                     15
                      A                      A                      A
 Frequencies --    869.5655               892.0063               894.9351
 Red. masses --      1.7581                 2.7510                 2.0497
 Frc consts  --      0.7833                 1.2897                 0.9672
 IR Inten    --      3.9212                35.0650                 0.2194

                     16                     17                     18
                      A                      A                      A
 Frequencies --    907.3789               938.5697               975.0079
 Red. masses --      1.4334                 1.5630                 3.2566
 Frc consts  --      0.6953                 0.8112                 1.8240
 IR Inten    --      0.4382                 0.8964                19.4968

                     19                     20                     21
                      A                      A                      A
 Frequencies --    996.9426              1022.1742              1028.0810
 Red. masses --      5.0435                 4.7285                10.0884
 Frc consts  --      2.9534                 2.9109                 6.2824
 IR Inten    --      6.1378                78.0295                80.5028

                     22                     23                     24
                      A                      A                      A
 Frequencies --   1056.8566              1068.8285              1081.3365
 Red. masses --      1.4489                 2.3235                 1.4257
 Frc consts  --      0.9535                 1.5639                 0.9822
 IR Inten    --      9.2115                 4.7590                 1.2680

                     25                     26                     27
                      A                      A                      A
 Frequencies --   1131.8544              1145.0029              1145.4567
 Red. masses --      2.9467                 1.0855                 1.6979
 Frc consts  --      2.2242                 0.8385                 1.3125
 IR Inten    --      1.2845                 0.0166                 3.3538

                     28                     29                     30
                      A                      A                      A
 Frequencies --   1152.5155              1182.5901              1188.6777
 Red. masses --      1.1701                 2.0829                 2.1824
 Frc consts  --      0.9157                 1.7162                 1.8168
 IR Inten    --      0.1355                16.9846                54.5851

                     31                     32                     33
                      A                      A                      A
 Frequencies --   1188.8129              1289.2750              1291.6109
 Red. masses --      1.2953                 2.8586                 1.3318
 Frc consts  --      1.0786                 2.7996                 1.3091
 IR Inten    --      0.0095                 7.3647                 2.6578

                     34                     35                     36
                      A                      A                      A
 Frequencies --   1326.9955              1373.7017              1417.0465
 Red. masses --      1.4543                 1.7531                 2.2507
 Frc consts  --      1.5089                 1.9491                 2.6628
 IR Inten    --      5.4523                 6.8286                 6.3900

                     37                     38                     39
                      A                      A                      A
 Frequencies --   1462.9760              1493.0556              1508.3183
 Red. masses --      1.0865                 1.0780                 1.6779
 Frc consts  --      1.3701                 1.4159                 2.2490
 IR Inten    --      1.8780                 0.0579                 0.3545

                     40                     41                     42
                      A                      A                      A
 Frequencies --   1521.8096              1526.0537              3006.8223
 Red. masses --      1.1262                 1.1084                 1.0524
 Frc consts  --      1.5367                 1.5209                 5.6058
 IR Inten    --      4.2260                 0.5614                87.4013

                     43                     44                     45
                      A                      A                      A
 Frequencies --   3010.7520              3019.3143              3054.7035
 Red. masses --      1.0548                 1.0579                 1.1113
 Frc consts  --      5.6332                 5.6822                 6.1097
 IR Inten    --     75.2076                 5.1512                38.1139

                     46                     47                     48
                      A                      A                      A
 Frequencies --   3063.7074              3063.8438              3124.2536
 Red. masses --      1.1115                 1.1082                 1.0501
 Frc consts  --      6.1469                 6.1290                 6.0393
 IR Inten    --     61.6291                 5.0473                16.9409

                     49                     50                     51
                      A                      A                      A
 Frequencies --   3127.3478              3202.1625              3216.6973
 Red. masses --      1.0583                 1.1178                 1.1154
 Frc consts  --      6.0985                 6.7530                 6.8000
 IR Inten    --      7.7685                 0.0400                13.9911

 - Thermochemistry -
 -------------------
 Temperature   298.150 Kelvin.  Pressure   1.00000 Atm.
 Atom     1 has atomic number  6 and mass  12.00000

 Molecular mass:   126.06808 amu.
 Principal axes and moments of inertia in atomic units:
                           1         2         3
     Eigenvalues --   683.863361200.687611465.16596
           X            0.99983   0.01858   0.00000
           Y           -0.01858   0.99983   0.00000
           Z            0.00000   0.00000   1.00000
 This molecule is an asymmetric top.
 Rotational symmetry number  1.
 Warning -- assumption of classical behavior for rotation
           may cause significant error
 Rotational temperatures (Kelvin)      0.12665     0.07214     0.05912
 Rotational constants (GHZ):           2.63904     1.50309     1.23177
 Zero-point vibrational energy     417019.5 (Joules/Mol)
                                   99.67005 (Kcal/Mol)
 Warning -- explicit consideration of  10 degrees of freedom as
           vibrations may cause significant error
 Vibrational temperatures:    109.18   109.56   277.69   343.71   386.09
          (Kelvin)            491.70   577.19   710.46   726.18   810.04
                             1115.96  1180.99  1251.11  1283.40  1287.61
                             1305.51  1350.39  1402.82  1434.38  1470.68
                             1479.18  1520.58  1537.80  1555.80  1628.48
                             1647.40  1648.05  1658.21  1701.48  1710.24
                             1710.43  1854.98  1858.34  1909.25  1976.45
                             2038.81  2104.89  2148.17  2170.13  2189.54
                             2195.65  4326.14  4331.80  4344.11  4395.03
                             4407.99  4408.18  4495.10  4499.55  4607.19
                             4628.10

 Zero-point correction=                           0.158834 (Hartree/Particle)
 Thermal correction to Energy=                    0.166943
 Thermal correction to Enthalpy=                  0.167887
 Thermal correction to Gibbs Free Energy=         0.125695
 Sum of electronic and zero-point Energies=           -422.965131
 Sum of electronic and thermal Energies=              -422.957023
 Sum of electronic and thermal Enthalpies=            -422.956078
 Sum of electronic and thermal Free Energies=         -422.998270

                     E (Thermal)             CV                S
                      KCal/Mol        Cal/Mol-Kelvin    Cal/Mol-Kelvin
 Total                  104.758             30.798             88.800
 Electronic               0.000              0.000              0.000
 Translational            0.889              2.981             40.409
 Rotational               0.889              2.981             28.577
 Vibrational            102.981             24.836             19.814
 Vibration     1          0.599              1.965              3.995
 Vibration     2          0.599              1.965              3.988
 Vibration     3          0.635              1.850              2.199
 Vibration     4          0.657              1.781              1.811
 Vibration     5          0.673              1.731              1.607
 Vibration     6          0.721              1.592              1.204
 Vibration     7          0.767              1.468              0.958
 Vibration     8          0.849              1.264              0.674
 Vibration     9          0.860              1.240              0.646
 Vibration    10          0.919              1.111              0.518

 Optimization completed.
    -- Stationary point found.
 Normal termination of Gaussian 09 at Mon Jan 27 12:16:31 2020.
