 Gaussian 09, Revision D.01,
 Gaussian 09:  ES64L-G09RevD.01 24-Apr-2013

 -----------------------------
 # b3lyp 6-31G(2df,p) opt Freq
 -----------------------------

 -----
 titel
 -----
 Symbolic Z-matrix:
 Charge =  0 Multiplicity = 1

 SCF Done:  E(RB3LYP) =  -423.207047561     A.U. after   14 cycles
 Optimization completed.
    -- Stationary point found.
 Normal termination of Gaussian 09 at Tue Jan 28 00:38:59 2020.

 ----------------------------------------------------------------------
 #N Geom=AllCheck Guess=TCheck SCRF=Check GenChk RB3LYP/6-31G(2df,p) Fr
 eq
 ----------------------------------------------------------------------

 Structure from the checkpoint file:  "/scratch/puck/g09_bca5800f-8cd5-42d4-8392-9ea5a2333483/Gau-891.chk"
 -----
 titel
 -----
 Charge =  0 Multiplicity = 1

                         Standard orientation:
 ---------------------------------------------------------------------
 Center     Atomic      Atomic             Coordinates (Angstroms)
 Number     Number       Type             X           Y           Z
 ---------------------------------------------------------------------
      1          6           0        1.111184    1.945098   -0.407056
      2          6           0        0.618612    0.897819    0.598789
      3          6           0       -0.915432    0.973762    0.790277
      4          6           0       -1.503480   -0.067630   -0.176809
      5          8           0       -2.602076   -0.025512   -0.672505
      6          6           0       -0.451176   -1.094537   -0.432567
      7          6           0        0.231663   -1.655216    0.824196
      8          6           0        0.861246   -0.529326    0.075367
      9          8           0        2.016320   -0.774406   -0.665322
     10          1           0        2.176941    1.825477   -0.613401
     11          1           0        0.578975    1.853680   -1.360470
     12          1           0        0.940733    2.954364   -0.020346
     13          1           0        1.143058    1.045279    1.551597
     14          1           0       -1.217364    0.712690    1.811409
     15          1           0       -1.332152    1.960511    0.577878
     16          1           0       -0.520765   -1.728044   -1.306845
     17          1           0       -0.225115   -1.497493    1.795726
     18          1           0        0.682299   -2.631296    0.683124
     19          1           0        2.743730   -0.915648   -0.049240
 ---------------------------------------------------------------------

 SCF Done:  E(RB3LYP) =  -423.207047561     A.U. after    1 cycles

 The electronic state is 1-A.
 Alpha  occ. eigenvalues --  -19.15778 -19.12113 -10.26354 -10.25425 -10.20409
 Alpha  occ. eigenvalues --  -10.20184 -10.19852 -10.18976 -10.17788  -1.04560
 Alpha  occ. eigenvalues --   -1.03213  -0.88561  -0.79021  -0.71337  -0.65158
 Alpha  occ. eigenvalues --   -0.63280  -0.58150  -0.54178  -0.51848  -0.47376
 Alpha  occ. eigenvalues --   -0.46288  -0.44345  -0.42870  -0.41632  -0.40657
 Alpha  occ. eigenvalues --   -0.39273  -0.38952  -0.36208  -0.34968  -0.34123
 Alpha  occ. eigenvalues --   -0.33075  -0.28712  -0.27488  -0.23469
 Alpha virt. eigenvalues --   -0.00958   0.06222   0.09279   0.10459   0.11988
 Alpha virt. eigenvalues --    0.12195   0.14489   0.15705   0.16021   0.17027
 Alpha virt. eigenvalues --    0.18044   0.19071   0.20067   0.21032   0.23811

 Mulliken charges:
               1
     1  C   -0.384272
     2  C   -0.073714
     3  C   -0.358534
     4  C    0.428747
     5  O   -0.333373
     6  C   -0.189075
     7  C   -0.364369
     8  C    0.411567
     9  O   -0.467163
    10  H    0.119498
    11  H    0.126123
    12  H    0.112664
    13  H    0.069594
    14  H    0.125014
    15  H    0.128483
    16  H    0.114671
    17  H    0.120296
    18  H    0.126933
    19  H    0.286910
 Sum of Mulliken charges =   0.00000

 Dipole moment (field-independent basis, Debye):
    X=              3.1999    Y=             -0.2279    Z=              2.4973  Tot=              4.0655
 Quadrupole moment (field-independent basis, Debye-Ang):
   XX=            -59.4009   YY=            -50.3436   ZZ=            -53.3375
   XY=             -1.4261   XZ=             -0.3608   YZ=             -0.6509

  Exact polarizability:  82.999  -1.887  77.020   3.249  -0.158  65.930
 Approx polarizability: 126.393  -4.648 104.312  10.462  -0.380 104.937

                      1                      2                      3
                      A                      A                      A
 Frequencies --     95.0233               134.0382               230.6276
 Red. masses --      3.4644                 4.7447                 1.1943
 Frc consts  --      0.0184                 0.0502                 0.0374
 IR Inten    --      1.9631                 1.5730                 0.3553

                      4                      5                      6
                      A                      A                      A
 Frequencies --    263.4309               273.5073               346.6220
 Red. masses --      1.1874                 1.9905                 3.8536
 Frc consts  --      0.0485                 0.0877                 0.2728
 IR Inten    --     97.7790                 0.5080                 1.4439

                      7                      8                      9
                      A                      A                      A
 Frequencies --    361.5450               396.7605               459.4324
 Red. masses --      2.1224                 2.7725                 4.5867
 Frc consts  --      0.1635                 0.2571                 0.5704
 IR Inten    --      0.9719                 4.6575                 7.2853

                     10                     11                     12
                      A                      A                      A
 Frequencies --    483.9725               533.7024               600.2861
 Red. masses --      3.8230                 2.7267                 3.3482
 Frc consts  --      0.5276                 0.4576                 0.7108
 IR Inten    --     17.8364                 1.8864                 1.6428

                     13                     14                     15
                      A                      A                      A
 Frequencies --    639.5910               714.6064               776.6088
 Red. masses --      3.8985                 2.8892                 3.0495
 Frc consts  --      0.9396                 0.8693                 1.0836
 IR Inten    --      2.7530                 0.6466                13.3428

                     16                     17                     18
                      A                      A                      A
 Frequencies --    833.0125               884.1538               922.5334
 Red. masses --      2.0732                 1.9388                 1.9880
 Frc consts  --      0.8476                 0.8930                 0.9969
 IR Inten    --      3.0002                15.8985                 9.8556

                     19                     20                     21
                      A                      A                      A
 Frequencies --    925.5210               959.2434               977.5988
 Red. masses --      1.9917                 1.5468                 1.8261
 Frc consts  --      1.0052                 0.8386                 1.0282
 IR Inten    --     25.6213                12.0428                 5.5636

                     22                     23                     24
                      A                      A                      A
 Frequencies --   1035.6633              1050.8287              1066.4677
 Red. masses --      1.9258                 1.2699                 1.5995
 Frc consts  --      1.2170                 0.8262                 1.0718
 IR Inten    --      2.1856                 0.5780                 3.4996

                     25                     26                     27
                      A                      A                      A
 Frequencies --   1094.5174              1099.8171              1179.1383
 Red. masses --      2.1356                 1.5411                 2.0738
 Frc consts  --      1.5073                 1.0983                 1.6988
 IR Inten    --     15.0131                14.4032                35.0458

                     28                     29                     30
                      A                      A                      A
 Frequencies --   1197.9047              1225.2023              1247.3302
 Red. masses --      1.4835                 2.0318                 1.6583
 Frc consts  --      1.2543                 1.7970                 1.5201
 IR Inten    --      4.2784                33.4517                11.2333

                     31                     32                     33
                      A                      A                      A
 Frequencies --   1272.9576              1317.7574              1325.6146
 Red. masses --      2.0981                 1.7294                 1.9090
 Frc consts  --      2.0031                 1.7694                 1.9764
 IR Inten    --     21.1605                54.2616                42.0750

                     34                     35                     36
                      A                      A                      A
 Frequencies --   1360.4486              1390.2204              1412.7606
 Red. masses --      1.4989                 1.9075                 1.2727
 Frc consts  --      1.6345                 2.1721                 1.4966
 IR Inten    --      2.0275                15.6520                 5.8353

                     37                     38                     39
                      A                      A                      A
 Frequencies --   1461.1219              1487.4073              1494.7908
 Red. masses --      1.1319                 1.2339                 1.0764
 Frc consts  --      1.4237                 1.6084                 1.4170
 IR Inten    --      7.4740                12.6631                 3.3689

                     40                     41                     42
                      A                      A                      A
 Frequencies --   1499.6543              1834.9824              3016.3532
 Red. masses --      1.0673                12.2014                 1.0832
 Frc consts  --      1.4143                24.2061                 5.8064
 IR Inten    --      7.3353               278.0027                31.7741

                     43                     44                     45
                      A                      A                      A
 Frequencies --   3038.4121              3048.7898              3104.6902
 Red. masses --      1.0368                 1.0676                 1.1010
 Frc consts  --      5.6397                 5.8466                 6.2526
 IR Inten    --     18.9774                11.4607                28.8570

                     46                     47                     48
                      A                      A                      A
 Frequencies --   3113.3574              3127.8634              3130.2240
 Red. masses --      1.0965                 1.1001                 1.0544
 Frc consts  --      6.2618                 6.3413                 6.0870
 IR Inten    --      6.7167                19.5618                10.7418

                     49                     50                     51
                      A                      A                      A
 Frequencies --   3210.0909              3222.8275              3796.6803
 Red. masses --      1.0954                 1.1137                 1.0661
 Frc consts  --      6.6503                 6.8153                 9.0547
 IR Inten    --      0.8866                 4.8180                25.1745

 - Thermochemistry -
 -------------------
 Temperature   298.150 Kelvin.  Pressure   1.00000 Atm.
 Atom     1 has atomic number  6 and mass  12.00000

 Molecular mass:   126.06808 amu.
 Principal axes and moments of inertia in atomic units:
                           1         2         3
     Eigenvalues --   761.885131119.025701505.49333
           X            0.99960   0.02541  -0.01266
           Y           -0.02562   0.99954  -0.01634
           Z            0.01224   0.01666   0.99979
 This molecule is an asymmetric top.
 Rotational symmetry number  1.
 Warning -- assumption of classical behavior for rotation
           may cause significant error
 Rotational temperatures (Kelvin)      0.11368     0.07740     0.05753
 Rotational constants (GHZ):           2.36878     1.61278     1.19877
 Zero-point vibrational energy     416753.2 (Joules/Mol)
                                   99.60640 (Kcal/Mol)
 Warning -- explicit consideration of  12 degrees of freedom as
           vibrations may cause significant error
 Vibrational temperatures:    136.72   192.85   331.82   379.02   393.52
          (Kelvin)            498.71   520.18   570.85   661.02   696.33
                              767.88   863.68   920.23  1028.16  1117.37
                             1198.52  1272.10  1327.32  1331.62  1380.14
                             1406.54  1490.09  1511.91  1534.41  1574.76
                             1582.39  1696.51  1723.52  1762.79  1794.63
                             1831.50  1895.96  1907.26  1957.38  2000.21
                             2032.64  2102.23  2140.04  2150.67  2157.67
                             2640.13  4339.85  4371.59  4386.52  4466.95
                             4479.42  4500.29  4503.69  4618.60  4636.92
                             5462.57

 Zero-point correction=                           0.158733 (Hartree/Particle)
 Thermal correction to Energy=                    0.167221
 Thermal correction to Enthalpy=                  0.168165
 Thermal correction to Gibbs Free Energy=         0.125998
 Sum of electronic and zero-point Energies=           -423.048315
 Sum of electronic and thermal Energies=              -423.039827
 Sum of electronic and thermal Enthalpies=            -423.038883
 Sum of electronic and thermal Free Energies=         -423.081050

                     E (Thermal)             CV                S
                      KCal/Mol        Cal/Mol-Kelvin    Cal/Mol-Kelvin
 Total                  104.932             33.293             88.748
 Electronic               0.000              0.000              0.000
 Translational            0.889              2.981             40.409
 Rotational               0.889              2.981             28.642
 Vibrational            103.155             27.332             19.698
 Vibration     1          0.603              1.953              3.554
 Vibration     2          0.613              1.919              2.887
 Vibration     3          0.652              1.794              1.874
 Vibration     4          0.670              1.740              1.639
 Vibration     5          0.676              1.722              1.574
 Vibration     6          0.725              1.582              1.182
 Vibration     7          0.736              1.551              1.115
 Vibration     8          0.763              1.477              0.975
 Vibration     9          0.817              1.340              0.768
 Vibration    10          0.840              1.286              0.699
 Vibration    11          0.889              1.175              0.579
 Vibration    12          0.958              1.031              0.449

 Optimization completed.
    -- Stationary point found.
 Normal termination of Gaussian 09 at Tue Jan 28 01:23:29 2020.
