 Gaussian 09, Revision D.01,
 Gaussian 09:  ES64L-G09RevD.01 24-Apr-2013

 -----------------------------
 # b3lyp 6-31G(2df,p) opt Freq
 -----------------------------

 -----
 titel
 -----
 Symbolic Z-matrix:
 Charge =  0 Multiplicity = 1

 SCF Done:  E(RB3LYP) =  -423.197364936     A.U. after   14 cycles
 Optimization completed.
    -- Stationary point found.
 Normal termination of Gaussian 09 at Mon Jan 27 22:56:29 2020.

 ----------------------------------------------------------------------
 #N Geom=AllCheck Guess=TCheck SCRF=Check GenChk RB3LYP/6-31G(2df,p) Fr
 eq
 ----------------------------------------------------------------------

 Structure from the checkpoint file:  "/scratch/puck/g09_a2c01ef8-8cb8-46ea-a473-f9851da8c78c/Gau-191571.chk"
 -----
 titel
 -----
 Charge =  0 Multiplicity = 1

                         Standard orientation:
 ---------------------------------------------------------------------
 Center     Atomic      Atomic             Coordinates (Angstroms)
 Number     Number       Type             X           Y           Z
 ---------------------------------------------------------------------
      1          6           0       -2.385906    0.592360    0.267326
      2          6           0       -1.034905   -0.037674    0.050915
      3          6           0       -0.315535   -0.975543    1.100675
      4          6           0        0.542913   -1.400083   -0.121931
      5          6           0       -0.738634   -1.189824   -0.975702
      6          6           0        1.318986   -0.116059   -0.442075
      7          8           0        2.367701    0.149611    0.464573
      8          6           0        0.141090    0.871396   -0.245386
      9          8           0        0.213125    2.074053   -0.229169
     10          1           0       -2.720213    1.116804   -0.633963
     11          1           0       -3.139854   -0.157451    0.525608
     12          1           0       -2.341788    1.329980    1.074854
     13          1           0        0.195182   -0.512899    1.947568
     14          1           0       -0.990152   -1.764966    1.440124
     15          1           0        1.101370   -2.334175   -0.140152
     16          1           0       -0.630198   -0.927388   -2.032949
     17          1           0       -1.451542   -2.009945   -0.864409
     18          1           0        1.678240   -0.104678   -1.483413
     19          1           0        2.484292    1.107979    0.480569
 ---------------------------------------------------------------------

 SCF Done:  E(RB3LYP) =  -423.197364936     A.U. after    1 cycles

 The electronic state is 1-A.
 Alpha  occ. eigenvalues --  -19.14306 -19.13839 -10.26479 -10.23657 -10.21039
 Alpha  occ. eigenvalues --  -10.20221 -10.20125 -10.19783 -10.18174  -1.05197
 Alpha  occ. eigenvalues --   -1.02133  -0.89974  -0.74864  -0.69870  -0.67494
 Alpha  occ. eigenvalues --   -0.64979  -0.56161  -0.53049  -0.50141  -0.49140
 Alpha  occ. eigenvalues --   -0.47520  -0.44000  -0.43064  -0.41685  -0.39547
 Alpha  occ. eigenvalues --   -0.38219  -0.37933  -0.37329  -0.35089  -0.33457
 Alpha  occ. eigenvalues --   -0.31948  -0.31559  -0.28599  -0.23344
 Alpha virt. eigenvalues --   -0.01513   0.08651   0.09326   0.10453   0.11951
 Alpha virt. eigenvalues --    0.13411   0.14798   0.15282   0.16412   0.16592
 Alpha virt. eigenvalues --    0.17229   0.18901   0.19787   0.20756   0.21676

 Mulliken charges:
               1
     1  C   -0.500714
     2  C    0.205094
     3  C   -0.266204
     4  C   -0.049259
     5  C   -0.281187
     6  C    0.058843
     7  O   -0.449797
     8  C    0.373894
     9  O   -0.358679
    10  H    0.128750
    11  H    0.114351
    12  H    0.134124
    13  H    0.117677
    14  H    0.105536
    15  H    0.079454
    16  H    0.101953
    17  H    0.110585
    18  H    0.081975
    19  H    0.293605
 Sum of Mulliken charges =   0.00000

 Dipole moment (field-independent basis, Debye):
    X=             -1.2246    Y=             -1.8141    Z=             -0.4086  Tot=              2.2266
 Quadrupole moment (field-independent basis, Debye-Ang):
   XX=            -53.9362   YY=            -56.6457   ZZ=            -51.8726
   XY=              2.8260   XZ=             -1.3241   YZ=              1.2712

  Exact polarizability:  80.055   1.372  78.285  -0.522   0.478  66.739
 Approx polarizability: 108.250   3.512 123.470   1.414  -0.355 102.989

                      1                      2                      3
                      A                      A                      A
 Frequencies --     98.3020               162.1358               215.9564
 Red. masses --      5.1391                 1.0763                 3.3379
 Frc consts  --      0.0293                 0.0167                 0.0917
 IR Inten    --      5.1303                 0.5195                 9.2256

                      4                      5                      6
                      A                      A                      A
 Frequencies --    237.0735               262.7383               314.0949
 Red. masses --      3.4092                 3.3803                 2.5746
 Frc consts  --      0.1129                 0.1375                 0.1497
 IR Inten    --      5.4213                11.6972                 1.6994

                      7                      8                      9
                      A                      A                      A
 Frequencies --    364.2814               455.6024               488.7200
 Red. masses --      1.1824                 2.1760                 4.0965
 Frc consts  --      0.0924                 0.2661                 0.5765
 IR Inten    --     94.0245                 1.3002                 3.1729

                     10                     11                     12
                      A                      A                      A
 Frequencies --    510.7336               592.2372               647.3325
 Red. masses --      3.1004                 3.2594                 3.8474
 Frc consts  --      0.4765                 0.6736                 0.9499
 IR Inten    --      3.7512                 2.8038                 4.3648

                     13                     14                     15
                      A                      A                      A
 Frequencies --    719.1406               791.8467               851.6626
 Red. masses --      3.4684                 4.1993                 2.6627
 Frc consts  --      1.0568                 1.5513                 1.1379
 IR Inten    --      7.6072                 1.5814                 2.6201

                     16                     17                     18
                      A                      A                      A
 Frequencies --    865.2123               884.3036               914.2349
 Red. masses --      3.0682                 2.3655                 1.8870
 Frc consts  --      1.3532                 1.0899                 0.9293
 IR Inten    --     15.6399                 4.9222                 0.5059

                     19                     20                     21
                      A                      A                      A
 Frequencies --    963.6841               990.8656              1015.0037
 Red. masses --      1.9269                 1.6968                 2.7848
 Frc consts  --      1.0544                 0.9815                 1.6904
 IR Inten    --      2.8250                13.9085                48.3864

                     22                     23                     24
                      A                      A                      A
 Frequencies --   1031.1426              1061.2072              1075.7153
 Red. masses --      1.4499                 1.2152                 1.4743
 Frc consts  --      0.9083                 0.8063                 1.0051
 IR Inten    --      9.5292                 3.8507                19.9108

                     25                     26                     27
                      A                      A                      A
 Frequencies --   1095.5016              1150.6083              1173.6282
 Red. masses --      1.7137                 3.2772                 1.4810
 Frc consts  --      1.2118                 2.5563                 1.2019
 IR Inten    --      7.2439                35.3692                 8.8275

                     28                     29                     30
                      A                      A                      A
 Frequencies --   1202.3321              1227.5939              1239.5463
 Red. masses --      1.5944                 1.6007                 1.8627
 Frc consts  --      1.3580                 1.4213                 1.6862
 IR Inten    --      0.1315                 8.7179                 3.2838

                     31                     32                     33
                      A                      A                      A
 Frequencies --   1249.2711              1308.1924              1338.8844
 Red. masses --      1.5717                 1.6062                 1.5991
 Frc consts  --      1.4452                 1.6196                 1.6890
 IR Inten    --     16.2917                 6.5053                22.9967

                     34                     35                     36
                      A                      A                      A
 Frequencies --   1362.9932              1403.6151              1418.3034
 Red. masses --      2.2791                 1.5287                 1.3934
 Frc consts  --      2.4946                 1.7745                 1.6515
 IR Inten    --     12.3071                 8.1204                 4.0405

                     37                     38                     39
                      A                      A                      A
 Frequencies --   1484.2516              1487.3084              1489.1221
 Red. masses --      1.0879                 1.0489                 1.0469
 Frc consts  --      1.4121                 1.3670                 1.3678
 IR Inten    --      0.5642                 5.7627                 5.0791

                     40                     41                     42
                      A                      A                      A
 Frequencies --   1517.8379              1854.2876              2977.1305
 Red. masses --      1.1393                12.6109                 1.0821
 Frc consts  --      1.5464                25.5476                 5.6509
 IR Inten    --      1.7745               215.2886                42.0862

                     43                     44                     45
                      A                      A                      A
 Frequencies --   3036.1873              3049.4594              3067.1226
 Red. masses --      1.0355                 1.0585                 1.0561
 Frc consts  --      5.6239                 5.7995                 5.8535
 IR Inten    --     21.6624                39.4119                21.8473

                     46                     47                     48
                      A                      A                      A
 Frequencies --   3103.5119              3109.1177              3115.1465
 Red. masses --      1.1007                 1.1018                 1.1068
 Frc consts  --      6.2464                 6.2752                 6.3280
 IR Inten    --     14.1224                12.1689                22.3983

                     49                     50                     51
                      A                      A                      A
 Frequencies --   3131.0726              3133.5553              3776.6059
 Red. masses --      1.1090                 1.0921                 1.0659
 Frc consts  --      6.4057                 6.3183                 8.9572
 IR Inten    --     15.5946                35.5934                29.4602

 - Thermochemistry -
 -------------------
 Temperature   298.150 Kelvin.  Pressure   1.00000 Atm.
 Atom     1 has atomic number  6 and mass  12.00000

 Molecular mass:   126.06808 amu.
 Principal axes and moments of inertia in atomic units:
                           1         2         3
     Eigenvalues --   721.741451035.428981403.78665
           X            0.99992  -0.00299  -0.01255
           Y            0.00320   0.99986   0.01661
           Z            0.01250  -0.01665   0.99978
 This molecule is an asymmetric top.
 Rotational symmetry number  1.
 Warning -- assumption of classical behavior for rotation
           may cause significant error
 Rotational temperatures (Kelvin)      0.12001     0.08365     0.06170
 Rotational constants (GHZ):           2.50054     1.74299     1.28562
 Zero-point vibrational energy     418785.2 (Joules/Mol)
                                  100.09206 (Kcal/Mol)
 Warning -- explicit consideration of  11 degrees of freedom as
           vibrations may cause significant error
 Vibrational temperatures:    141.43   233.28   310.71   341.10   378.02
          (Kelvin)            451.91   524.12   655.51   703.16   734.83
                              852.10   931.37  1034.68  1139.29  1225.35
                             1244.85  1272.31  1315.38  1386.52  1425.63
                             1460.36  1483.58  1526.84  1547.71  1576.18
                             1655.47  1688.59  1729.89  1766.23  1783.43
                             1797.42  1882.19  1926.35  1961.04  2019.49
                             2040.62  2135.50  2139.90  2142.51  2183.83
                             2667.90  4283.42  4368.39  4387.49  4412.90
                             4465.26  4473.32  4482.00  4504.91  4508.48
                             5433.69

 Zero-point correction=                           0.159507 (Hartree/Particle)
 Thermal correction to Energy=                    0.167780
 Thermal correction to Enthalpy=                  0.168724
 Thermal correction to Gibbs Free Energy=         0.127011
 Sum of electronic and zero-point Energies=           -423.037858
 Sum of electronic and thermal Energies=              -423.029585
 Sum of electronic and thermal Enthalpies=            -423.028641
 Sum of electronic and thermal Free Energies=         -423.070354

                     E (Thermal)             CV                S
                      KCal/Mol        Cal/Mol-Kelvin    Cal/Mol-Kelvin
 Total                  105.283             32.291             87.792
 Electronic               0.000              0.000              0.000
 Translational            0.889              2.981             40.409
 Rotational               0.889              2.981             28.441
 Vibrational            103.506             26.329             18.943
 Vibration     1          0.604              1.950              3.488
 Vibration     2          0.622              1.889              2.525
 Vibration     3          0.645              1.817              1.993
 Vibration     4          0.656              1.784              1.825
 Vibration     5          0.670              1.741              1.644
 Vibration     6          0.702              1.647              1.341
 Vibration     7          0.738              1.546              1.104
 Vibration     8          0.814              1.349              0.779
 Vibration     9          0.845              1.275              0.687
 Vibration    10          0.866              1.226              0.632
 Vibration    11          0.950              1.048              0.463

 Optimization completed.
    -- Stationary point found.
 Normal termination of Gaussian 09 at Mon Jan 27 23:42:50 2020.
