 Gaussian 09, Revision D.01,
 Gaussian 09:  ES64L-G09RevD.01 24-Apr-2013

 -----------------------------
 # b3lyp 6-31G(2df,p) opt Freq
 -----------------------------

 -----
 titel
 -----
 Symbolic Z-matrix:
 Charge =  0 Multiplicity = 1

 SCF Done:  E(RB3LYP) =  -423.235862627     A.U. after   14 cycles
 Optimization completed.
    -- Stationary point found.
 Normal termination of Gaussian 09 at Mon Jan 27 13:34:52 2020.

 ----------------------------------------------------------------------
 #N Geom=AllCheck Guess=TCheck SCRF=Check GenChk RB3LYP/6-31G(2df,p) Fr
 eq
 ----------------------------------------------------------------------

 Structure from the checkpoint file:  "/scratch/puck/g09_fa64e908-32ce-4c77-951d-54815da44d5e/Gau-76380.chk"
 -----
 titel
 -----
 Charge =  0 Multiplicity = 1

                         Standard orientation:
 ---------------------------------------------------------------------
 Center     Atomic      Atomic             Coordinates (Angstroms)
 Number     Number       Type             X           Y           Z
 ---------------------------------------------------------------------
      1          8           0       -2.803876   -0.719718   -0.333823
      2          6           0       -2.114000    0.092614    0.226956
      3          6           0       -0.631169   -0.104274    0.494387
      4          6           0       -0.061448   -1.390559   -0.135209
      5          6           0        1.441578   -1.531388    0.128611
      6          6           0        2.213662   -0.307949   -0.380907
      7          6           0        1.681683    0.996171    0.247847
      8          6           0        0.177863    1.132914    0.077227
      9          8           0       -0.347739    2.130840   -0.359432
     10          1           0       -2.531816    1.048147    0.602025
     11          1           0       -0.522101   -0.170443    1.591438
     12          1           0       -0.616186   -2.251722    0.246920
     13          1           0       -0.250855   -1.363862   -1.214839
     14          1           0        1.618144   -1.653699    1.206385
     15          1           0        1.818612   -2.439864   -0.352901
     16          1           0        3.282848   -0.406049   -0.167098
     17          1           0        2.116753   -0.244782   -1.472256
     18          1           0        1.891208    0.983628    1.327351
     19          1           0        2.157304    1.884497   -0.174463
 ---------------------------------------------------------------------

 SCF Done:  E(RB3LYP) =  -423.235862626     A.U. after    1 cycles

 The electronic state is 1-A.
 Alpha  occ. eigenvalues --  -19.14303 -19.14072 -10.28067 -10.27248 -10.20956
 Alpha  occ. eigenvalues --  -10.20080 -10.20015 -10.19709 -10.19622  -1.05361
 Alpha  occ. eigenvalues --   -1.04743  -0.84399  -0.77607  -0.74116  -0.65953
 Alpha  occ. eigenvalues --   -0.60243  -0.58269  -0.53621  -0.49042  -0.47939
 Alpha  occ. eigenvalues --   -0.47153  -0.45342  -0.44219  -0.42321  -0.41464
 Alpha  occ. eigenvalues --   -0.40670  -0.38604  -0.36865  -0.36294  -0.34677
 Alpha  occ. eigenvalues --   -0.33936  -0.33435  -0.26425  -0.24227
 Alpha virt. eigenvalues --   -0.02742  -0.02165   0.08368   0.09434   0.11978
 Alpha virt. eigenvalues --    0.12797   0.14212   0.14988   0.15374   0.15739
 Alpha virt. eigenvalues --    0.16283   0.17713   0.18955   0.20688   0.21828

 Mulliken charges:
               1
     1  O   -0.245978
     2  C    0.154201
     3  C   -0.203880
     4  C   -0.195569
     5  C   -0.212270
     6  C   -0.201014
     7  C   -0.291941
     8  C    0.384866
     9  O   -0.304915
    10  H    0.101971
    11  H    0.115101
    12  H    0.118407
    13  H    0.120221
    14  H    0.096336
    15  H    0.104632
    16  H    0.105910
    17  H    0.112588
    18  H    0.117742
    19  H    0.123593
 Sum of Mulliken charges =   0.00000

 Dipole moment (field-independent basis, Debye):
    X=              3.2050    Y=             -1.1085    Z=              1.8714  Tot=              3.8734
 Quadrupole moment (field-independent basis, Debye-Ang):
   XX=            -58.0341   YY=            -58.8443   ZZ=            -51.1407
   XY=             -2.0468   XZ=             -3.0379   YZ=              1.3549

  Exact polarizability:  85.780  -1.110  79.489   1.480   0.909  61.266
 Approx polarizability: 113.351  -0.596 119.706   7.614   0.173 101.070

                      1                      2                      3
                      A                      A                      A
 Frequencies --     65.5251                77.9046               145.9011
 Red. masses --      4.3348                 4.8797                 2.3830
 Frc consts  --      0.0110                 0.0174                 0.0299
 IR Inten    --      0.5326                 7.0790                 1.7300

                      4                      5                      6
                      A                      A                      A
 Frequencies --    216.1410               289.9100               303.7919
 Red. masses --      4.3280                 2.7934                 1.8432
 Frc consts  --      0.1191                 0.1383                 0.1002
 IR Inten    --      8.3257                 3.3989                 0.2736

                      7                      8                      9
                      A                      A                      A
 Frequencies --    349.4873               420.9594               472.6183
 Red. masses --      4.5031                 2.7949                 2.1019
 Frc consts  --      0.3241                 0.2918                 0.2766
 IR Inten    --      3.1306                 0.4802                 0.2600

                     10                     11                     12
                      A                      A                      A
 Frequencies --    542.6214               638.3131               669.6687
 Red. masses --      4.2041                 3.1128                 3.1098
 Frc consts  --      0.7293                 0.7473                 0.8217
 IR Inten    --      7.4007                15.3090                 6.3419

                     13                     14                     15
                      A                      A                      A
 Frequencies --    733.9324               818.0217               851.8898
 Red. masses --      3.2717                 1.4971                 2.6823
 Frc consts  --      1.0383                 0.5902                 1.1469
 IR Inten    --     10.3639                 3.7953                 1.0355

                     16                     17                     18
                      A                      A                      A
 Frequencies --    861.2893               897.4919               941.4105
 Red. masses --      2.2638                 1.4016                 1.4581
 Frc consts  --      0.9894                 0.6652                 0.7614
 IR Inten    --      0.5411                 3.1481                 3.8321

                     19                     20                     21
                      A                      A                      A
 Frequencies --    970.2200              1041.9387              1054.5248
 Red. masses --      2.2297                 1.8306                 1.5283
 Frc consts  --      1.2366                 1.1709                 1.0013
 IR Inten    --      3.5042                 5.0069                 0.5093

                     22                     23                     24
                      A                      A                      A
 Frequencies --   1077.3073              1103.2278              1130.2063
 Red. masses --      1.6564                 2.2503                 1.9584
 Frc consts  --      1.1326                 1.6137                 1.4739
 IR Inten    --      0.1808                27.0452                16.1484

                     25                     26                     27
                      A                      A                      A
 Frequencies --   1150.2325              1217.9435              1252.4937
 Red. masses --      2.6452                 1.4635                 1.5138
 Frc consts  --      2.0620                 1.2791                 1.3991
 IR Inten    --     32.3665                 3.2912                 2.1155

                     28                     29                     30
                      A                      A                      A
 Frequencies --   1269.0789              1301.3380              1305.3072
 Red. masses --      1.4074                 1.3798                 1.4768
 Frc consts  --      1.3355                 1.3768                 1.4826
 IR Inten    --     12.1441                 8.7486                18.6057

                     31                     32                     33
                      A                      A                      A
 Frequencies --   1340.6488              1369.1673              1373.9365
 Red. masses --      1.3564                 1.4603                 1.5363
 Frc consts  --      1.4364                 1.6129                 1.7087
 IR Inten    --      5.8970                16.0764                 4.1993

                     34                     35                     36
                      A                      A                      A
 Frequencies --   1379.7517              1422.7430              1465.8012
 Red. masses --      1.4636                 1.1994                 1.0920
 Frc consts  --      1.6417                 1.4304                 1.3823
 IR Inten    --      3.9226                 6.9008                 5.5882

                     37                     38                     39
                      A                      A                      A
 Frequencies --   1487.1623              1490.4719              1502.0865
 Red. masses --      1.0911                 1.0832                 1.0930
 Frc consts  --      1.4218                 1.4177                 1.4530
 IR Inten    --      6.8161                 5.7723                 0.8748

                     40                     41                     42
                      A                      A                      A
 Frequencies --   1804.4003              1829.1845              2935.6779
 Red. masses --     11.5561                10.4635                 1.0846
 Frc consts  --     22.1680                20.6273                 5.5073
 IR Inten    --    166.7723               147.4669                74.9791

                     43                     44                     45
                      A                      A                      A
 Frequencies --   2967.8237              3012.9300              3013.5953
 Red. masses --      1.0793                 1.0682                 1.0676
 Frc consts  --      5.6009                 5.7134                 5.7126
 IR Inten    --     12.3316                 8.5256                18.2488

                     46                     47                     48
                      A                      A                      A
 Frequencies --   3030.1839              3044.7205              3072.9282
 Red. masses --      1.0617                 1.0649                 1.0927
 Frc consts  --      5.7435                 5.8162                 6.0793
 IR Inten    --     27.1906                11.6232                40.6768

                     49                     50                     51
                      A                      A                      A
 Frequencies --   3078.2756              3095.7078              3107.1210
 Red. masses --      1.1013                 1.1001                 1.0950
 Frc consts  --      6.1487                 6.2116                 6.2284
 IR Inten    --     37.2170                20.8029                16.3292

 - Thermochemistry -
 -------------------
 Temperature   298.150 Kelvin.  Pressure   1.00000 Atm.
 Atom     1 has atomic number  8 and mass  15.99491

 Molecular mass:   126.06808 amu.
 Principal axes and moments of inertia in atomic units:
                           1         2         3
     Eigenvalues --   723.959931288.833551867.15273
           X            0.99963  -0.02615  -0.00728
           Y            0.02622   0.99960   0.01042
           Z            0.00701  -0.01061   0.99992
 This molecule is an asymmetric top.
 Rotational symmetry number  1.
 Warning -- assumption of classical behavior for rotation
           may cause significant error
 Rotational temperatures (Kelvin)      0.11964     0.06720     0.04639
 Rotational constants (GHZ):           2.49287     1.40029     0.96657
 Zero-point vibrational energy     418663.2 (Joules/Mol)
                                  100.06290 (Kcal/Mol)
 Warning -- explicit consideration of  10 degrees of freedom as
           vibrations may cause significant error
 Vibrational temperatures:     94.28   112.09   209.92   310.98   417.12
          (Kelvin)            437.09   502.83   605.67   679.99   780.71
                              918.39   963.50  1055.96  1176.95  1225.68
                             1239.20  1291.29  1354.48  1395.93  1499.12
                             1517.22  1550.00  1587.30  1626.11  1654.93
                             1752.35  1802.06  1825.92  1872.33  1878.04
                             1928.89  1969.92  1976.79  1985.15  2047.01
                             2108.96  2139.69  2144.45  2161.16  2596.13
                             2631.79  4223.78  4270.03  4334.93  4335.89
                             4359.75  4380.67  4421.25  4428.95  4454.03
                             4470.45

 Zero-point correction=                           0.159460 (Hartree/Particle)
 Thermal correction to Energy=                    0.167991
 Thermal correction to Enthalpy=                  0.168935
 Thermal correction to Gibbs Free Energy=         0.125648
 Sum of electronic and zero-point Energies=           -423.076402
 Sum of electronic and thermal Energies=              -423.067872
 Sum of electronic and thermal Enthalpies=            -423.066928
 Sum of electronic and thermal Free Energies=         -423.110215

                     E (Thermal)             CV                S
                      KCal/Mol        Cal/Mol-Kelvin    Cal/Mol-Kelvin
 Total                  105.416             31.646             91.106
 Electronic               0.000              0.000              0.000
 Translational            0.889              2.981             40.409
 Rotational               0.889              2.981             28.945
 Vibrational            103.638             25.684             21.753
 Vibration     1          0.597              1.971              4.283
 Vibration     2          0.599              1.964              3.943
 Vibration     3          0.617              1.907              2.725
 Vibration     4          0.645              1.816              1.991
 Vibration     5          0.686              1.693              1.474
 Vibration     6          0.695              1.667              1.396
 Vibration     7          0.727              1.576              1.169
 Vibration     8          0.783              1.425              0.889
 Vibration     9          0.829              1.311              0.730
 Vibration    10          0.898              1.156              0.560

 Optimization completed.
    -- Stationary point found.
 Normal termination of Gaussian 09 at Mon Jan 27 14:15:05 2020.
