 Gaussian 09, Revision D.01,
 Gaussian 09:  ES64L-G09RevD.01 24-Apr-2013

 -----------------------------
 # b3lyp 6-31G(2df,p) opt Freq
 -----------------------------

 -----
 titel
 -----
 Symbolic Z-matrix:
 Charge =  0 Multiplicity = 1

 SCF Done:  E(RB3LYP) =  -423.148520764     A.U. after   13 cycles
 Optimization completed.
    -- Stationary point found.
 Normal termination of Gaussian 09 at Mon Jan 27 12:17:58 2020.

 ----------------------------------------------------------------------
 #N Geom=AllCheck Guess=TCheck SCRF=Check GenChk RB3LYP/6-31G(2df,p) Fr
 eq
 ----------------------------------------------------------------------

 Structure from the checkpoint file:  "/scratch/puck/g09_d8c34090-2001-465a-af2a-5497dcfae640/Gau-167045.chk"
 -----
 titel
 -----
 Charge =  0 Multiplicity = 1

                         Standard orientation:
 ---------------------------------------------------------------------
 Center     Atomic      Atomic             Coordinates (Angstroms)
 Number     Number       Type             X           Y           Z
 ---------------------------------------------------------------------
      1          6           0        0.731285    1.439367   -0.631873
      2          8           0        0.671013    1.357782    0.826322
      3          6           0        0.243245   -0.021094    0.757537
      4          6           0        1.390850   -1.049239    0.629270
      5          8           0        1.296449   -1.005009   -0.829662
      6          6           0        0.241959   -0.019789   -0.754963
      7          6           0       -1.156893   -0.362388   -1.242087
      8          6           0       -2.034603    0.000073   -0.003484
      9          6           0       -1.161813   -0.327363    1.248082
     10          1           0        0.055761    2.213653   -1.015519
     11          1           0        1.747741    1.612901   -0.999952
     12          1           0        2.361677   -0.697293    0.992019
     13          1           0        1.187885   -2.056640    1.011247
     14          1           0       -1.471471    0.166885   -2.146068
     15          1           0       -1.199765   -1.436903   -1.447038
     16          1           0       -2.258529    1.072602   -0.015170
     17          1           0       -2.993159   -0.525519   -0.001735
     18          1           0       -1.446753    0.258740    2.125348
     19          1           0       -1.247257   -1.388012    1.508703
 ---------------------------------------------------------------------

 SCF Done:  E(RB3LYP) =  -423.148520764     A.U. after    1 cycles

 The electronic state is 1-A.
 Alpha  occ. eigenvalues --  -19.13771 -19.13718 -10.23197 -10.23181 -10.22972
 Alpha  occ. eigenvalues --  -10.22947 -10.19234 -10.19015 -10.18968  -1.06477
 Alpha  occ. eigenvalues --   -1.00800  -0.82247  -0.74740  -0.69960  -0.67116
 Alpha  occ. eigenvalues --   -0.64970  -0.59136  -0.51153  -0.50453  -0.48679
 Alpha  occ. eigenvalues --   -0.47093  -0.44720  -0.43449  -0.42203  -0.41277
 Alpha  occ. eigenvalues --   -0.39858  -0.35879  -0.35154  -0.34950  -0.33574
 Alpha  occ. eigenvalues --   -0.31849  -0.26606  -0.25757  -0.24613
 Alpha virt. eigenvalues --    0.04981   0.08035   0.09748   0.10563   0.12283
 Alpha virt. eigenvalues --    0.13525   0.14163   0.15340   0.16548   0.16926
 Alpha virt. eigenvalues --    0.17679   0.17823   0.18657   0.19728   0.21498

 Mulliken charges:
               1
     1  C   -0.146368
     2  O   -0.344428
     3  C    0.360049
     4  C   -0.156746
     5  O   -0.345426
     6  C    0.360280
     7  C   -0.307815
     8  C   -0.212180
     9  C   -0.299858
    10  H    0.102577
    11  H    0.112567
    12  H    0.112790
    13  H    0.103296
    14  H    0.102572
    15  H    0.116847
    16  H    0.115985
    17  H    0.104170
    18  H    0.116690
    19  H    0.104998
 Sum of Mulliken charges =   0.00000

 Dipole moment (field-independent basis, Debye):
    X=             -1.5453    Y=             -0.3351    Z=              0.0389  Tot=              1.5816
 Quadrupole moment (field-independent basis, Debye-Ang):
   XX=            -52.6887   YY=            -54.0741   ZZ=            -53.7396
   XY=              0.6099   XZ=              1.3395   YZ=             -5.2323

  Exact polarizability:  77.562  -0.346  72.078   1.478  -5.767  69.455
 Approx polarizability: 104.661  -1.483 107.996   1.008  -4.323 105.439

                      1                      2                      3
                      A                      A                      A
 Frequencies --    149.0330               179.1855               308.6940
 Red. masses --      2.6975                 2.1821                 2.1906
 Frc consts  --      0.0353                 0.0413                 0.1230
 IR Inten    --      4.4438                 0.2728                 1.6542

                      4                      5                      6
                      A                      A                      A
 Frequencies --    323.8784               347.5737               374.9575
 Red. masses --      2.1992                 2.4664                 3.9089
 Frc consts  --      0.1359                 0.1756                 0.3238
 IR Inten    --      1.3805                 0.7434                 6.9832

                      7                      8                      9
                      A                      A                      A
 Frequencies --    535.0478               550.0648               634.8722
 Red. masses --      3.6042                 2.1849                 3.3995
 Frc consts  --      0.6079                 0.3895                 0.8073
 IR Inten    --      9.1368                 0.7675                 1.7078

                     10                     11                     12
                      A                      A                      A
 Frequencies --    705.4141               726.1990               826.8519
 Red. masses --      2.7381                 4.5531                 1.8724
 Frc consts  --      0.8028                 1.4147                 0.7542
 IR Inten    --      1.1065                 3.9459                 1.4664

                     13                     14                     15
                      A                      A                      A
 Frequencies --    847.8256               892.4153               897.1981
 Red. masses --      2.5760                 2.1791                 2.1495
 Frc consts  --      1.0910                 1.0225                 1.0195
 IR Inten    --      4.0992                11.6916                 7.8569

                     16                     17                     18
                      A                      A                      A
 Frequencies --    905.4132               957.3855               960.2643
 Red. masses --      1.9005                 3.3075                 5.0274
 Frc consts  --      0.9179                 1.7861                 2.7313
 IR Inten    --      7.7949                38.8428                 9.9759

                     19                     20                     21
                      A                      A                      A
 Frequencies --    971.9729               979.3225              1005.0608
 Red. masses --      3.9991                 2.0026                 1.9805
 Frc consts  --      2.2260                 1.1316                 1.1787
 IR Inten    --     71.3634                 3.8028                23.0937

                     22                     23                     24
                      A                      A                      A
 Frequencies --   1014.1786              1130.4132              1142.8308
 Red. masses --      2.1818                 2.2627                 1.2670
 Frc consts  --      1.3222                 1.7036                 0.9750
 IR Inten    --      7.8351                 5.5441                 0.6416

                     25                     26                     27
                      A                      A                      A
 Frequencies --   1161.3895              1186.6156              1196.6473
 Red. masses --      1.4412                 1.4736                 2.3494
 Frc consts  --      1.1453                 1.2225                 1.9821
 IR Inten    --      2.4215                 3.4294                24.9933

                     28                     29                     30
                      A                      A                      A
 Frequencies --   1205.3614              1227.4367              1261.6050
 Red. masses --      1.6733                 1.8828                 2.4282
 Frc consts  --      1.4324                 1.6713                 2.2771
 IR Inten    --     10.1399                 1.9643                25.4678

                     31                     32                     33
                      A                      A                      A
 Frequencies --   1281.4571              1311.5969              1324.7180
 Red. masses --      1.8351                 1.4754                 1.3908
 Frc consts  --      1.7755                 1.4954                 1.4380
 IR Inten    --      7.8591                 8.1624                 1.5053

                     34                     35                     36
                      A                      A                      A
 Frequencies --   1330.8192              1349.8322              1365.3659
 Red. masses --      1.3180                 1.8668                 1.9243
 Frc consts  --      1.3754                 2.0040                 2.1135
 IR Inten    --      1.5788                 0.7680                 0.3415

                     37                     38                     39
                      A                      A                      A
 Frequencies --   1470.0290              1484.7138              1495.9432
 Red. masses --      1.0932                 1.0890                 1.1020
 Frc consts  --      1.3918                 1.4144                 1.4530
 IR Inten    --      4.3461                 3.4989                 3.0615

                     40                     41                     42
                      A                      A                      A
 Frequencies --   1503.1405              1506.7491              3020.2278
 Red. masses --      1.1049                 1.0972                 1.0572
 Frc consts  --      1.4709                 1.4677                 5.6819
 IR Inten    --      1.4547                 0.2267                74.3957

                     43                     44                     45
                      A                      A                      A
 Frequencies --   3025.8863              3047.0997              3049.4995
 Red. masses --      1.0567                 1.0667                 1.0612
 Frc consts  --      5.7007                 5.8354                 5.8144
 IR Inten    --     38.8301                16.1957                31.4784

                     46                     47                     48
                      A                      A                      A
 Frequencies --   3053.8838              3081.4766              3087.5194
 Red. masses --      1.0603                 1.1094                 1.1100
 Frc consts  --      5.8263                 6.2065                 6.2341
 IR Inten    --     18.9317                24.7202                34.6797

                     49                     50                     51
                      A                      A                      A
 Frequencies --   3095.2871              3103.6215              3111.5244
 Red. masses --      1.0987                 1.1025                 1.1047
 Frc consts  --      6.2023                 6.2571                 6.3015
 IR Inten    --     20.4666                12.7518                36.0746

 - Thermochemistry -
 -------------------
 Temperature   298.150 Kelvin.  Pressure   1.00000 Atm.
 Atom     1 has atomic number  6 and mass  12.00000

 Molecular mass:   126.06808 amu.
 Principal axes and moments of inertia in atomic units:
                           1         2         3
     Eigenvalues --   730.19659 978.411791026.67661
           X            0.99965   0.02430   0.01065
           Y           -0.01360   0.81404  -0.58064
           Z           -0.02278   0.58029   0.81409
 This molecule is an asymmetric top.
 Rotational symmetry number  1.
 Warning -- assumption of classical behavior for rotation
           may cause significant error
 Rotational temperatures (Kelvin)      0.11862     0.08852     0.08436
 Rotational constants (GHZ):           2.47158     1.84456     1.75785
 Zero-point vibrational energy     422912.8 (Joules/Mol)
                                  101.07858 (Kcal/Mol)
 Warning -- explicit consideration of   8 degrees of freedom as
           vibrations may cause significant error
 Vibrational temperatures:    214.43   257.81   444.14   465.99   500.08
          (Kelvin)            539.48   769.81   791.42   913.44  1014.93
                             1044.84  1189.65  1219.83  1283.98  1290.87
                             1302.69  1377.46  1381.60  1398.45  1409.02
                             1446.06  1459.17  1626.41  1644.28  1670.98
                             1707.27  1721.71  1734.24  1766.01  1815.17
                             1843.73  1887.09  1905.97  1914.75  1942.11
                             1964.45  2115.04  2136.17  2152.33  2162.68
                             2167.87  4345.43  4353.57  4384.09  4387.54
                             4393.85  4433.55  4442.25  4453.42  4465.41
                             4476.78

 Zero-point correction=                           0.161079 (Hartree/Particle)
 Thermal correction to Energy=                    0.168159
 Thermal correction to Enthalpy=                  0.169104
 Thermal correction to Gibbs Free Energy=         0.129930
 Sum of electronic and zero-point Energies=           -422.987442
 Sum of electronic and thermal Energies=              -422.980361
 Sum of electronic and thermal Enthalpies=            -422.979417
 Sum of electronic and thermal Free Energies=         -423.018591

                     E (Thermal)             CV                S
                      KCal/Mol        Cal/Mol-Kelvin    Cal/Mol-Kelvin
 Total                  105.522             28.984             82.448
 Electronic               0.000              0.000              0.000
 Translational            0.889              2.981             40.409
 Rotational               0.889              2.981             28.086
 Vibrational            103.744             23.022             13.954
 Vibration     1          0.618              1.904              2.685
 Vibration     2          0.629              1.868              2.337
 Vibration     3          0.698              1.657              1.369
 Vibration     4          0.708              1.628              1.290
 Vibration     5          0.725              1.580              1.177
 Vibration     6          0.746              1.523              1.059
 Vibration     7          0.890              1.173              0.576
 Vibration     8          0.905              1.140              0.544

 Optimization completed.
    -- Stationary point found.
 Normal termination of Gaussian 09 at Mon Jan 27 13:06:54 2020.
