 Gaussian 09, Revision D.01,
 Gaussian 09:  ES64L-G09RevD.01 24-Apr-2013

 -----------------------------
 # b3lyp 6-31G(2df,p) opt Freq
 -----------------------------

 -----
 titel
 -----
 Symbolic Z-matrix:
 Charge =  0 Multiplicity = 1

 SCF Done:  E(RB3LYP) =  -423.217902642     A.U. after   15 cycles
 Optimization completed.
    -- Stationary point found.
 Normal termination of Gaussian 09 at Tue Jan 28 13:19:33 2020.

 ----------------------------------------------------------------------
 #N Geom=AllCheck Guess=TCheck SCRF=Check GenChk RB3LYP/6-31G(2df,p) Fr
 eq
 ----------------------------------------------------------------------

 Structure from the checkpoint file:  "/scratch/puck/g09_eb4778f1-93b5-421e-ae6f-51d3038ec5b5/Gau-108724.chk"
 -----
 titel
 -----
 Charge =  0 Multiplicity = 1

                         Standard orientation:
 ---------------------------------------------------------------------
 Center     Atomic      Atomic             Coordinates (Angstroms)
 Number     Number       Type             X           Y           Z
 ---------------------------------------------------------------------
      1          6           0       -3.261363    0.073601   -0.128657
      2          8           0       -2.052963   -0.598501   -0.407056
      3          6           0       -0.982063   -0.211068    0.433667
      4          6           0       -0.352457    1.160337    0.102504
      5          6           0        1.151113    0.881078   -0.005441
      6          8           0        2.030939    1.705905   -0.091357
      7          6           0        1.338690   -0.597222    0.024172
      8          6           0        2.687984   -1.207836   -0.163527
      9          6           0        0.156571   -1.184204    0.249037
     10          1           0       -3.185238    1.156953   -0.304210
     11          1           0       -4.020376   -0.336842   -0.798598
     12          1           0       -3.582090   -0.084501    0.913211
     13          1           0       -1.326591   -0.233600    1.482781
     14          1           0       -0.716556    1.502731   -0.872157
     15          1           0       -0.548166    1.950752    0.830705
     16          1           0        3.398054   -0.788283    0.557117
     17          1           0        2.664251   -2.293974   -0.049012
     18          1           0        3.083270   -0.968105   -1.156751
     19          1           0       -0.021215   -2.252473    0.313697
 ---------------------------------------------------------------------

 SCF Done:  E(RB3LYP) =  -423.217902642     A.U. after    1 cycles

 The electronic state is 1-A.
 Alpha  occ. eigenvalues --  -19.14755 -19.12307 -10.26202 -10.24716 -10.23034
 Alpha  occ. eigenvalues --  -10.20303 -10.20028 -10.18873 -10.18740  -1.04136
 Alpha  occ. eigenvalues --   -1.03256  -0.85091  -0.76153  -0.71075  -0.68760
 Alpha  occ. eigenvalues --   -0.63735  -0.57547  -0.51405  -0.50422  -0.48959
 Alpha  occ. eigenvalues --   -0.45611  -0.44545  -0.43659  -0.42400  -0.41290
 Alpha  occ. eigenvalues --   -0.39743  -0.38639  -0.38013  -0.36326  -0.35354
 Alpha  occ. eigenvalues --   -0.32122  -0.27492  -0.26308  -0.23793
 Alpha virt. eigenvalues --   -0.04349   0.04998   0.09072   0.10943   0.12652
 Alpha virt. eigenvalues --    0.12826   0.13510   0.15050   0.15863   0.16434
 Alpha virt. eigenvalues --    0.16788   0.18077   0.19392   0.21433   0.21787

 Mulliken charges:
               1
     1  C   -0.234406
     2  O   -0.248323
     3  C    0.087759
     4  C   -0.360769
     5  C    0.327848
     6  O   -0.323467
     7  C    0.207511
     8  C   -0.492274
     9  C   -0.185908
    10  H    0.109730
    11  H    0.130703
    12  H    0.105868
    13  H    0.078822
    14  H    0.142521
    15  H    0.124984
    16  H    0.146124
    17  H    0.123314
    18  H    0.144687
    19  H    0.115276
 Sum of Mulliken charges =   0.00000

 Dipole moment (field-independent basis, Debye):
    X=             -2.0198    Y=             -1.5269    Z=              0.9089  Tot=              2.6902
 Quadrupole moment (field-independent basis, Debye-Ang):
   XX=            -52.6680   YY=            -55.7492   ZZ=            -52.6085
   XY=             -8.1876   XZ=             -1.0620   YZ=             -0.4552

  Exact polarizability: 106.022   3.004  79.032  -3.683  -1.468  55.938
 Approx polarizability: 144.143  21.809 124.691  -7.416  -3.647  88.239

                      1                      2                      3
                      A                      A                      A
 Frequencies --     70.7937                97.5035               106.3353
 Red. masses --      3.3407                 1.9001                 1.3069
 Frc consts  --      0.0099                 0.0106                 0.0087
 IR Inten    --      2.7994                 4.1169                 0.8318

                      4                      5                      6
                      A                      A                      A
 Frequencies --    138.2349               200.3048               251.1642
 Red. masses --      2.5258                 1.1679                 3.1222
 Frc consts  --      0.0284                 0.0276                 0.1160
 IR Inten    --      2.1954                 0.9112                 2.6606

                      7                      8                      9
                      A                      A                      A
 Frequencies --    292.5034               333.1532               395.3170
 Red. masses --      3.0537                 3.1952                 4.3324
 Frc consts  --      0.1539                 0.2090                 0.3989
 IR Inten    --      2.2429                 0.3372                 5.9196

                     10                     11                     12
                      A                      A                      A
 Frequencies --    437.0752               519.8220               602.2025
 Red. masses --      3.0321                 2.8516                 4.0225
 Frc consts  --      0.3413                 0.4540                 0.8595
 IR Inten    --      2.3614                 3.6473                 1.7907

                     13                     14                     15
                      A                      A                      A
 Frequencies --    615.5105               716.6036               763.7334
 Red. masses --      3.2370                 3.1292                 4.1241
 Frc consts  --      0.7226                 0.9468                 1.4173
 IR Inten    --      3.8351                 0.7144                 2.3434

                     16                     17                     18
                      A                      A                      A
 Frequencies --    861.5335               886.3259               961.2716
 Red. masses --      2.7609                 1.3957                 2.5237
 Frc consts  --      1.2074                 0.6460                 1.3740
 IR Inten    --      2.6741                 6.3896                 7.0281

                     19                     20                     21
                      A                      A                      A
 Frequencies --    994.3623              1022.0980              1062.2574
 Red. masses --      2.1026                 2.4294                 3.1329
 Frc consts  --      1.2249                 1.4953                 2.0828
 IR Inten    --     25.7622                26.8186                24.0109

                     22                     23                     24
                      A                      A                      A
 Frequencies --   1068.7460              1087.2030              1139.0240
 Red. masses --      1.5942                 1.8335                 4.0977
 Frc consts  --      1.0728                 1.2769                 3.1322
 IR Inten    --      2.5841                20.9321               125.0097

                     25                     26                     27
                      A                      A                      A
 Frequencies --   1177.9434              1185.4351              1212.0154
 Red. masses --      1.3617                 1.3020                 1.7937
 Frc consts  --      1.1132                 1.0780                 1.5525
 IR Inten    --     27.4203                 4.2306                24.5005

                     28                     29                     30
                      A                      A                      A
 Frequencies --   1218.5657              1264.7307              1323.3104
 Red. masses --      1.5272                 1.8850                 1.6609
 Frc consts  --      1.3361                 1.7765                 1.7137
 IR Inten    --     39.6231                16.7564                 9.4335

                     31                     32                     33
                      A                      A                      A
 Frequencies --   1340.4500              1376.4980              1413.0702
 Red. masses --      2.5854                 1.3094                 1.2853
 Frc consts  --      2.7370                 1.4617                 1.5122
 IR Inten    --     27.2036                70.3724                 1.3344

                     34                     35                     36
                      A                      A                      A
 Frequencies --   1446.0413              1472.9472              1480.1201
 Red. masses --      1.0896                 1.0433                 1.1212
 Frc consts  --      1.3423                 1.3336                 1.4472
 IR Inten    --      3.2739                 6.3516                 1.0155

                     37                     38                     39
                      A                      A                      A
 Frequencies --   1482.9785              1489.6585              1509.8522
 Red. masses --      1.0642                 1.0704                 1.0615
 Frc consts  --      1.3789                 1.3996                 1.4257
 IR Inten    --     12.1917                 2.4882                 6.3932

                     40                     41                     42
                      A                      A                      A
 Frequencies --   1705.1613              1812.8901              2941.9751
 Red. masses --      7.6202                12.6526                 1.0808
 Frc consts  --     13.0541                24.5003                 5.5115
 IR Inten    --      7.8117               258.0780                37.9814

                     43                     44                     45
                      A                      A                      A
 Frequencies --   2976.0014              3024.7691              3038.7082
 Red. masses --      1.0383                 1.1014                 1.0361
 Frc consts  --      5.4181                 5.9371                 5.6368
 IR Inten    --     63.7062                47.9288                15.3758

                     46                     47                     48
                      A                      A                      A
 Frequencies --   3060.1669              3092.9971              3114.4685
 Red. masses --      1.0617                 1.0983                 1.1015
 Frc consts  --      5.8581                 6.1906                 6.2949
 IR Inten    --      4.7281                 8.5533                 6.8199

                     49                     50                     51
                      A                      A                      A
 Frequencies --   3118.0946              3126.3567              3194.2604
 Red. masses --      1.0964                 1.1023                 1.0944
 Frc consts  --      6.2807                 6.3478                 6.5790
 IR Inten    --     29.9253                12.9316                 7.5485

 - Thermochemistry -
 -------------------
 Temperature   298.150 Kelvin.  Pressure   1.00000 Atm.
 Atom     1 has atomic number  6 and mass  12.00000

 Molecular mass:   126.06808 amu.
 Principal axes and moments of inertia in atomic units:
                           1         2         3
     Eigenvalues --   533.043371724.546642161.65307
           X            0.99892  -0.04611  -0.00593
           Y            0.04611   0.99894  -0.00028
           Z            0.00594   0.00000   0.99998
 This molecule is an asymmetric top.
 Rotational symmetry number  1.
 Warning -- assumption of classical behavior for rotation
           may cause significant error
 Rotational temperatures (Kelvin)      0.16249     0.05022     0.04007
 Rotational constants (GHZ):           3.38573     1.04650     0.83489
 Zero-point vibrational energy     414042.8 (Joules/Mol)
                                   98.95860 (Kcal/Mol)
 Warning -- explicit consideration of  13 degrees of freedom as
           vibrations may cause significant error
 Vibrational temperatures:    101.86   140.29   152.99   198.89   288.19
          (Kelvin)            361.37   420.85   479.33   568.77   628.85
                              747.91   866.43   885.58  1031.03  1098.84
                             1239.55  1275.22  1383.05  1430.66  1470.57
                             1528.35  1537.69  1564.24  1638.80  1694.80
                             1705.57  1743.82  1753.24  1819.66  1903.95
                             1928.61  1980.47  2033.09  2080.53  2119.24
                             2129.56  2133.67  2143.28  2172.34  2453.34
                             2608.34  4232.84  4281.80  4351.96  4372.02
                             4402.89  4450.13  4481.02  4486.24  4498.12
                             4595.82

 Zero-point correction=                           0.157701 (Hartree/Particle)
 Thermal correction to Energy=                    0.167100
 Thermal correction to Enthalpy=                  0.168044
 Thermal correction to Gibbs Free Energy=         0.122958
 Sum of electronic and zero-point Energies=           -423.060202
 Sum of electronic and thermal Energies=              -423.050802
 Sum of electronic and thermal Enthalpies=            -423.049858
 Sum of electronic and thermal Free Energies=         -423.094945

                     E (Thermal)             CV                S
                      KCal/Mol        Cal/Mol-Kelvin    Cal/Mol-Kelvin
 Total                  104.857             33.660             94.892
 Electronic               0.000              0.000              0.000
 Translational            0.889              2.981             40.409
 Rotational               0.889              2.981             29.076
 Vibrational            103.080             27.698             25.408
 Vibration     1          0.598              1.968              4.131
 Vibration     2          0.603              1.951              3.504
 Vibration     3          0.605              1.944              3.335
 Vibration     4          0.614              1.915              2.828
 Vibration     5          0.638              1.839              2.130
 Vibration     6          0.663              1.761              1.722
 Vibration     7          0.688              1.688              1.459
 Vibration     8          0.715              1.609              1.245
 Vibration     9          0.762              1.480              0.980
 Vibration    10          0.797              1.389              0.836
 Vibration    11          0.875              1.206              0.610
 Vibration    12          0.961              1.027              0.446
 Vibration    13          0.975              0.999              0.424

 Optimization completed.
    -- Stationary point found.
 Normal termination of Gaussian 09 at Tue Jan 28 13:57:15 2020.
