 Gaussian 09, Revision D.01,
 Gaussian 09:  ES64L-G09RevD.01 24-Apr-2013

 -----------------------------
 # b3lyp 6-31G(2df,p) opt Freq
 -----------------------------

 -----
 titel
 -----
 Symbolic Z-matrix:
 Charge =  0 Multiplicity = 1

 SCF Done:  E(RB3LYP) =  -423.156262356     A.U. after   13 cycles
 Optimization completed.
    -- Stationary point found.
 Normal termination of Gaussian 09 at Tue Jan 28 03:18:15 2020.

 ----------------------------------------------------------------------
 #N Geom=AllCheck Guess=TCheck SCRF=Check GenChk RB3LYP/6-31G(2df,p) Fr
 eq
 ----------------------------------------------------------------------

 Structure from the checkpoint file:  "/scratch/puck/g09_9aee13d0-0609-4329-96d3-a31c5d55cc58/Gau-1370.chk"
 -----
 titel
 -----
 Charge =  0 Multiplicity = 1

                         Standard orientation:
 ---------------------------------------------------------------------
 Center     Atomic      Atomic             Coordinates (Angstroms)
 Number     Number       Type             X           Y           Z
 ---------------------------------------------------------------------
      1          8           0       -0.140506    1.763494   -0.874101
      2          6           0        0.035149    1.101988    0.374904
      3          6           0       -1.300352    0.658268    1.018395
      4          6           0       -1.573987   -0.745479    0.483764
      5          6           0       -1.443385   -0.973565   -0.999064
      6          6           0       -0.280124   -1.292644   -0.085437
      7          6           0        0.757677   -0.223516    0.097609
      8          6           0        2.082734   -0.511570    0.664234
      9          8           0        1.922407   -0.190883   -0.719383
     10          1           0       -0.652082    2.562324   -0.710777
     11          1           0        0.620702    1.738151    1.052119
     12          1           0       -1.187456    0.620225    2.108460
     13          1           0       -2.102158    1.373709    0.799566
     14          1           0       -2.242732   -1.384314    1.049543
     15          1           0       -1.973361   -1.825240   -1.411849
     16          1           0       -1.360467   -0.118126   -1.657473
     17          1           0        0.018830   -2.325597    0.049122
     18          1           0        2.595399    0.240204    1.264148
     19          1           0        2.361831   -1.543118    0.878585
 ---------------------------------------------------------------------

 SCF Done:  E(RB3LYP) =  -423.156262356     A.U. after    1 cycles

 The electronic state is 1-A.
 Alpha  occ. eigenvalues --  -19.14390 -19.13799 -10.23718 -10.23576 -10.22799
 Alpha  occ. eigenvalues --  -10.19230 -10.18847 -10.18823 -10.17870  -1.06757
 Alpha  occ. eigenvalues --   -1.01898  -0.87598  -0.75230  -0.69328  -0.65225
 Alpha  occ. eigenvalues --   -0.61749  -0.56651  -0.54428  -0.52290  -0.50206
 Alpha  occ. eigenvalues --   -0.46738  -0.46152  -0.42417  -0.42033  -0.40776
 Alpha  occ. eigenvalues --   -0.37259  -0.36679  -0.36098  -0.33047  -0.32260
 Alpha  occ. eigenvalues --   -0.28278  -0.27567  -0.26189  -0.25201
 Alpha virt. eigenvalues --    0.06327   0.09125   0.10445   0.11706   0.12171
 Alpha virt. eigenvalues --    0.12678   0.13756   0.15559   0.16641   0.17429
 Alpha virt. eigenvalues --    0.18293   0.18993   0.19853   0.21695   0.23566

 Mulliken charges:
               1
     1  O   -0.416238
     2  C   -0.026454
     3  C   -0.244901
     4  C   -0.038980
     5  C   -0.295259
     6  C   -0.130683
     7  C    0.516997
     8  C   -0.266090
     9  O   -0.278871
    10  H    0.283756
    11  H    0.069445
    12  H    0.101990
    13  H    0.091712
    14  H    0.083429
    15  H    0.107217
    16  H    0.140681
    17  H    0.082985
    18  H    0.109108
    19  H    0.110155
 Sum of Mulliken charges =   0.00000

 Dipole moment (field-independent basis, Debye):
    X=             -1.5971    Y=              0.3227    Z=              2.6347  Tot=              3.0979
 Quadrupole moment (field-independent basis, Debye-Ang):
   XX=            -53.7756   YY=            -46.7718   ZZ=            -54.8776
   XY=             -2.0542   XZ=              4.1853   YZ=              0.7998

  Exact polarizability:  82.473  -1.706  74.132   5.215   1.628  67.581
 Approx polarizability: 114.310  -4.010 103.533   4.094  -0.347 107.435

                      1                      2                      3
                      A                      A                      A
 Frequencies --    112.1363               204.9350               241.1167
 Red. masses --      4.0206                 2.7780                 5.9489
 Frc consts  --      0.0298                 0.0687                 0.2038
 IR Inten    --      0.2373                 0.1147                 1.6782

                      4                      5                      6
                      A                      A                      A
 Frequencies --    267.9853               305.4879               343.5424
 Red. masses --      1.1684                 2.5777                 2.4435
 Frc consts  --      0.0494                 0.1417                 0.1699
 IR Inten    --     95.8972                11.2734                 2.7729

                      7                      8                      9
                      A                      A                      A
 Frequencies --    398.5686               445.7740               500.6051
 Red. masses --      3.0023                 2.9579                 3.8650
 Frc consts  --      0.2810                 0.3463                 0.5707
 IR Inten    --      0.4417                 7.2650                 1.4497

                     10                     11                     12
                      A                      A                      A
 Frequencies --    578.4790               681.3187               774.9424
 Red. masses --      5.5635                 3.3724                 2.2387
 Frc consts  --      1.0969                 0.9223                 0.7921
 IR Inten    --     15.1991                 3.2473                11.5839

                     13                     14                     15
                      A                      A                      A
 Frequencies --    799.7444               827.9321               866.5170
 Red. masses --      2.9976                 1.3526                 2.4366
 Frc consts  --      1.1296                 0.5463                 1.0779
 IR Inten    --      2.4407                 7.0741                12.5136

                     16                     17                     18
                      A                      A                      A
 Frequencies --    898.3078               905.4679               933.3795
 Red. masses --      1.8252                 3.1944                 2.6832
 Frc consts  --      0.8678                 1.5431                 1.3773
 IR Inten    --     14.5480                 5.0197                17.0566

                     19                     20                     21
                      A                      A                      A
 Frequencies --    966.1837               998.9920              1017.8336
 Red. masses --      3.3555                 2.4968                 1.4488
 Frc consts  --      1.8456                 1.4681                 0.8843
 IR Inten    --     20.5114                22.4928                 5.4505

                     22                     23                     24
                      A                      A                      A
 Frequencies --   1039.6938              1076.6802              1081.9934
 Red. masses --      2.5782                 1.5616                 1.4029
 Frc consts  --      1.6420                 1.0666                 0.9677
 IR Inten    --      2.9064                25.2589                 5.4148

                     25                     26                     27
                      A                      A                      A
 Frequencies --   1108.3360              1119.0186              1132.2629
 Red. masses --      1.1401                 1.7746                 1.4577
 Frc consts  --      0.8252                 1.3092                 1.1011
 IR Inten    --      1.6519                15.8948                 6.6167

                     28                     29                     30
                      A                      A                      A
 Frequencies --   1162.1797              1203.9347              1207.6802
 Red. masses --      1.3960                 1.3478                 1.6039
 Frc consts  --      1.1110                 1.1510                 1.3783
 IR Inten    --      2.6330                 8.9226                11.9018

                     31                     32                     33
                      A                      A                      A
 Frequencies --   1219.2618              1258.6273              1291.3002
 Red. masses --      1.3793                 1.7266                 1.6454
 Frc consts  --      1.2081                 1.6115                 1.6166
 IR Inten    --     11.3408                 5.7913                36.5007

                     34                     35                     36
                      A                      A                      A
 Frequencies --   1316.8733              1347.6172              1381.9393
 Red. masses --      2.0475                 1.4230                 1.7987
 Frc consts  --      2.0920                 1.5226                 2.0239
 IR Inten    --      1.7769                11.0946                 0.9515

                     37                     38                     39
                      A                      A                      A
 Frequencies --   1407.0460              1456.6399              1477.1373
 Red. masses --      1.6911                 1.8307                 1.1895
 Frc consts  --      1.9726                 2.2886                 1.5292
 IR Inten    --     14.8937                 5.8893                 4.4685

                     40                     41                     42
                      A                      A                      A
 Frequencies --   1486.5284              1532.0989              3003.8760
 Red. masses --      1.1725                 1.4459                 1.0832
 Frc consts  --      1.5266                 1.9997                 5.7584
 IR Inten    --      1.9890                 5.3801                36.1057

                     43                     44                     45
                      A                      A                      A
 Frequencies --   3029.0119              3065.8187              3071.9345
 Red. masses --      1.0620                 1.1039                 1.0502
 Frc consts  --      5.7407                 6.1132                 5.8391
 IR Inten    --     53.8043                26.4873                33.9531

                     46                     47                     48
                      A                      A                      A
 Frequencies --   3140.2900              3157.0815              3167.8573
 Red. masses --      1.0551                 1.1190                 1.0893
 Frc consts  --      6.1304                 6.5713                 6.4409
 IR Inten    --     16.0198                23.5152                15.8302

                     49                     50                     51
                      A                      A                      A
 Frequencies --   3179.1115              3236.5527              3817.8465
 Red. masses --      1.0936                 1.1154                 1.0662
 Frc consts  --      6.5120                 6.8842                 9.1567
 IR Inten    --     19.4118                 2.4248                19.6780

 - Thermochemistry -
 -------------------
 Temperature   298.150 Kelvin.  Pressure   1.00000 Atm.
 Atom     1 has atomic number  8 and mass  15.99491

 Molecular mass:   126.06808 amu.
 Principal axes and moments of inertia in atomic units:
                           1         2         3
     Eigenvalues --   738.454211049.708711291.02680
           X            0.99949  -0.00657   0.03109
           Y            0.00542   0.99929   0.03715
           Z           -0.03131  -0.03697   0.99883
 This molecule is an asymmetric top.
 Rotational symmetry number  1.
 Warning -- assumption of classical behavior for rotation
           may cause significant error
 Rotational temperatures (Kelvin)      0.11729     0.08251     0.06709
 Rotational constants (GHZ):           2.44394     1.71928     1.39791
 Zero-point vibrational energy     420161.3 (Joules/Mol)
                                  100.42095 (Kcal/Mol)
 Warning -- explicit consideration of  10 degrees of freedom as
           vibrations may cause significant error
 Vibrational temperatures:    161.34   294.86   346.91   385.57   439.53
          (Kelvin)            494.28   573.45   641.37   720.26   832.30
                              980.26  1114.97  1150.65  1191.21  1246.72
                             1292.46  1302.76  1342.92  1390.12  1437.32
                             1464.43  1495.89  1549.10  1556.75  1594.65
                             1610.02  1629.07  1672.12  1732.19  1737.58
                             1754.24  1810.88  1857.89  1894.68  1938.92
                             1988.30  2024.42  2095.78  2125.27  2138.78
                             2204.35  4321.90  4358.07  4411.02  4419.82
                             4518.17  4542.33  4557.83  4574.03  4656.67
                             5493.02

 Zero-point correction=                           0.160031 (Hartree/Particle)
 Thermal correction to Energy=                    0.167833
 Thermal correction to Enthalpy=                  0.168777
 Thermal correction to Gibbs Free Energy=         0.128116
 Sum of electronic and zero-point Energies=           -422.996231
 Sum of electronic and thermal Energies=              -422.988429
 Sum of electronic and thermal Enthalpies=            -422.987485
 Sum of electronic and thermal Free Energies=         -423.028146

                     E (Thermal)             CV                S
                      KCal/Mol        Cal/Mol-Kelvin    Cal/Mol-Kelvin
 Total                  105.317             31.298             85.579
 Electronic               0.000              0.000              0.000
 Translational            0.889              2.981             40.409
 Rotational               0.889              2.981             28.394
 Vibrational            103.539             25.336             16.776
 Vibration     1          0.607              1.939              3.232
 Vibration     2          0.640              1.833              2.088
 Vibration     3          0.658              1.777              1.795
 Vibration     4          0.673              1.732              1.609
 Vibration     5          0.696              1.663              1.387
 Vibration     6          0.722              1.588              1.196
 Vibration     7          0.765              1.473              0.968
 Vibration     8          0.805              1.370              0.809
 Vibration     9          0.856              1.249              0.657
 Vibration    10          0.935              1.078              0.488

 Optimization completed.
    -- Stationary point found.
 Normal termination of Gaussian 09 at Tue Jan 28 04:03:52 2020.
