 Gaussian 09, Revision D.01,
 Gaussian 09:  ES64L-G09RevD.01 24-Apr-2013

 -----------------------------
 # b3lyp 6-31G(2df,p) opt Freq
 -----------------------------

 -----
 titel
 -----
 Symbolic Z-matrix:
 Charge =  0 Multiplicity = 1

 SCF Done:  E(RB3LYP) =  -423.177324643     A.U. after   14 cycles
 Optimization completed.
    -- Stationary point found.
 Normal termination of Gaussian 09 at Mon Jan 27 17:08:31 2020.

 ----------------------------------------------------------------------
 #N Geom=AllCheck Guess=TCheck SCRF=Check GenChk RB3LYP/6-31G(2df,p) Fr
 eq
 ----------------------------------------------------------------------

 Structure from the checkpoint file:  "/scratch/puck/g09_9def5192-f535-455c-a998-f01b61964d01/Gau-43123.chk"
 -----
 titel
 -----
 Charge =  0 Multiplicity = 1

                         Standard orientation:
 ---------------------------------------------------------------------
 Center     Atomic      Atomic             Coordinates (Angstroms)
 Number     Number       Type             X           Y           Z
 ---------------------------------------------------------------------
      1          6           0       -2.245709   -1.277027   -0.038020
      2          6           0       -1.159463   -0.242508    0.013232
      3          6           0       -0.431001    0.228570    1.300011
      4          6           0        0.081832    1.329967    0.319373
      5          6           0       -1.327911    1.260920   -0.342226
      6          6           0        0.868063    0.444137   -0.683091
      7          8           0       -0.051813   -0.633783   -0.842619
      8          6           0        2.220702    0.012404   -0.153159
      9          8           0        2.460907   -1.039139    0.378111
     10          1           0       -1.865021   -2.245175    0.300785
     11          1           0       -3.082283   -0.986764    0.603543
     12          1           0       -2.615468   -1.395661   -1.061127
     13          1           0       -1.107820    0.632487    2.054639
     14          1           0        0.291270   -0.461056    1.739343
     15          1           0        0.542806    2.260261    0.647697
     16          1           0       -2.092520    1.762274    0.254033
     17          1           0       -1.421108    1.519595   -1.400187
     18          1           0        1.030606    0.964251   -1.639758
     19          1           0        3.007704    0.794385   -0.279618
 ---------------------------------------------------------------------

 SCF Done:  E(RB3LYP) =  -423.177324643     A.U. after    1 cycles

 The electronic state is 1-A.
 Alpha  occ. eigenvalues --  -19.14160 -19.13976 -10.26951 -10.24537 -10.24163
 Alpha  occ. eigenvalues --  -10.21256 -10.19193 -10.18712 -10.17954  -1.05793
 Alpha  occ. eigenvalues --   -1.03820  -0.84293  -0.77281  -0.70768  -0.67357
 Alpha  occ. eigenvalues --   -0.60808  -0.56991  -0.54744  -0.50170  -0.49309
 Alpha  occ. eigenvalues --   -0.48116  -0.43916  -0.43014  -0.42620  -0.39169
 Alpha  occ. eigenvalues --   -0.38642  -0.37833  -0.36414  -0.34687  -0.34212
 Alpha  occ. eigenvalues --   -0.33008  -0.30869  -0.26176  -0.24076
 Alpha virt. eigenvalues --   -0.02583   0.08528   0.10169   0.10841   0.12499
 Alpha virt. eigenvalues --    0.13785   0.14642   0.15530   0.16335   0.16746
 Alpha virt. eigenvalues --    0.16928   0.17676   0.19150   0.20362   0.20851

 Mulliken charges:
               1
     1  C   -0.493820
     2  C    0.447635
     3  C   -0.275492
     4  C   -0.098128
     5  C   -0.269088
     6  C    0.036587
     7  O   -0.304496
     8  C    0.139202
     9  O   -0.237590
    10  H    0.137101
    11  H    0.118006
    12  H    0.129215
    13  H    0.101271
    14  H    0.127126
    15  H    0.081172
    16  H    0.104107
    17  H    0.099998
    18  H    0.086293
    19  H    0.070903
 Sum of Mulliken charges =   0.00000

 Dipole moment (field-independent basis, Debye):
    X=             -1.6669    Y=              2.8706    Z=              0.0337  Tot=              3.3196
 Quadrupole moment (field-independent basis, Debye-Ang):
   XX=            -53.6407   YY=            -54.4603   ZZ=            -52.8047
   XY=              5.1769   XZ=             -2.9670   YZ=             -0.4387

  Exact polarizability:  86.799   1.821  74.151  -0.817  -3.700  66.940
 Approx polarizability: 113.646  -2.317 116.699  -0.379  -7.268 104.563

                      1                      2                      3
                      A                      A                      A
 Frequencies --     89.8872               133.3296               206.9225
 Red. masses --      4.5656                 4.7248                 1.0550
 Frc consts  --      0.0217                 0.0495                 0.0266
 IR Inten    --      5.8261                 3.6331                 0.2458

                      4                      5                      6
                      A                      A                      A
 Frequencies --    234.5904               295.3852               320.6562
 Red. masses --      2.4273                 2.9688                 2.7699
 Frc consts  --      0.0787                 0.1526                 0.1678
 IR Inten    --      2.9607                 1.3647                 0.3359

                      7                      8                      9
                      A                      A                      A
 Frequencies --    375.7104               489.7167               520.0726
 Red. masses --      3.3104                 2.5757                 1.7700
 Frc consts  --      0.2753                 0.3639                 0.2821
 IR Inten    --      0.6484                 1.9497                 0.4075

                     10                     11                     12
                      A                      A                      A
 Frequencies --    592.0602               663.5168               775.0937
 Red. masses --      3.8620                 3.3731                 5.6948
 Frc consts  --      0.7976                 0.8749                 2.0158
 IR Inten    --      3.2259                 1.5573                52.5547

                     13                     14                     15
                      A                      A                      A
 Frequencies --    802.6822               823.7523               854.4482
 Red. masses --      2.8876                 2.4264                 2.0941
 Frc consts  --      1.0962                 0.9701                 0.9008
 IR Inten    --      5.1226                 3.8624                 0.5372

                     16                     17                     18
                      A                      A                      A
 Frequencies --    871.7848               896.6322               931.8780
 Red. masses --      4.3754                 2.5980                 2.7621
 Frc consts  --      1.9592                 1.2306                 1.4132
 IR Inten    --     46.3495                27.8104                 8.0505

                     19                     20                     21
                      A                      A                      A
 Frequencies --    956.8246               976.5512              1009.3319
 Red. masses --      1.5698                 1.8734                 1.2783
 Frc consts  --      0.8467                 1.0526                 0.7673
 IR Inten    --      0.1729                 5.0590                 0.8268

                     22                     23                     24
                      A                      A                      A
 Frequencies --   1031.7702              1044.2666              1073.5092
 Red. masses --      1.6049                 1.8938                 1.3717
 Frc consts  --      1.0066                 1.2168                 0.9313
 IR Inten    --      8.7172                20.2474                 2.7856

                     25                     26                     27
                      A                      A                      A
 Frequencies --   1112.2401              1130.0289              1190.1552
 Red. masses --      1.7586                 2.1527                 1.5672
 Frc consts  --      1.2818                 1.6196                 1.3079
 IR Inten    --      9.3992                14.3421                 1.6696

                     28                     29                     30
                      A                      A                      A
 Frequencies --   1193.8765              1219.6332              1232.9419
 Red. masses --      1.7113                 1.7055                 1.7634
 Frc consts  --      1.4371                 1.4948                 1.5794
 IR Inten    --      2.5638                17.5116                 1.4886

                     31                     32                     33
                      A                      A                      A
 Frequencies --   1271.6338              1282.6924              1340.6123
 Red. masses --      1.6544                 1.5205                 2.4121
 Frc consts  --      1.5762                 1.4740                 2.5541
 IR Inten    --      2.6354                 5.0985                32.5960

                     34                     35                     36
                      A                      A                      A
 Frequencies --   1368.8675              1419.1287              1420.7788
 Red. masses --      1.5037                 1.3267                 1.4144
 Frc consts  --      1.6601                 1.5743                 1.6822
 IR Inten    --      1.9696                 0.6684                26.5268

                     37                     38                     39
                      A                      A                      A
 Frequencies --   1471.9885              1481.1713              1493.8195
 Red. masses --      1.1007                 1.0482                 1.0499
 Frc consts  --      1.4052                 1.3549                 1.3804
 IR Inten    --      3.7253                 3.7126                 3.0818

                     40                     41                     42
                      A                      A                      A
 Frequencies --   1509.3681              1838.4567              2844.6962
 Red. masses --      1.1649                10.3299                 1.0816
 Frc consts  --      1.5636                20.5709                 5.1569
 IR Inten    --      3.4848               124.7569               134.3796

                     43                     44                     45
                      A                      A                      A
 Frequencies --   2989.2382              3042.9114              3063.3057
 Red. masses --      1.0835                 1.0352                 1.0567
 Frc consts  --      5.7045                 5.6472                 5.8421
 IR Inten    --     51.5028                16.5096                32.5684

                     46                     47                     48
                      A                      A                      A
 Frequencies --   3080.7560              3114.0378              3120.6927
 Red. masses --      1.0569                 1.1013                 1.1017
 Frc consts  --      5.9100                 6.2923                 6.3216
 IR Inten    --     12.3849                12.2956                10.4165

                     49                     50                     51
                      A                      A                      A
 Frequencies --   3130.2059              3132.9962              3148.6137
 Red. masses --      1.0973                 1.1020                 1.1105
 Frc consts  --      6.3344                 6.3732                 6.4863
 IR Inten    --     25.2185                29.6756                17.4494

 - Thermochemistry -
 -------------------
 Temperature   298.150 Kelvin.  Pressure   1.00000 Atm.
 Atom     1 has atomic number  6 and mass  12.00000

 Molecular mass:   126.06808 amu.
 Principal axes and moments of inertia in atomic units:
                           1         2         3
     Eigenvalues --   586.467471285.559061468.24047
           X            0.99901   0.04348  -0.00977
           Y           -0.04372   0.99870  -0.02635
           Z            0.00861   0.02675   0.99961
 This molecule is an asymmetric top.
 Rotational symmetry number  1.
 Warning -- assumption of classical behavior for rotation
           may cause significant error
 Rotational temperatures (Kelvin)      0.14769     0.06737     0.05899
 Rotational constants (GHZ):           3.07731     1.40386     1.22919
 Zero-point vibrational energy     416391.5 (Joules/Mol)
                                   99.51995 (Kcal/Mol)
 Warning -- explicit consideration of  10 degrees of freedom as
           vibrations may cause significant error
 Vibrational temperatures:    129.33   191.83   297.71   337.52   424.99
          (Kelvin)            461.35   540.56   704.59   748.27   851.84
                              954.65  1115.19  1154.88  1185.19  1229.36
                             1254.30  1290.05  1340.76  1376.66  1405.04
                             1452.20  1484.49  1502.46  1544.54  1600.26
                             1625.86  1712.37  1717.72  1754.78  1773.93
                             1829.60  1845.51  1928.84  1969.49  2041.81
                             2044.18  2117.86  2131.07  2149.27  2171.64
                             2645.13  4092.88  4300.84  4378.07  4407.41
                             4432.52  4480.40  4489.98  4503.66  4507.68
                             4530.15

 Zero-point correction=                           0.158595 (Hartree/Particle)
 Thermal correction to Energy=                    0.166663
 Thermal correction to Enthalpy=                  0.167607
 Thermal correction to Gibbs Free Energy=         0.126033
 Sum of electronic and zero-point Energies=           -423.018730
 Sum of electronic and thermal Energies=              -423.010661
 Sum of electronic and thermal Enthalpies=            -423.009717
 Sum of electronic and thermal Free Energies=         -423.051292

                     E (Thermal)             CV                S
                      KCal/Mol        Cal/Mol-Kelvin    Cal/Mol-Kelvin
 Total                  104.583             31.338             87.501
 Electronic               0.000              0.000              0.000
 Translational            0.889              2.981             40.409
 Rotational               0.889              2.981             28.495
 Vibrational            102.805             25.376             18.598
 Vibration     1          0.602              1.956              3.663
 Vibration     2          0.613              1.920              2.897
 Vibration     3          0.641              1.830              2.071
 Vibration     4          0.654              1.788              1.844
 Vibration     5          0.690              1.682              1.443
 Vibration     6          0.706              1.634              1.307
 Vibration     7          0.747              1.522              1.056
 Vibration     8          0.846              1.273              0.684
 Vibration     9          0.875              1.206              0.610
 Vibration    10          0.950              1.049              0.464

 Optimization completed.
    -- Stationary point found.
 Normal termination of Gaussian 09 at Mon Jan 27 17:50:27 2020.
