 Gaussian 09, Revision D.01,
 Gaussian 09:  ES64L-G09RevD.01 24-Apr-2013

 -----------------------------
 # b3lyp 6-31G(2df,p) opt Freq
 -----------------------------

 -----
 titel
 -----
 Symbolic Z-matrix:
 Charge =  0 Multiplicity = 1

 SCF Done:  E(RB3LYP) =  -423.164343689     A.U. after   14 cycles
 Optimization completed.
    -- Stationary point found.
 Normal termination of Gaussian 09 at Mon Jan 27 12:58:05 2020.

 ----------------------------------------------------------------------
 #N Geom=AllCheck Guess=TCheck SCRF=Check GenChk RB3LYP/6-31G(2df,p) Fr
 eq
 ----------------------------------------------------------------------

 Structure from the checkpoint file:  "/scratch/puck/g09_ea0a23e7-e8f5-4a1c-98d2-14d4e6fcc78a/Gau-27225.chk"
 -----
 titel
 -----
 Charge =  0 Multiplicity = 1

                         Standard orientation:
 ---------------------------------------------------------------------
 Center     Atomic      Atomic             Coordinates (Angstroms)
 Number     Number       Type             X           Y           Z
 ---------------------------------------------------------------------
      1          8           0        3.627264   -0.227996   -0.026379
      2          6           0        2.440892   -0.076617   -0.038485
      3          6           0        1.244164   -1.041348   -0.077948
      4          6           0        0.346183    0.169245    0.347220
      5          6           0        1.520926    1.146514    0.092307
      6          8           0       -0.769582    0.454870   -0.459571
      7          6           0       -1.848134   -0.408040   -0.251300
      8          6           0       -3.202210    0.146318   -0.545876
      9          6           0       -2.796015   -0.133250    0.888686
     10          1           0        1.024484   -1.359790   -1.103144
     11          1           0        1.299388   -1.918674    0.570412
     12          1           0        0.056218    0.113276    1.403818
     13          1           0        1.394867    1.657636   -0.868424
     14          1           0        1.771666    1.881068    0.860258
     15          1           0       -1.646791   -1.447989   -0.508601
     16          1           0       -3.238916    1.184917   -0.853598
     17          1           0       -3.933425   -0.497521   -1.020918
     18          1           0       -2.577696    0.726926    1.511713
     19          1           0       -3.246086   -0.971771    1.408457
 ---------------------------------------------------------------------

 SCF Done:  E(RB3LYP) =  -423.164343689     A.U. after    1 cycles

 The electronic state is 1-A.
 Alpha  occ. eigenvalues --  -19.15485 -19.13678 -10.27245 -10.24738 -10.24124
 Alpha  occ. eigenvalues --  -10.19258 -10.19241 -10.19099 -10.19075  -1.05250
 Alpha  occ. eigenvalues --   -1.04517  -0.86239  -0.83113  -0.68848  -0.64417
 Alpha  occ. eigenvalues --   -0.60754  -0.58020  -0.53757  -0.52644  -0.49343
 Alpha  occ. eigenvalues --   -0.47798  -0.45719  -0.43265  -0.41763  -0.40736
 Alpha  occ. eigenvalues --   -0.40375  -0.38522  -0.37157  -0.35618  -0.33160
 Alpha  occ. eigenvalues --   -0.31338  -0.29008  -0.25802  -0.24167
 Alpha virt. eigenvalues --   -0.02079   0.08389   0.10045   0.10997   0.11334
 Alpha virt. eigenvalues --    0.12439   0.13676   0.14182   0.15095   0.16901
 Alpha virt. eigenvalues --    0.17663   0.18445   0.19630   0.20752   0.22222

 Mulliken charges:
               1
     1  O   -0.287029
     2  C    0.395963
     3  C   -0.372287
     4  C    0.132873
     5  C   -0.370944
     6  O   -0.257235
     7  C    0.136575
     8  C   -0.286415
     9  C   -0.286632
    10  H    0.138640
    11  H    0.127592
    12  H    0.082809
    13  H    0.145307
    14  H    0.130160
    15  H    0.088357
    16  H    0.128260
    17  H    0.116877
    18  H    0.121569
    19  H    0.115558
 Sum of Mulliken charges =   0.00000

 Dipole moment (field-independent basis, Debye):
    X=             -2.8952    Y=             -0.3753    Z=              0.6198  Tot=              2.9845
 Quadrupole moment (field-independent basis, Debye-Ang):
   XX=            -65.9720   YY=            -50.5835   ZZ=            -51.7383
   XY=              3.0588   XZ=              0.1762   YZ=              0.6815

  Exact polarizability:  97.313   1.079  70.976   1.236   0.420  63.727
 Approx polarizability: 124.611  -0.465 104.267   2.090  -0.336  98.193

                      1                      2                      3
                      A                      A                      A
 Frequencies --     49.1402                62.3691                95.9702
 Red. masses --      4.5788                 3.4789                 3.1931
 Frc consts  --      0.0065                 0.0080                 0.0173
 IR Inten    --      3.2472                 0.3143                 2.4437

                      4                      5                      6
                      A                      A                      A
 Frequencies --    165.6886               291.1991               341.6026
 Red. masses --      2.8580                 3.6886                 3.7184
 Frc consts  --      0.0462                 0.1843                 0.2557
 IR Inten    --      2.1188                 1.4040                 5.0137

                      7                      8                      9
                      A                      A                      A
 Frequencies --    412.6119               441.0653               477.7343
 Red. masses --      2.0028                 2.8691                 2.3657
 Frc consts  --      0.2009                 0.3289                 0.3181
 IR Inten    --      0.4652                 1.8101                 7.2912

                     10                     11                     12
                      A                      A                      A
 Frequencies --    498.2217               650.9843               670.7679
 Red. masses --      2.5354                 1.8736                 2.5506
 Frc consts  --      0.3708                 0.4678                 0.6761
 IR Inten    --      0.8063                 0.5426                 0.2545

                     13                     14                     15
                      A                      A                      A
 Frequencies --    748.2822               770.5980               822.0816
 Red. masses --      1.6631                 1.4849                 1.5405
 Frc consts  --      0.5487                 0.5195                 0.6134
 IR Inten    --      4.0724                 0.0811                 7.5963

                     16                     17                     18
                      A                      A                      A
 Frequencies --    838.7554               904.4239               933.5934
 Red. masses --      2.0096                 1.9040                 3.1435
 Frc consts  --      0.8330                 0.9176                 1.6143
 IR Inten    --      4.9257                 0.9653                 9.5111

                     19                     20                     21
                      A                      A                      A
 Frequencies --    973.8531               982.9789              1008.6964
 Red. masses --      2.3028                 2.2083                 2.6274
 Frc consts  --      1.2867                 1.2572                 1.5750
 IR Inten    --     17.1502                 1.1509                22.1888

                     22                     23                     24
                      A                      A                      A
 Frequencies --   1050.5481              1060.2602              1075.3783
 Red. masses --      1.4826                 2.3926                 1.4268
 Frc consts  --      0.9640                 1.5847                 0.9722
 IR Inten    --      1.3960                24.3521                 0.2230

                     25                     26                     27
                      A                      A                      A
 Frequencies --   1108.1440              1125.5036              1131.5578
 Red. masses --      2.5338                 1.9149                 1.4683
 Frc consts  --      1.8332                 1.4292                 1.1077
 IR Inten    --     49.3203                23.6531                39.7760

                     28                     29                     30
                      A                      A                      A
 Frequencies --   1175.5014              1194.0825              1197.6645
 Red. masses --      1.4107                 1.3271                 2.3279
 Frc consts  --      1.1485                 1.1149                 1.9674
 IR Inten    --      0.2794                 0.0224                65.4153

                     31                     32                     33
                      A                      A                      A
 Frequencies --   1208.8340              1238.2958              1242.5740
 Red. masses --      1.6398                 1.6007                 2.0426
 Frc consts  --      1.4118                 1.4461                 1.8582
 IR Inten    --     21.3837                 2.0655                76.4341

                     34                     35                     36
                      A                      A                      A
 Frequencies --   1280.8204              1362.8843              1410.3144
 Red. masses --      1.5218                 1.3091                 1.3013
 Frc consts  --      1.4709                 1.4327                 1.5249
 IR Inten    --     19.8471               130.4519                 1.6767

                     37                     38                     39
                      A                      A                      A
 Frequencies --   1416.1632              1440.9043              1454.6195
 Red. masses --      1.0966                 1.1599                 1.0912
 Frc consts  --      1.2957                 1.4188                 1.3603
 IR Inten    --     18.0053                 4.2954                 1.5634

                     40                     41                     42
                      A                      A                      A
 Frequencies --   1498.8315              1896.9488              3027.5472
 Red. masses --      1.4615                12.5819                 1.0854
 Frc consts  --      1.9345                26.6751                 5.8615
 IR Inten    --     14.3101               284.6221                27.3188

                     43                     44                     45
                      A                      A                      A
 Frequencies --   3052.8436              3060.7115              3099.9135
 Red. masses --      1.0595                 1.0611                 1.0868
 Frc consts  --      5.8178                 5.8565                 6.1534
 IR Inten    --      3.0322                 2.8348                24.1890

                     46                     47                     48
                      A                      A                      A
 Frequencies --   3121.1715              3125.9158              3136.8632
 Red. masses --      1.1042                 1.1038                 1.0523
 Frc consts  --      6.3375                 6.3548                 6.1007
 IR Inten    --      8.9108                 8.0379                12.0175

                     49                     50                     51
                      A                      A                      A
 Frequencies --   3143.9258              3221.5133              3236.5139
 Red. masses --      1.0577                 1.1184                 1.1159
 Frc consts  --      6.1597                 6.8383                 6.8870
 IR Inten    --      7.1000                 1.5281                12.4607

 - Thermochemistry -
 -------------------
 Temperature   298.150 Kelvin.  Pressure   1.00000 Atm.
 Atom     1 has atomic number  8 and mass  15.99491

 Molecular mass:   126.06808 amu.
 Principal axes and moments of inertia in atomic units:
                           1         2         3
     Eigenvalues --   297.064712430.868542512.26520
           X            0.99998   0.00600  -0.00134
           Y           -0.00596   0.99953   0.03018
           Z            0.00152  -0.03017   0.99954
 This molecule is an asymmetric top.
 Rotational symmetry number  1.
 Rotational temperatures (Kelvin)      0.29157     0.03563     0.03448
 Rotational constants (GHZ):           6.07525     0.74243     0.71837
 Zero-point vibrational energy     412337.0 (Joules/Mol)
                                   98.55091 (Kcal/Mol)
 Warning -- explicit consideration of  10 degrees of freedom as
           vibrations may cause significant error
 Vibrational temperatures:     70.70    89.74   138.08   238.39   418.97
          (Kelvin)            491.49   593.66   634.59   687.35   716.83
                              936.62   965.08  1076.61  1108.72  1182.79
                             1206.78  1301.26  1343.23  1401.16  1414.29
                             1451.29  1511.50  1525.48  1547.23  1594.37
                             1619.35  1628.06  1691.28  1718.02  1723.17
                             1739.24  1781.63  1787.78  1842.81  1960.88
                             2029.13  2037.54  2073.14  2092.87  2156.48
                             2729.28  4355.96  4392.36  4403.68  4460.08
                             4490.66  4497.49  4513.24  4523.40  4635.03
                             4656.62

 Zero-point correction=                           0.157051 (Hartree/Particle)
 Thermal correction to Energy=                    0.165829
 Thermal correction to Enthalpy=                  0.166773
 Thermal correction to Gibbs Free Energy=         0.122436
 Sum of electronic and zero-point Energies=           -423.007293
 Sum of electronic and thermal Energies=              -422.998515
 Sum of electronic and thermal Enthalpies=            -422.997571
 Sum of electronic and thermal Free Energies=         -423.041907

                     E (Thermal)             CV                S
                      KCal/Mol        Cal/Mol-Kelvin    Cal/Mol-Kelvin
 Total                  104.059             32.663             93.314
 Electronic               0.000              0.000              0.000
 Translational            0.889              2.981             40.409
 Rotational               0.889              2.981             28.985
 Vibrational            102.282             26.701             23.920
 Vibration     1          0.595              1.978              4.852
 Vibration     2          0.597              1.972              4.381
 Vibration     3          0.603              1.952              3.535
 Vibration     4          0.624              1.885              2.484
 Vibration     5          0.687              1.690              1.467
 Vibration     6          0.721              1.592              1.205
 Vibration     7          0.776              1.443              0.917
 Vibration     8          0.801              1.381              0.823
 Vibration     9          0.834              1.299              0.716
 Vibration    10          0.854              1.254              0.663

 Optimization completed.
    -- Stationary point found.
 Normal termination of Gaussian 09 at Mon Jan 27 13:38:10 2020.
