 Gaussian 09, Revision D.01,
 Gaussian 09:  ES64L-G09RevD.01 24-Apr-2013

 -----------------------------
 # b3lyp 6-31G(2df,p) opt Freq
 -----------------------------

 -----
 titel
 -----
 Symbolic Z-matrix:
 Charge =  0 Multiplicity = 1

 SCF Done:  E(RB3LYP) =  -423.183322331     A.U. after   14 cycles
 Optimization completed.
    -- Stationary point found.
 Normal termination of Gaussian 09 at Mon Jan 27 17:14:22 2020.

 ----------------------------------------------------------------------
 #N Geom=AllCheck Guess=TCheck SCRF=Check GenChk RB3LYP/6-31G(2df,p) Fr
 eq
 ----------------------------------------------------------------------

 Structure from the checkpoint file:  "/scratch/puck/g09_850d6f12-9437-426d-bf51-ab7a86b2369a/Gau-39566.chk"
 -----
 titel
 -----
 Charge =  0 Multiplicity = 1

                         Standard orientation:
 ---------------------------------------------------------------------
 Center     Atomic      Atomic             Coordinates (Angstroms)
 Number     Number       Type             X           Y           Z
 ---------------------------------------------------------------------
      1          6           0        0.131338    2.167406    0.018878
      2          6           0        0.466219    0.702848   -0.026769
      3          6           0        1.756696    0.243450   -0.748989
      4          6           0        1.732972   -1.250733   -0.306635
      5          6           0        0.437112   -1.178801    0.523792
      6          8           0        0.615700    0.052704    1.282666
      7          6           0       -0.552898   -0.427205   -0.410926
      8          6           0       -1.921806   -0.253087    0.178024
      9          8           0       -2.943730   -0.375399   -0.452584
     10          1           0       -0.779307    2.356100    0.592664
     11          1           0        0.951697    2.724406    0.483032
     12          1           0       -0.011777    2.553705   -0.995234
     13          1           0        1.706169    0.382769   -1.831860
     14          1           0        2.623889    0.786495   -0.365873
     15          1           0        1.668851   -1.956912   -1.138165
     16          1           0        2.584922   -1.521762    0.320113
     17          1           0        0.139477   -2.034686    1.129575
     18          1           0       -0.623262   -0.728413   -1.458818
     19          1           0       -1.934209   -0.003411    1.259655
 ---------------------------------------------------------------------

 SCF Done:  E(RB3LYP) =  -423.183322331     A.U. after    1 cycles

 The electronic state is 1-A.
 Alpha  occ. eigenvalues --  -19.14339 -19.13501 -10.26621 -10.25811 -10.25169
 Alpha  occ. eigenvalues --  -10.20144 -10.19437 -10.19334 -10.19053  -1.06108
 Alpha  occ. eigenvalues --   -1.04043  -0.81010  -0.76640  -0.74661  -0.67300
 Alpha  occ. eigenvalues --   -0.60772  -0.58110  -0.54275  -0.50093  -0.48613
 Alpha  occ. eigenvalues --   -0.46610  -0.46245  -0.42957  -0.42346  -0.40449
 Alpha  occ. eigenvalues --   -0.39555  -0.38335  -0.36144  -0.36006  -0.35044
 Alpha  occ. eigenvalues --   -0.32785  -0.31053  -0.27234  -0.23897
 Alpha virt. eigenvalues --   -0.02428   0.07835   0.09565   0.10247   0.11593
 Alpha virt. eigenvalues --    0.13067   0.14116   0.14596   0.15159   0.16010
 Alpha virt. eigenvalues --    0.16746   0.18025   0.19403   0.20176   0.20737

 Mulliken charges:
               1
     1  C   -0.496221
     2  C    0.391868
     3  C   -0.251535
     4  C   -0.226643
     5  C    0.057481
     6  O   -0.329293
     7  C   -0.128949
     8  C    0.144221
     9  O   -0.268486
    10  H    0.134815
    11  H    0.134499
    12  H    0.131875
    13  H    0.105699
    14  H    0.111093
    15  H    0.107084
    16  H    0.114527
    17  H    0.089299
    18  H    0.084293
    19  H    0.094372
 Sum of Mulliken charges =   0.00000

 Dipole moment (field-independent basis, Debye):
    X=              2.6832    Y=              0.1031    Z=             -0.5890  Tot=              2.7490
 Quadrupole moment (field-independent basis, Debye-Ang):
   XX=            -62.6488   YY=            -49.0506   ZZ=            -54.8547
   XY=             -1.5188   XZ=             -4.1368   YZ=             -1.2953

  Exact polarizability:  86.390  -0.695  74.627  -0.160   0.012  66.666
 Approx polarizability: 122.492   1.766 104.010   6.901   1.386 109.434

                      1                      2                      3
                      A                      A                      A
 Frequencies --     80.8941               168.2321               192.9261
 Red. masses --      4.9295                 2.3999                 1.2839
 Frc consts  --      0.0190                 0.0400                 0.0282
 IR Inten    --      5.5315                 3.8664                 1.2667

                      4                      5                      6
                      A                      A                      A
 Frequencies --    241.6214               256.5946               327.7951
 Red. masses --      2.1655                 1.8724                 2.5530
 Frc consts  --      0.0745                 0.0726                 0.1616
 IR Inten    --      2.0551                 0.7535                 1.7136

                      7                      8                      9
                      A                      A                      A
 Frequencies --    361.9207               401.7253               497.2693
 Red. masses --      2.3191                 4.8607                 3.4318
 Frc consts  --      0.1790                 0.4622                 0.5000
 IR Inten    --      1.7602                 2.1026                22.5152

                     10                     11                     12
                      A                      A                      A
 Frequencies --    578.3693               620.0062               701.0338
 Red. masses --      4.1678                 3.9106                 3.5683
 Frc consts  --      0.8214                 0.8857                 1.0332
 IR Inten    --      1.3155                 1.5674                 2.0750

                     13                     14                     15
                      A                      A                      A
 Frequencies --    785.7293               828.4748               873.7014
 Red. masses --      4.3116                 1.3694                 2.4564
 Frc consts  --      1.5683                 0.5538                 1.1048
 IR Inten    --     17.2384                 4.9571                11.7855

                     16                     17                     18
                      A                      A                      A
 Frequencies --    879.9678               921.0353               937.8292
 Red. masses --      2.2372                 2.4705                 3.8629
 Frc consts  --      1.0207                 1.2348                 2.0018
 IR Inten    --     10.1771                 2.7721                14.6839

                     19                     20                     21
                      A                      A                      A
 Frequencies --    957.5660              1000.8058              1009.2160
 Red. masses --      2.7111                 1.4412                 3.5908
 Frc consts  --      1.4646                 0.8505                 2.1548
 IR Inten    --      6.6742                 2.3246                19.1583

                     22                     23                     24
                      A                      A                      A
 Frequencies --   1054.1691              1068.8766              1113.1839
 Red. masses --      1.5292                 1.4802                 2.2304
 Frc consts  --      1.0012                 0.9964                 1.6284
 IR Inten    --      2.0556                17.5450                 7.1849

                     25                     26                     27
                      A                      A                      A
 Frequencies --   1152.1690              1175.1637              1186.4069
 Red. masses --      2.0389                 1.6477                 1.5300
 Frc consts  --      1.5947                 1.3407                 1.2688
 IR Inten    --     47.4398                 6.0079                17.5800

                     28                     29                     30
                      A                      A                      A
 Frequencies --   1213.3437              1240.9236              1257.8989
 Red. masses --      1.6317                 1.2194                 1.5418
 Frc consts  --      1.4153                 1.1064                 1.4374
 IR Inten    --      4.7729                 3.6168                11.8492

                     31                     32                     33
                      A                      A                      A
 Frequencies --   1290.1209              1295.0026              1318.7363
 Red. masses --      1.5366                 1.5933                 1.7841
 Frc consts  --      1.5068                 1.5743                 1.8280
 IR Inten    --      6.7023                 4.2408                19.2084

                     34                     35                     36
                      A                      A                      A
 Frequencies --   1352.2692              1415.8445              1421.0254
 Red. masses --      2.0640                 1.3671                 1.3289
 Frc consts  --      2.2238                 1.6147                 1.5811
 IR Inten    --      8.5756                14.2043                 6.5138

                     37                     38                     39
                      A                      A                      A
 Frequencies --   1475.2376              1481.6084              1492.3207
 Red. masses --      1.0788                 1.0605                 1.0491
 Frc consts  --      1.3833                 1.3716                 1.3765
 IR Inten    --      0.4238                 0.7343                 4.2290

                     40                     41                     42
                      A                      A                      A
 Frequencies --   1497.7503              1817.9231              2915.5227
 Red. masses --      1.1162                 9.9498                 1.0833
 Frc consts  --      1.4752                19.3739                 5.4255
 IR Inten    --      2.9489               210.6809                58.8043

                     43                     44                     45
                      A                      A                      A
 Frequencies --   3041.8625              3064.7853              3073.3724
 Red. masses --      1.0359                 1.0580                 1.0608
 Frc consts  --      5.6473                 5.8551                 5.9035
 IR Inten    --     10.5436                27.0970                23.5079

                     46                     47                     48
                      A                      A                      A
 Frequencies --   3091.6923              3109.2230              3112.2342
 Red. masses --      1.0861                 1.1048                 1.1034
 Frc consts  --      6.1167                 6.2927                 6.2970
 IR Inten    --     17.4447                 1.8242                 7.6162

                     49                     50                     51
                      A                      A                      A
 Frequencies --   3123.3778              3124.9622              3127.9699
 Red. masses --      1.1015                 1.0920                 1.1059
 Frc consts  --      6.3314                 6.2827                 6.3750
 IR Inten    --     13.5332                34.8971                36.3462

 - Thermochemistry -
 -------------------
 Temperature   298.150 Kelvin.  Pressure   1.00000 Atm.
 Atom     1 has atomic number  6 and mass  12.00000

 Molecular mass:   126.06808 amu.
 Principal axes and moments of inertia in atomic units:
                           1         2         3
     Eigenvalues --   676.385121251.268251538.43402
           X            0.99940  -0.02138  -0.02712
           Y            0.02130   0.99977  -0.00325
           Z            0.02719   0.00267   0.99963
 This molecule is an asymmetric top.
 Rotational symmetry number  1.
 Warning -- assumption of classical behavior for rotation
           may cause significant error
 Rotational temperatures (Kelvin)      0.12805     0.06922     0.05630
 Rotational constants (GHZ):           2.66822     1.44233     1.17310
 Zero-point vibrational energy     417064.2 (Joules/Mol)
                                   99.68074 (Kcal/Mol)
 Warning -- explicit consideration of  11 degrees of freedom as
           vibrations may cause significant error
 Vibrational temperatures:    116.39   242.05   277.58   347.64   369.18
          (Kelvin)            471.62   520.72   577.99   715.46   832.14
                              892.05  1008.63  1130.49  1191.99  1257.06
                             1266.08  1325.16  1349.33  1377.72  1439.93
                             1452.03  1516.71  1537.87  1601.62  1657.71
                             1690.80  1706.97  1745.73  1785.41  1809.83
                             1856.19  1863.22  1897.36  1945.61  2037.08
                             2044.54  2122.54  2131.70  2147.11  2154.93
                             2615.58  4194.78  4376.56  4409.54  4421.89
                             4448.25  4473.47  4477.81  4493.84  4496.12
                             4500.45

 Zero-point correction=                           0.158851 (Hartree/Particle)
 Thermal correction to Energy=                    0.167061
 Thermal correction to Enthalpy=                  0.168005
 Thermal correction to Gibbs Free Energy=         0.126111
 Sum of electronic and zero-point Energies=           -423.024471
 Sum of electronic and thermal Energies=              -423.016261
 Sum of electronic and thermal Enthalpies=            -423.015317
 Sum of electronic and thermal Free Energies=         -423.057211

                     E (Thermal)             CV                S
                      KCal/Mol        Cal/Mol-Kelvin    Cal/Mol-Kelvin
 Total                  104.833             31.631             88.175
 Electronic               0.000              0.000              0.000
 Translational            0.889              2.981             40.409
 Rotational               0.889              2.981             28.656
 Vibrational            103.055             25.669             19.110
 Vibration     1          0.600              1.962              3.869
 Vibration     2          0.625              1.882              2.455
 Vibration     3          0.635              1.850              2.200
 Vibration     4          0.658              1.777              1.791
 Vibration     5          0.666              1.752              1.685
 Vibration     6          0.711              1.620              1.271
 Vibration     7          0.736              1.551              1.114
 Vibration     8          0.767              1.466              0.956
 Vibration     9          0.853              1.256              0.665
 Vibration    10          0.935              1.078              0.488
 Vibration    11          0.980              0.990              0.417

 Normal termination of Gaussian 09 at Mon Jan 27 18:01:51 2020.
