 Gaussian 09, Revision D.01,
 Gaussian 09:  ES64L-G09RevD.01 24-Apr-2013

 -----------------------------
 # b3lyp 6-31G(2df,p) opt Freq
 -----------------------------

 -----
 titel
 -----
 Symbolic Z-matrix:
 Charge =  0 Multiplicity = 1

 SCF Done:  E(RB3LYP) =  -423.153015674     A.U. after   13 cycles
 Optimization completed.
    -- Stationary point found.
 Normal termination of Gaussian 09 at Tue Jan 28 08:10:28 2020.

 ----------------------------------------------------------------------
 #N Geom=AllCheck Guess=TCheck SCRF=Check GenChk RB3LYP/6-31G(2df,p) Fr
 eq
 ----------------------------------------------------------------------

 Structure from the checkpoint file:  "/scratch/puck/g09_d1136aa4-76d7-4c54-9c67-9aae112718c8/Gau-127669.chk"
 -----
 titel
 -----
 Charge =  0 Multiplicity = 1

                         Standard orientation:
 ---------------------------------------------------------------------
 Center     Atomic      Atomic             Coordinates (Angstroms)
 Number     Number       Type             X           Y           Z
 ---------------------------------------------------------------------
      1          8           0        2.582942   -0.440130   -0.043577
      2          6           0        1.227851   -0.122233   -0.348934
      3          6           0        0.988222    1.300477    0.163410
      4          6           0       -0.472017    1.757394   -0.008385
      5          6           0       -1.459480    0.611074    0.196084
      6          8           0       -1.543509   -0.241428   -0.996892
      7          6           0       -1.106244   -1.368170   -0.234505
      8          6           0       -0.981181   -0.579392    1.038039
      9          6           0        0.260018   -1.101463    0.326968
     10          1           0        2.794679   -1.274624   -0.473302
     11          1           0        1.066609   -0.148169   -1.436691
     12          1           0        1.253439    1.299458    1.227319
     13          1           0        1.674834    1.989591   -0.336179
     14          1           0       -0.692231    2.567763    0.695391
     15          1           0       -0.644974    2.157357   -1.014284
     16          1           0       -2.463328    0.964626    0.450358
     17          1           0       -1.529574   -2.337672   -0.469232
     18          1           0       -1.250096   -0.807703    2.059732
     19          1           0        0.732154   -1.944287    0.824581
 ---------------------------------------------------------------------

 SCF Done:  E(RB3LYP) =  -423.153015674     A.U. after    1 cycles

 The electronic state is 1-A.
 Alpha  occ. eigenvalues --  -19.13488 -19.13098 -10.23717 -10.23632 -10.22814
 Alpha  occ. eigenvalues --  -10.19217 -10.18908 -10.18167 -10.17498  -1.04940
 Alpha  occ. eigenvalues --   -1.01268  -0.83719  -0.78626  -0.72027  -0.64199
 Alpha  occ. eigenvalues --   -0.61992  -0.55813  -0.53315  -0.51662  -0.49864
 Alpha  occ. eigenvalues --   -0.48921  -0.45516  -0.42604  -0.40373  -0.40067
 Alpha  occ. eigenvalues --   -0.37442  -0.35215  -0.35145  -0.33879  -0.31804
 Alpha  occ. eigenvalues --   -0.29433  -0.28912  -0.25647  -0.23002
 Alpha virt. eigenvalues --    0.08014   0.08541   0.09281   0.11037   0.12228
 Alpha virt. eigenvalues --    0.14136   0.14751   0.15290   0.16200   0.17808
 Alpha virt. eigenvalues --    0.18480   0.19059   0.20394   0.20759   0.22827

 Mulliken charges:
               1
     1  O   -0.439563
     2  C    0.111373
     3  C   -0.198104
     4  C   -0.230495
     5  C    0.108876
     6  O   -0.305258
     7  C    0.079208
     8  C   -0.169462
     9  C   -0.105330
    10  H    0.279622
    11  H    0.079194
    12  H    0.106616
    13  H    0.101719
    14  H    0.099834
    15  H    0.115131
    16  H    0.083067
    17  H    0.100770
    18  H    0.095128
    19  H    0.087674
 Sum of Mulliken charges =   0.00000

 Dipole moment (field-independent basis, Debye):
    X=             -0.3745    Y=             -0.8959    Z=              0.7601  Tot=              1.2331
 Quadrupole moment (field-independent basis, Debye-Ang):
   XX=            -56.8565   YY=            -47.1698   ZZ=            -53.7109
   XY=             -3.0977   XZ=             -5.0163   YZ=              0.6626

  Exact polarizability:  77.677  -2.110  78.570  -1.446   0.884  63.512
 Approx polarizability: 108.043  -4.271 109.609   1.453   3.633 104.303

                      1                      2                      3
                      A                      A                      A
 Frequencies --    138.4704               190.6042               287.0004
 Red. masses --      4.1036                 2.1972                 1.0673
 Frc consts  --      0.0464                 0.0470                 0.0518
 IR Inten    --      3.7895                 1.3412               101.5941

                      4                      5                      6
                      A                      A                      A
 Frequencies --    335.2237               356.3981               375.4954
 Red. masses --      4.0544                 2.8590                 3.9837
 Frc consts  --      0.2684                 0.2140                 0.3309
 IR Inten    --      5.3866                 4.6115                 1.1963

                      7                      8                      9
                      A                      A                      A
 Frequencies --    443.6404               536.0178               590.4230
 Red. masses --      4.6215                 3.3660                 4.3346
 Frc consts  --      0.5359                 0.5698                 0.8903
 IR Inten    --      2.8562                10.9555                 6.0766

                     10                     11                     12
                      A                      A                      A
 Frequencies --    666.4157               743.9938               789.3750
 Red. masses --      3.1399                 2.0832                 1.6039
 Frc consts  --      0.8216                 0.6794                 0.5888
 IR Inten    --      1.3995                 1.3057                 2.9951

                     13                     14                     15
                      A                      A                      A
 Frequencies --    797.8229               834.0602               898.3773
 Red. masses --      2.0745                 2.4753                 2.3746
 Frc consts  --      0.7780                 1.0146                 1.1292
 IR Inten    --     12.7238                 4.9574                23.1490

                     16                     17                     18
                      A                      A                      A
 Frequencies --    907.6045               947.5490               980.7091
 Red. masses --      3.3563                 2.5182                 2.3651
 Frc consts  --      1.6289                 1.3321                 1.3402
 IR Inten    --     14.8377                 3.4704                20.4921

                     19                     20                     21
                      A                      A                      A
 Frequencies --    994.2613              1027.4303              1041.1370
 Red. masses --      1.6152                 2.1360                 1.4227
 Frc consts  --      0.9408                 1.3285                 0.9086
 IR Inten    --      3.4463                16.0715                10.1381

                     22                     23                     24
                      A                      A                      A
 Frequencies --   1045.6677              1057.0631              1068.2412
 Red. masses --      4.9880                 1.7816                 2.0165
 Frc consts  --      3.2134                 1.1729                 1.3558
 IR Inten    --     29.7008                11.8267                40.7668

                     25                     26                     27
                      A                      A                      A
 Frequencies --   1092.1352              1112.2998              1137.7562
 Red. masses --      3.4633                 2.6625                 1.4659
 Frc consts  --      2.4338                 1.9408                 1.1181
 IR Inten    --     56.1973                 5.0264                16.7889

                     28                     29                     30
                      A                      A                      A
 Frequencies --   1174.0462              1234.0181              1246.2768
 Red. masses --      1.2277                 1.3677                 1.3205
 Frc consts  --      0.9970                 1.2271                 1.2084
 IR Inten    --      5.9997                 3.7000                 4.5379

                     31                     32                     33
                      A                      A                      A
 Frequencies --   1272.3768              1291.4263              1302.0552
 Red. masses --      1.4344                 1.3021                 1.5608
 Frc consts  --      1.3683                 1.2795                 1.5591
 IR Inten    --     13.7500                 2.2411                15.6504

                     34                     35                     36
                      A                      A                      A
 Frequencies --   1339.5782              1355.6702              1369.9088
 Red. masses --      1.3325                 1.4361                 1.4044
 Frc consts  --      1.4088                 1.5550                 1.5528
 IR Inten    --      1.6407                 7.4118                10.4267

                     37                     38                     39
                      A                      A                      A
 Frequencies --   1380.6511              1402.0668              1434.8680
 Red. masses --      1.4991                 2.4427                 1.6585
 Frc consts  --      1.6837                 2.8292                 2.0118
 IR Inten    --     13.7285                20.9104                 2.0257

                     40                     41                     42
                      A                      A                      A
 Frequencies --   1472.9843              1495.6596              2990.9989
 Red. masses --      1.0824                 1.1059                 1.0829
 Frc consts  --      1.3837                 1.4576                 5.7077
 IR Inten    --      2.5910                 2.8503                30.0955

                     43                     44                     45
                      A                      A                      A
 Frequencies --   3034.5056              3040.7309              3060.1172
 Red. masses --      1.0609                 1.0655                 1.0870
 Frc consts  --      5.7556                 5.8044                 5.9976
 IR Inten    --     14.7286                20.7040                57.3062

                     46                     47                     48
                      A                      A                      A
 Frequencies --   3075.9983              3096.0383              3150.7973
 Red. masses --      1.0988                 1.1019                 1.0876
 Frc consts  --      6.1256                 6.2231                 6.3613
 IR Inten    --     27.0996                34.2832                 7.1951

                     49                     50                     51
                      A                      A                      A
 Frequencies --   3181.9614              3210.0181              3820.0260
 Red. masses --      1.0915                 1.0976                 1.0663
 Frc consts  --      6.5111                 6.6638                 9.1678
 IR Inten    --     26.1688                12.5607                17.7741

 - Thermochemistry -
 -------------------
 Temperature   298.150 Kelvin.  Pressure   1.00000 Atm.
 Atom     1 has atomic number  8 and mass  15.99491

 Molecular mass:   126.06808 amu.
 Principal axes and moments of inertia in atomic units:
                           1         2         3
     Eigenvalues --   644.345961066.705971398.25243
           X            0.99977  -0.00959  -0.01902
           Y            0.00952   0.99995  -0.00367
           Z            0.01906   0.00349   0.99981
 This molecule is an asymmetric top.
 Rotational symmetry number  1.
 Warning -- assumption of classical behavior for rotation
           may cause significant error
 Rotational temperatures (Kelvin)      0.13442     0.08120     0.06194
 Rotational constants (GHZ):           2.80089     1.69188     1.29071
 Zero-point vibrational energy     423645.2 (Joules/Mol)
                                  101.25364 (Kcal/Mol)
 Warning -- explicit consideration of   9 degrees of freedom as
           vibrations may cause significant error
 Vibrational temperatures:    199.23   274.24   412.93   482.31   512.78
          (Kelvin)            540.25   638.30   771.21   849.49   958.82
                             1070.44  1135.73  1147.89  1200.03  1292.56
                             1305.84  1363.31  1411.02  1430.52  1478.24
                             1497.96  1504.48  1520.88  1536.96  1571.34
                             1600.35  1636.98  1689.19  1775.47  1793.11
                             1830.66  1858.07  1873.36  1927.35  1950.50
                             1970.99  1986.45  2017.26  2064.45  2119.29
                             2151.92  4303.37  4365.97  4374.93  4402.82
                             4425.67  4454.50  4533.29  4578.13  4618.49
                             5496.16

 Zero-point correction=                           0.161358 (Hartree/Particle)
 Thermal correction to Energy=                    0.168614
 Thermal correction to Enthalpy=                  0.169558
 Thermal correction to Gibbs Free Energy=         0.129981
 Sum of electronic and zero-point Energies=           -422.991658
 Sum of electronic and thermal Energies=              -422.984402
 Sum of electronic and thermal Enthalpies=            -422.983458
 Sum of electronic and thermal Free Energies=         -423.023035

                     E (Thermal)             CV                S
                      KCal/Mol        Cal/Mol-Kelvin    Cal/Mol-Kelvin
 Total                  105.807             29.819             83.296
 Electronic               0.000              0.000              0.000
 Translational            0.889              2.981             40.409
 Rotational               0.889              2.981             28.354
 Vibrational            104.029             23.857             14.534
 Vibration     1          0.614              1.915              2.825
 Vibration     2          0.634              1.853              2.222
 Vibration     3          0.684              1.698              1.492
 Vibration     4          0.716              1.605              1.235
 Vibration     5          0.732              1.562              1.138
 Vibration     6          0.746              1.522              1.057
 Vibration     7          0.803              1.375              0.815
 Vibration     8          0.891              1.170              0.574
 Vibration     9          0.948              1.052              0.466

 Optimization completed.
    -- Stationary point found.
 Normal termination of Gaussian 09 at Tue Jan 28 08:54:26 2020.
