 Gaussian 09, Revision D.01,
 Gaussian 09:  ES64L-G09RevD.01 24-Apr-2013

 -----------------------------
 # b3lyp 6-31G(2df,p) opt Freq
 -----------------------------

 -----
 titel
 -----
 Symbolic Z-matrix:
 Charge =  0 Multiplicity = 1

 SCF Done:  E(RB3LYP) =  -423.158189296     A.U. after   13 cycles
 Optimization completed.
    -- Stationary point found.
 Normal termination of Gaussian 09 at Mon Jan 27 18:47:26 2020.

 ----------------------------------------------------------------------
 #N Geom=AllCheck Guess=TCheck SCRF=Check GenChk RB3LYP/6-31G(2df,p) Fr
 eq
 ----------------------------------------------------------------------

 Structure from the checkpoint file:  "/scratch/puck/g09_4fe0b337-62a5-4f40-8303-944dbf83612c/Gau-76619.chk"
 -----
 titel
 -----
 Charge =  0 Multiplicity = 1

                         Standard orientation:
 ---------------------------------------------------------------------
 Center     Atomic      Atomic             Coordinates (Angstroms)
 Number     Number       Type             X           Y           Z
 ---------------------------------------------------------------------
      1          6           0       -0.926978    1.901788    0.555771
      2          6           0       -0.504145    0.580855   -0.054250
      3          8           0       -1.552764    0.032750   -0.902814
      4          6           0       -1.578833   -1.209646   -0.167258
      5          6           0       -0.474736   -0.723163    0.793813
      6          8           0        0.787145   -1.354097    0.664503
      7          6           0        1.539898   -0.684267   -0.326949
      8          6           0        2.094165    0.658103    0.066186
      9          6           0        0.834046    0.558079   -0.775467
     10          1           0       -0.157373    2.289426    1.229704
     11          1           0       -1.092615    2.640627   -0.235105
     12          1           0       -1.861113    1.790024    1.113649
     13          1           0       -2.561588   -1.391673    0.283992
     14          1           0       -1.288254   -2.071708   -0.778290
     15          1           0       -0.738027   -0.666301    1.851766
     16          1           0        2.076236   -1.355189   -0.987940
     17          1           0        2.009315    0.937586    1.111388
     18          1           0        2.992051    1.014618   -0.427553
     19          1           0        0.845821    0.892877   -1.806199
 ---------------------------------------------------------------------

 SCF Done:  E(RB3LYP) =  -423.158189296     A.U. after    1 cycles

 The electronic state is 1-A.
 Alpha  occ. eigenvalues --  -19.14557 -19.13037 -10.24269 -10.23633 -10.23524
 Alpha  occ. eigenvalues --  -10.22509 -10.19240 -10.18950 -10.17976  -1.05900
 Alpha  occ. eigenvalues --   -1.02152  -0.85309  -0.76000  -0.72182  -0.66013
 Alpha  occ. eigenvalues --   -0.61704  -0.58479  -0.54774  -0.51884  -0.49358
 Alpha  occ. eigenvalues --   -0.46123  -0.45509  -0.43146  -0.40929  -0.40667
 Alpha  occ. eigenvalues --   -0.39243  -0.38488  -0.37445  -0.35751  -0.31228
 Alpha  occ. eigenvalues --   -0.30125  -0.28386  -0.25050  -0.23550
 Alpha virt. eigenvalues --    0.07447   0.09156   0.10289   0.10931   0.11891
 Alpha virt. eigenvalues --    0.13441   0.14561   0.15780   0.16302   0.17216
 Alpha virt. eigenvalues --    0.18126   0.18575   0.18847   0.20477   0.22599

 Mulliken charges:
               1
     1  C   -0.450810
     2  C    0.395554
     3  O   -0.332571
     4  C   -0.104668
     5  C    0.008361
     6  O   -0.273317
     7  C    0.096220
     8  C   -0.325400
     9  C   -0.120282
    10  H    0.120639
    11  H    0.129915
    12  H    0.120446
    13  H    0.101839
    14  H    0.106909
    15  H    0.088760
    16  H    0.102524
    17  H    0.117782
    18  H    0.115904
    19  H    0.102196
 Sum of Mulliken charges =   0.00000

 Dipole moment (field-independent basis, Debye):
    X=              0.5031    Y=              0.7132    Z=              0.4301  Tot=              0.9730
 Quadrupole moment (field-independent basis, Debye-Ang):
   XX=            -52.8419   YY=            -53.2561   ZZ=            -53.0696
   XY=              2.7344   XZ=             -4.9896   YZ=              1.8426

  Exact polarizability:  82.101   4.305  74.535  -3.165   1.766  64.231
 Approx polarizability: 111.643   3.619 107.157   0.057  -1.189 100.110

                      1                      2                      3
                      A                      A                      A
 Frequencies --     87.7250               190.0737               199.5782
 Red. masses --      3.1015                 2.8271                 1.1061
 Frc consts  --      0.0141                 0.0602                 0.0260
 IR Inten    --      3.7915                 1.2583                 0.2496

                      4                      5                      6
                      A                      A                      A
 Frequencies --    248.9935               349.8783               374.0008
 Red. masses --      2.3899                 3.1215                 2.5962
 Frc consts  --      0.0873                 0.2251                 0.2140
 IR Inten    --      0.2793                 2.4458                 4.5683

                      7                      8                      9
                      A                      A                      A
 Frequencies --    405.9363               462.5929               598.0662
 Red. masses --      3.6141                 3.0102                 3.8397
 Frc consts  --      0.3509                 0.3795                 0.8092
 IR Inten    --      2.7042                 3.6966                 3.7904

                     10                     11                     12
                      A                      A                      A
 Frequencies --    664.9101               710.0359               801.0892
 Red. masses --      3.0146                 3.8988                 2.1218
 Frc consts  --      0.7853                 1.1581                 0.8023
 IR Inten    --      3.4144                 1.9199                12.6289

                     13                     14                     15
                      A                      A                      A
 Frequencies --    803.7462               830.7309               880.0738
 Red. masses --      1.9353                 1.8496                 2.2552
 Frc consts  --      0.7366                 0.7521                 1.0291
 IR Inten    --     13.1127                 2.3973                17.4544

                     16                     17                     18
                      A                      A                      A
 Frequencies --    903.6170               924.1083               980.4663
 Red. masses --      2.1197                 2.0863                 1.9959
 Frc consts  --      1.0197                 1.0497                 1.1304
 IR Inten    --      3.1840                 4.2811                10.3614

                     19                     20                     21
                      A                      A                      A
 Frequencies --   1002.5460              1014.5579              1030.8095
 Red. masses --      3.2582                 6.9241                 1.4444
 Frc consts  --      1.9295                 4.1992                 0.9043
 IR Inten    --      8.3069               100.3438                 2.8412

                     22                     23                     24
                      A                      A                      A
 Frequencies --   1051.5268              1058.5791              1090.0328
 Red. masses --      1.9438                 1.7957                 1.6129
 Frc consts  --      1.2663                 1.1856                 1.1291
 IR Inten    --     29.3339                 1.6359                 3.3392

                     25                     26                     27
                      A                      A                      A
 Frequencies --   1109.0252              1130.0878              1147.1077
 Red. masses --      1.6297                 2.5941                 2.2651
 Frc consts  --      1.1810                 1.9519                 1.7561
 IR Inten    --      7.7142                32.4149                62.5802

                     28                     29                     30
                      A                      A                      A
 Frequencies --   1165.2909              1184.4450              1197.6156
 Red. masses --      1.1845                 2.1519                 1.8439
 Frc consts  --      0.9476                 1.7787                 1.5582
 IR Inten    --      8.1638                 8.9736                32.5051

                     31                     32                     33
                      A                      A                      A
 Frequencies --   1236.3005              1264.4750              1314.7218
 Red. masses --      2.3723                 2.2676                 1.2761
 Frc consts  --      2.1364                 2.1361                 1.2996
 IR Inten    --     17.7941                 4.5596                12.4375

                     34                     35                     36
                      A                      A                      A
 Frequencies --   1330.8154              1372.9755              1390.7391
 Red. masses --      1.5719                 2.1611                 1.4691
 Frc consts  --      1.6403                 2.4002                 1.6742
 IR Inten    --      6.2190                15.1504                 6.9490

                     37                     38                     39
                      A                      A                      A
 Frequencies --   1406.3973              1474.4051              1481.0036
 Red. masses --      1.3133                 1.2443                 1.0633
 Frc consts  --      1.5305                 1.5938                 1.3740
 IR Inten    --      8.4034                 6.2255                 2.6944

                     40                     41                     42
                      A                      A                      A
 Frequencies --   1489.3140              1513.3111              3020.5486
 Red. masses --      1.0648                 1.0992                 1.0558
 Frc consts  --      1.3915                 1.4831                 5.6753
 IR Inten    --      4.1119                 0.5730                65.5921

                     43                     44                     45
                      A                      A                      A
 Frequencies --   3038.3696              3071.0299              3094.6078
 Red. masses --      1.0348                 1.1089                 1.0905
 Frc consts  --      5.6286                 6.1618                 6.1530
 IR Inten    --     13.7288                19.9543                40.4333

                     46                     47                     48
                      A                      A                      A
 Frequencies --   3109.1268              3116.9438              3127.1724
 Red. masses --      1.1009                 1.1017                 1.0542
 Frc consts  --      6.2703                 6.3062                 6.0738
 IR Inten    --     18.2650                19.0911                12.4626

                     49                     50                     51
                      A                      A                      A
 Frequencies --   3174.6117              3183.1313              3216.7179
 Red. masses --      1.0888                 1.0957                 1.1159
 Frc consts  --      6.4652                 6.5412                 6.8028
 IR Inten    --     14.0810                 8.8677                10.7458

 - Thermochemistry -
 -------------------
 Temperature   298.150 Kelvin.  Pressure   1.00000 Atm.
 Atom     1 has atomic number  6 and mass  12.00000

 Molecular mass:   126.06808 amu.
 Principal axes and moments of inertia in atomic units:
                           1         2         3
     Eigenvalues --   694.63874 958.702051278.09478
           X            0.99845   0.04417  -0.03380
           Y           -0.04248   0.99788   0.04924
           Z            0.03591  -0.04773   0.99821
 This molecule is an asymmetric top.
 Rotational symmetry number  1.
 Warning -- assumption of classical behavior for rotation
           may cause significant error
 Rotational temperatures (Kelvin)      0.12469     0.09034     0.06777
 Rotational constants (GHZ):           2.59810     1.88248     1.41206
 Zero-point vibrational energy     418836.3 (Joules/Mol)
                                  100.10428 (Kcal/Mol)
 Warning -- explicit consideration of   9 degrees of freedom as
           vibrations may cause significant error
 Vibrational temperatures:    126.22   273.47   287.15   358.25   503.40
          (Kelvin)            538.10   584.05   665.57   860.48   956.66
                             1021.58  1152.59  1156.41  1195.23  1266.23
                             1300.10  1329.58  1410.67  1442.44  1459.72
                             1483.10  1512.91  1523.06  1568.31  1595.64
                             1625.94  1650.43  1676.59  1704.15  1723.10
                             1778.76  1819.30  1891.59  1914.74  1975.40
                             2000.96  2023.49  2121.34  2130.83  2142.79
                             2177.31  4345.89  4371.53  4418.52  4452.44
                             4473.33  4484.58  4499.30  4567.55  4579.81
                             4628.13

 Zero-point correction=                           0.159526 (Hartree/Particle)
 Thermal correction to Energy=                    0.167222
 Thermal correction to Enthalpy=                  0.168166
 Thermal correction to Gibbs Free Energy=         0.127498
 Sum of electronic and zero-point Energies=           -422.998663
 Sum of electronic and thermal Energies=              -422.990967
 Sum of electronic and thermal Enthalpies=            -422.990023
 Sum of electronic and thermal Free Energies=         -423.030691

                     E (Thermal)             CV                S
                      KCal/Mol        Cal/Mol-Kelvin    Cal/Mol-Kelvin
 Total                  104.933             30.493             85.594
 Electronic               0.000              0.000              0.000
 Translational            0.889              2.981             40.409
 Rotational               0.889              2.981             28.233
 Vibrational            103.156             24.532             16.952
 Vibration     1          0.601              1.958              3.710
 Vibration     2          0.633              1.854              2.227
 Vibration     3          0.638              1.840              2.137
 Vibration     4          0.662              1.764              1.738
 Vibration     5          0.727              1.576              1.167
 Vibration     6          0.745              1.525              1.063
 Vibration     7          0.771              1.457              0.941
 Vibration     8          0.820              1.333              0.759
 Vibration     9          0.956              1.036              0.453

 Normal termination of Gaussian 09 at Mon Jan 27 19:43:57 2020.
