 Gaussian 09, Revision D.01,
 Gaussian 09:  ES64L-G09RevD.01 24-Apr-2013

 -----------------------------
 # b3lyp 6-31G(2df,p) opt Freq
 -----------------------------

 -----
 titel
 -----
 Symbolic Z-matrix:
 Charge =  0 Multiplicity = 1

 SCF Done:  E(RB3LYP) =  -423.122500594     A.U. after   14 cycles
 Optimization completed.
    -- Stationary point found.
 Normal termination of Gaussian 09 at Mon Jan 27 14:13:11 2020.

 ----------------------------------------------------------------------
 #N Geom=AllCheck Guess=TCheck SCRF=Check GenChk RB3LYP/6-31G(2df,p) Fr
 eq
 ----------------------------------------------------------------------

 Structure from the checkpoint file:  "/scratch/puck/g09_21aaf5ef-6c00-4a23-9c02-33576146460b/Gau-58022.chk"
 -----
 titel
 -----
 Charge =  0 Multiplicity = 1

                         Standard orientation:
 ---------------------------------------------------------------------
 Center     Atomic      Atomic             Coordinates (Angstroms)
 Number     Number       Type             X           Y           Z
 ---------------------------------------------------------------------
      1          6           0        2.525780    1.011104    0.609679
      2          6           0        1.583985    0.213347   -0.277249
      3          6           0        1.778019   -1.317719   -0.370481
      4          8           0        0.415959   -1.561252    0.049115
      5          6           0        0.194585   -0.158885    0.286493
      6          6           0       -1.020408    0.389384   -0.475281
      7          8           0       -1.022113    1.814657   -0.403691
      8          6           0       -2.271343   -0.190805    0.010116
      9          6           0       -3.291967   -0.633867    0.465196
     10          1           0        2.157262    2.033511    0.741413
     11          1           0        2.619657    0.553660    1.600888
     12          1           0        3.527974    1.069820    0.171773
     13          1           0        1.501436    0.684473   -1.260803
     14          1           0        1.981133   -1.736741   -1.362520
     15          1           0        2.501807   -1.729177    0.346003
     16          1           0        0.072515    0.056167    1.359246
     17          1           0       -0.890565    0.144136   -1.536159
     18          1           0       -1.417032    2.060905    0.439993
     19          1           0       -4.196861   -1.039347    0.845930
 ---------------------------------------------------------------------

 SCF Done:  E(RB3LYP) =  -423.122500594     A.U. after    1 cycles

 The electronic state is 1-A.
 Alpha  occ. eigenvalues --  -19.15005 -19.13326 -10.25714 -10.23496 -10.22878
 Alpha  occ. eigenvalues --  -10.19457 -10.18545 -10.18175 -10.18168  -1.04246
 Alpha  occ. eigenvalues --   -1.02859  -0.78379  -0.77420  -0.72105  -0.67207
 Alpha  occ. eigenvalues --   -0.64601  -0.56532  -0.54879  -0.51042  -0.49617
 Alpha  occ. eigenvalues --   -0.47706  -0.45665  -0.43953  -0.41895  -0.40221
 Alpha  occ. eigenvalues --   -0.39153  -0.36422  -0.35642  -0.32351  -0.30091
 Alpha  occ. eigenvalues --   -0.29740  -0.27567  -0.27238  -0.24445
 Alpha virt. eigenvalues --    0.02497   0.04362   0.08699   0.09858   0.10651
 Alpha virt. eigenvalues --    0.11669   0.12410   0.13914   0.14464   0.15948
 Alpha virt. eigenvalues --    0.16580   0.17234   0.18743   0.19201   0.21995

 Mulliken charges:
               1
     1  C   -0.418078
     2  C   -0.036010
     3  C   -0.081774
     4  O   -0.292376
     5  C    0.137152
     6  C   -0.080507
     7  O   -0.420024
     8  C    0.289814
     9  C   -0.432566
    10  H    0.127300
    11  H    0.117780
    12  H    0.118943
    13  H    0.088899
    14  H    0.104802
    15  H    0.098268
    16  H    0.068262
    17  H    0.118789
    18  H    0.289422
    19  H    0.201904
 Sum of Mulliken charges =   0.00000

 Dipole moment (field-independent basis, Debye):
    X=              0.7283    Y=              0.7483    Z=              0.8043  Tot=              1.3181
 Quadrupole moment (field-independent basis, Debye-Ang):
   XX=            -46.2548   YY=            -57.2433   ZZ=            -51.6380
   XY=              0.2024   XZ=             -3.8255   YZ=              2.9873

  Exact polarizability:  99.361   5.797  70.828  -7.571   0.548  63.471
 Approx polarizability: 131.480  12.852 104.686 -16.986  -3.478  99.035

                      1                      2                      3
                      A                      A                      A
 Frequencies --     55.9931                61.1411               109.0329
 Red. masses --      3.2118                 3.7822                 4.0312
 Frc consts  --      0.0059                 0.0083                 0.0282
 IR Inten    --      0.9002                 1.5246                 3.1204

                      4                      5                      6
                      A                      A                      A
 Frequencies --    184.1577               213.5104               228.3065
 Red. masses --      3.1320                 3.6736                 1.1121
 Frc consts  --      0.0626                 0.0987                 0.0342
 IR Inten    --      0.1507                 4.5588                 6.1048

                      7                      8                      9
                      A                      A                      A
 Frequencies --    257.1435               288.1492               324.2947
 Red. masses --      1.2614                 2.5669                 2.9681
 Frc consts  --      0.0491                 0.1256                 0.1839
 IR Inten    --     71.4487                15.4456                17.7988

                     10                     11                     12
                      A                      A                      A
 Frequencies --    406.7281               445.7901               530.9938
 Red. masses --      5.8221                 3.1257                 4.1402
 Frc consts  --      0.5675                 0.3660                 0.6878
 IR Inten    --      2.9271                 1.6671                 6.6852

                     13                     14                     15
                      A                      A                      A
 Frequencies --    587.4055               634.6538               675.1503
 Red. masses --      5.8267                 1.2219                 1.2519
 Frc consts  --      1.1845                 0.2900                 0.3362
 IR Inten    --     13.6485                45.7715                33.6531

                     16                     17                     18
                      A                      A                      A
 Frequencies --    730.9979               881.6043               897.3758
 Red. masses --      3.7397                 2.0998                 1.9398
 Frc consts  --      1.1774                 0.9616                 0.9203
 IR Inten    --      4.2446                15.1439                 0.3684

                     19                     20                     21
                      A                      A                      A
 Frequencies --    924.1300               929.9554              1001.9532
 Red. masses --      2.6637                 1.4792                 4.4503
 Frc consts  --      1.3403                 0.7537                 2.6323
 IR Inten    --     29.9047                12.5523                27.5771

                     22                     23                     24
                      A                      A                      A
 Frequencies --   1039.2828              1063.3928              1094.8508
 Red. masses --      8.3972                 4.4345                 2.4841
 Frc consts  --      5.3438                 2.9545                 1.7544
 IR Inten    --    136.3403                64.6141                 0.2754

                     25                     26                     27
                      A                      A                      A
 Frequencies --   1124.5950              1131.7513              1151.7129
 Red. masses --      2.2748                 2.2005                 1.5179
 Frc consts  --      1.6950                 1.6606                 1.1863
 IR Inten    --      3.4932                 2.9979                 1.3666

                     28                     29                     30
                      A                      A                      A
 Frequencies --   1180.0536              1238.4793              1251.8765
 Red. masses --      1.3636                 1.3616                 1.3007
 Frc consts  --      1.1188                 1.2305                 1.2010
 IR Inten    --      0.8335                 9.1569                 1.2410

                     31                     32                     33
                      A                      A                      A
 Frequencies --   1280.2213              1296.3746              1339.3274
 Red. masses --      1.3948                 1.2925                 1.3117
 Frc consts  --      1.3469                 1.2798                 1.3863
 IR Inten    --      4.0150                13.0391                 3.4115

                     34                     35                     36
                      A                      A                      A
 Frequencies --   1370.8661              1396.4155              1410.5164
 Red. masses --      1.3290                 1.3970                 1.3011
 Frc consts  --      1.4715                 1.6050                 1.5252
 IR Inten    --      3.8928                21.4041                 3.5801

                     37                     38                     39
                      A                      A                      A
 Frequencies --   1418.8957              1495.5188              1498.6505
 Red. masses --      1.4273                 1.0492                 1.0491
 Frc consts  --      1.6930                 1.3826                 1.3883
 IR Inten    --     41.4764                 3.8407                 4.1032

                     40                     41                     42
                      A                      A                      A
 Frequencies --   1527.0196              2233.7251              2984.6807
 Red. masses --      1.1038                 5.9096                 1.0824
 Frc consts  --      1.5164                17.3728                 5.6810
 IR Inten    --      2.1540                 1.6715                47.0075

                     43                     44                     45
                      A                      A                      A
 Frequencies --   3008.9372              3029.3311              3044.4006
 Red. masses --      1.0597                 1.0358                 1.0843
 Frc consts  --      5.6528                 5.6006                 5.9210
 IR Inten    --     64.8370                28.3281                21.0491

                     46                     47                     48
                      A                      A                      A
 Frequencies --   3054.2701              3070.0076              3098.4570
 Red. masses --      1.0991                 1.0935                 1.1007
 Frc consts  --      6.0408                 6.0723                 6.2260
 IR Inten    --     11.4844                36.8183                38.1885

                     49                     50                     51
                      A                      A                      A
 Frequencies --   3104.1985              3502.5409              3810.8104
 Red. masses --      1.1011                 1.1625                 1.0663
 Frc consts  --      6.2515                 8.4028                 9.1234
 IR Inten    --     24.1633                65.8511                28.5176

 - Thermochemistry -
 -------------------
 Temperature   298.150 Kelvin.  Pressure   1.00000 Atm.
 Atom     1 has atomic number  6 and mass  12.00000

 Molecular mass:   126.06808 amu.
 Principal axes and moments of inertia in atomic units:
                           1         2         3
     Eigenvalues --   635.685591619.865012057.14476
           X            0.99988   0.01550   0.00042
           Y           -0.01550   0.99950   0.02742
           Z            0.00000  -0.02743   0.99962
 This molecule is an asymmetric top.
 Rotational symmetry number  1.
 Warning -- assumption of classical behavior for rotation
           may cause significant error
 Rotational temperatures (Kelvin)      0.13625     0.05347     0.04210
 Rotational constants (GHZ):           2.83905     1.11413     0.87730
 Zero-point vibrational energy     410436.5 (Joules/Mol)
                                   98.09668 (Kcal/Mol)
 Warning -- explicit consideration of  13 degrees of freedom as
           vibrations may cause significant error
 Vibrational temperatures:     80.56    87.97   156.87   264.96   307.19
          (Kelvin)            328.48   369.97   414.58   466.59   585.19
                              641.39   763.98   845.14   913.12   971.39
                             1051.74  1268.43  1291.12  1329.62  1338.00
                             1441.59  1495.29  1529.98  1575.24  1618.04
                             1628.34  1657.06  1697.83  1781.89  1801.17
                             1841.95  1865.19  1926.99  1972.37  2009.13
                             2029.42  2041.47  2151.72  2156.22  2197.04
                             3213.83  4294.28  4329.18  4358.53  4380.21
                             4394.41  4417.05  4457.98  4466.24  5039.37
                             5482.90

 Zero-point correction=                           0.156327 (Hartree/Particle)
 Thermal correction to Energy=                    0.166283
 Thermal correction to Enthalpy=                  0.167227
 Thermal correction to Gibbs Free Energy=         0.120848
 Sum of electronic and zero-point Energies=           -422.966174
 Sum of electronic and thermal Energies=              -422.956217
 Sum of electronic and thermal Enthalpies=            -422.955273
 Sum of electronic and thermal Free Energies=         -423.001652

                     E (Thermal)             CV                S
                      KCal/Mol        Cal/Mol-Kelvin    Cal/Mol-Kelvin
 Total                  104.344             35.758             97.613
 Electronic               0.000              0.000              0.000
 Translational            0.889              2.981             40.409
 Rotational               0.889              2.981             29.139
 Vibrational            102.567             29.796             28.065
 Vibration     1          0.596              1.975              4.594
 Vibration     2          0.597              1.973              4.420
 Vibration     3          0.606              1.942              3.286
 Vibration     4          0.631              1.861              2.286
 Vibration     5          0.644              1.820              2.013
 Vibration     6          0.651              1.798              1.892
 Vibration     7          0.667              1.751              1.681
 Vibration     8          0.685              1.696              1.485
 Vibration     9          0.709              1.627              1.288
 Vibration    10          0.771              1.456              0.938
 Vibration    11          0.805              1.370              0.809
 Vibration    12          0.886              1.181              0.585
 Vibration    13          0.945              1.059              0.472

 Optimization completed.
    -- Stationary point found.
 Normal termination of Gaussian 09 at Mon Jan 27 14:55:12 2020.
