 Gaussian 09, Revision D.01,
 Gaussian 09:  ES64L-G09RevD.01 24-Apr-2013

 -----------------------------
 # b3lyp 6-31G(2df,p) opt Freq
 -----------------------------

 -----
 titel
 -----
 Symbolic Z-matrix:
 Charge =  0 Multiplicity = 1

 SCF Done:  E(RB3LYP) =  -423.097337881     A.U. after   13 cycles
 Optimization completed.
    -- Stationary point found.
 Normal termination of Gaussian 09 at Mon Jan 27 15:41:17 2020.

 ----------------------------------------------------------------------
 #N Geom=AllCheck Guess=TCheck SCRF=Check GenChk RB3LYP/6-31G(2df,p) Fr
 eq
 ----------------------------------------------------------------------

 Structure from the checkpoint file:  "/scratch/puck/g09_be5a70fd-c618-4cf6-bbc8-f360302a498e/Gau-9242.chk"
 -----
 titel
 -----
 Charge =  0 Multiplicity = 1

                         Standard orientation:
 ---------------------------------------------------------------------
 Center     Atomic      Atomic             Coordinates (Angstroms)
 Number     Number       Type             X           Y           Z
 ---------------------------------------------------------------------
      1          6           0        2.529590   -1.153401    0.236361
      2          6           0        1.732463    0.050888   -0.251646
      3          8           0        2.359642    1.205288    0.300024
      4          6           0        0.275389   -0.016584    0.165632
      5          6           0       -0.686696   -0.721890   -0.752053
      6          6           0       -2.136067   -0.750619   -0.165893
      7          8           0       -2.148852   -0.106336    1.116082
      8          6           0       -2.157780    0.704238   -0.067494
      9          6           0       -0.708365    0.797966   -0.646654
     10          1           0        2.137257   -2.078026   -0.195984
     11          1           0        3.579800   -1.048833   -0.049003
     12          1           0        2.476438   -1.225293    1.326914
     13          1           0        1.783796    0.087144   -1.354300
     14          1           0        1.777200    1.954964    0.139053
     15          1           0        0.117941   -0.088737    1.236310
     16          1           0       -0.371354   -1.322909   -1.595038
     17          1           0       -2.912453   -1.477443   -0.370630
     18          1           0       -2.955801    1.428806   -0.174164
     19          1           0       -0.410345    1.515131   -1.401525
 ---------------------------------------------------------------------

 SCF Done:  E(RB3LYP) =  -423.097337881     A.U. after    1 cycles

 The electronic state is 1-A.
 Alpha  occ. eigenvalues --  -19.15724 -19.12908 -10.24403 -10.24355 -10.23396
 Alpha  occ. eigenvalues --  -10.20087 -10.20038 -10.19461 -10.17027  -1.08317
 Alpha  occ. eigenvalues --   -1.01266  -0.87678  -0.75471  -0.69123  -0.65573
 Alpha  occ. eigenvalues --   -0.61166  -0.56485  -0.55099  -0.54261  -0.50485
 Alpha  occ. eigenvalues --   -0.47684  -0.46181  -0.41269  -0.40997  -0.39565
 Alpha  occ. eigenvalues --   -0.37870  -0.36757  -0.35222  -0.34905  -0.32804
 Alpha  occ. eigenvalues --   -0.29922  -0.26992  -0.26345  -0.23629
 Alpha virt. eigenvalues --    0.05470   0.07883   0.09612   0.10135   0.12076
 Alpha virt. eigenvalues --    0.12537   0.14274   0.15475   0.16128   0.16200
 Alpha virt. eigenvalues --    0.16822   0.18568   0.19838   0.21179   0.21871

 Mulliken charges:
               1
     1  C   -0.379102
     2  C    0.104809
     3  O   -0.439685
     4  C   -0.034397
     5  C   -0.117594
     6  C    0.007194
     7  O   -0.237036
     8  C    0.004780
     9  C   -0.134540
    10  H    0.113720
    11  H    0.122656
    12  H    0.124595
    13  H    0.056281
    14  H    0.280336
    15  H    0.117743
    16  H    0.094587
    17  H    0.111402
    18  H    0.111100
    19  H    0.093153
 Sum of Mulliken charges =   0.00000

 Dipole moment (field-independent basis, Debye):
    X=             -1.2799    Y=              0.0486    Z=             -2.3288  Tot=              2.6577
 Quadrupole moment (field-independent basis, Debye-Ang):
   XX=            -56.8025   YY=            -48.8941   ZZ=            -54.9095
   XY=             -2.2196   XZ=              2.0449   YZ=             -0.2936

  Exact polarizability:  88.022  -1.645  73.438   0.469   0.399  61.896
 Approx polarizability: 110.297   0.170 115.979   0.202   1.727 102.237

                      1                      2                      3
                      A                      A                      A
 Frequencies --     84.7840               132.9450               161.8169
 Red. masses --      3.4197                 3.4305                 3.7375
 Frc consts  --      0.0145                 0.0357                 0.0577
 IR Inten    --      0.2661                 0.9302                 1.0822

                      4                      5                      6
                      A                      A                      A
 Frequencies --    229.9393               292.5282               330.6884
 Red. masses --      1.1392                 2.3871                 1.3518
 Frc consts  --      0.0355                 0.1204                 0.0871
 IR Inten    --      1.3298                27.8996                67.4111

                      7                      8                      9
                      A                      A                      A
 Frequencies --    388.4927               421.0444               464.0975
 Red. masses --      3.1234                 3.2055                 3.1157
 Frc consts  --      0.2777                 0.3348                 0.3954
 IR Inten    --      6.0044                10.8489                 8.8142

                     10                     11                     12
                      A                      A                      A
 Frequencies --    490.5238               606.9944               764.3366
 Red. masses --      3.3346                 4.4816                 5.1722
 Frc consts  --      0.4727                 0.9729                 1.7803
 IR Inten    --     12.8334                 3.2444                 0.2179

                     13                     14                     15
                      A                      A                      A
 Frequencies --    773.0114               785.3511               835.8140
 Red. masses --      4.1136                 1.3434                 1.9898
 Frc consts  --      1.4483                 0.4882                 0.8190
 IR Inten    --      0.3533                 0.3726                16.1335

                     16                     17                     18
                      A                      A                      A
 Frequencies --    861.4817               878.6303               903.5115
 Red. masses --      3.8824                 1.7409                 2.2121
 Frc consts  --      1.6976                 0.7918                 1.0640
 IR Inten    --      5.6102                24.3221                 6.1018

                     19                     20                     21
                      A                      A                      A
 Frequencies --    938.8099               949.8786               975.1598
 Red. masses --      2.3582                 2.4976                 1.9679
 Frc consts  --      1.2246                 1.3277                 1.1025
 IR Inten    --      3.5654                10.1658                30.6142

                     22                     23                     24
                      A                      A                      A
 Frequencies --    998.5217              1037.8018              1042.9883
 Red. masses --      2.3947                 1.4056                 1.6603
 Frc consts  --      1.4068                 0.8919                 1.0641
 IR Inten    --     26.6005                 2.4991                 3.2081

                     25                     26                     27
                      A                      A                      A
 Frequencies --   1057.9076              1109.6742              1123.1916
 Red. masses --      1.8348                 1.9346                 1.2718
 Frc consts  --      1.2099                 1.4036                 0.9453
 IR Inten    --     27.2091                12.7514                 4.5908

                     28                     29                     30
                      A                      A                      A
 Frequencies --   1150.6795              1182.3450              1220.5590
 Red. masses --      1.8508                 2.2402                 1.2949
 Frc consts  --      1.4438                 1.8451                 1.1366
 IR Inten    --     20.8949                25.1579                 0.7066

                     31                     32                     33
                      A                      A                      A
 Frequencies --   1231.4121              1249.3489              1253.8225
 Red. masses --      1.4556                 1.4546                 1.6148
 Frc consts  --      1.3005                 1.3377                 1.4956
 IR Inten    --      1.3893                11.6602                11.8383

                     34                     35                     36
                      A                      A                      A
 Frequencies --   1288.6890              1331.9831              1384.1032
 Red. masses --      1.1945                 2.0261                 1.5972
 Frc consts  --      1.1687                 2.1180                 1.8028
 IR Inten    --     70.5474                17.3941                 5.2573

                     37                     38                     39
                      A                      A                      A
 Frequencies --   1396.9789              1419.3679              1437.7708
 Red. masses --      1.6167                 1.7220                 1.8958
 Frc consts  --      1.8589                 2.0440                 2.3090
 IR Inten    --      9.8894                 9.6467                46.4863

                     40                     41                     42
                      A                      A                      A
 Frequencies --   1484.2644              1498.5476              2939.7513
 Red. masses --      1.0655                 1.0613                 1.0822
 Frc consts  --      1.3831                 1.4042                 5.5101
 IR Inten    --      5.1405                 1.4741                53.8241

                     43                     44                     45
                      A                      A                      A
 Frequencies --   3044.4523              3119.4242              3124.2788
 Red. masses --      1.0344                 1.1019                 1.1022
 Frc consts  --      5.6488                 6.3177                 6.3388
 IR Inten    --     14.9596                21.6424                22.0693

                     46                     47                     48
                      A                      A                      A
 Frequencies --   3175.2730              3181.9607              3190.3003
 Red. masses --      1.0874                 1.0870                 1.0900
 Frc consts  --      6.4595                 6.4844                 6.5367
 IR Inten    --      8.5545                 1.8981                19.5075

                     49                     50                     51
                      A                      A                      A
 Frequencies --   3196.5167              3205.2571              3812.6301
 Red. masses --      1.0948                 1.1022                 1.0659
 Frc consts  --      6.5909                 6.6717                 9.1286
 IR Inten    --     17.4413                13.5380                 9.4919

 - Thermochemistry -
 -------------------
 Temperature   298.150 Kelvin.  Pressure   1.00000 Atm.
 Atom     1 has atomic number  6 and mass  12.00000

 Molecular mass:   126.06808 amu.
 Principal axes and moments of inertia in atomic units:
                           1         2         3
     Eigenvalues --   464.854531756.377621898.70521
           X            0.99974  -0.02103   0.00862
           Y            0.02121   0.99955  -0.02133
           Z           -0.00817   0.02151   0.99974
 This molecule is an asymmetric top.
 Rotational symmetry number  1.
 Warning -- assumption of classical behavior for rotation
           may cause significant error
 Rotational temperatures (Kelvin)      0.18632     0.04931     0.04562
 Rotational constants (GHZ):           3.88238     1.02754     0.95051
 Zero-point vibrational energy     413666.5 (Joules/Mol)
                                   98.86867 (Kcal/Mol)
 Warning -- explicit consideration of  11 degrees of freedom as
           vibrations may cause significant error
 Vibrational temperatures:    121.99   191.28   232.82   330.83   420.88
          (Kelvin)            475.79   558.95   605.79   667.73   705.75
                              873.33  1099.71  1112.19  1129.94  1202.55
                             1239.48  1264.15  1299.95  1350.74  1366.66
                             1403.04  1436.65  1493.16  1500.63  1522.09
                             1596.57  1616.02  1655.57  1701.13  1756.11
                             1771.73  1797.53  1803.97  1854.13  1916.42
                             1991.41  2009.94  2042.15  2068.63  2135.52
                             2156.07  4229.64  4380.28  4488.15  4495.13
                             4568.50  4578.13  4590.12  4599.07  4611.64
                             5485.52

 Zero-point correction=                           0.157557 (Hartree/Particle)
 Thermal correction to Energy=                    0.165994
 Thermal correction to Enthalpy=                  0.166938
 Thermal correction to Gibbs Free Energy=         0.124511
 Sum of electronic and zero-point Energies=           -422.939781
 Sum of electronic and thermal Energies=              -422.931344
 Sum of electronic and thermal Enthalpies=            -422.930400
 Sum of electronic and thermal Free Energies=         -422.972827

                     E (Thermal)             CV                S
                      KCal/Mol        Cal/Mol-Kelvin    Cal/Mol-Kelvin
 Total                  104.163             32.844             89.295
 Electronic               0.000              0.000              0.000
 Translational            0.889              2.981             40.409
 Rotational               0.889              2.981             28.829
 Vibrational            102.385             26.882             20.057
 Vibration     1          0.601              1.960              3.777
 Vibration     2          0.613              1.920              2.903
 Vibration     3          0.622              1.889              2.528
 Vibration     4          0.652              1.795              1.879
 Vibration     5          0.688              1.688              1.459
 Vibration     6          0.713              1.614              1.257
 Vibration     7          0.757              1.495              1.006
 Vibration     8          0.784              1.424              0.888
 Vibration     9          0.822              1.330              0.754
 Vibration    10          0.846              1.271              0.682
 Vibration    11          0.966              1.017              0.438

 Optimization completed.
    -- Stationary point found.
 Normal termination of Gaussian 09 at Mon Jan 27 17:24:20 2020.
