 Gaussian 09, Revision D.01,
 Gaussian 09:  ES64L-G09RevD.01 24-Apr-2013

 -----------------------------
 # b3lyp 6-31G(2df,p) opt Freq
 -----------------------------

 -----
 titel
 -----
 Symbolic Z-matrix:
 Charge =  0 Multiplicity = 1

 SCF Done:  E(RB3LYP) =  -423.151849405     A.U. after   13 cycles
 SCF Done:  E(RB3LYP) =  -423.151848688     A.U. after    7 cycles
 SCF Done:  E(RB3LYP) =  -423.151849456     A.U. after    7 cycles
 SCF Done:  E(RB3LYP) =  -423.151849094     A.U. after    7 cycles
 SCF Done:  E(RB3LYP) =  -423.151849560     A.U. after    7 cycles
 Optimization completed.
    -- Stationary point found.
 Normal termination of Gaussian 09 at Tue Jan 28 08:58:29 2020.

 ----------------------------------------------------------------------
 #N Geom=AllCheck Guess=TCheck SCRF=Check GenChk RB3LYP/6-31G(2df,p) Fr
 eq
 ----------------------------------------------------------------------

 Structure from the checkpoint file:  "/scratch/puck/g09_ab1a43d3-3952-46be-88b1-1c31058c84c4/Gau-79816.chk"
 -----
 titel
 -----
 Charge =  0 Multiplicity = 1

                         Standard orientation:
 ---------------------------------------------------------------------
 Center     Atomic      Atomic             Coordinates (Angstroms)
 Number     Number       Type             X           Y           Z
 ---------------------------------------------------------------------
      1          6           0       -0.695113    2.205597    0.190626
      2          6           0        0.005936    0.941600   -0.305681
      3          6           0        1.516185    0.989713   -0.034096
      4          8           0        2.155590   -0.218940   -0.414312
      5          6           0        1.580727   -1.312554    0.243480
      6          8           0        0.219547   -1.477179   -0.060872
      7          6           0       -0.545777   -0.344732    0.357037
      8          6           0       -1.947159   -0.592157    0.037772
      9          6           0       -3.106107   -0.764096   -0.226628
     10          1           0       -0.282973    3.094689   -0.297405
     11          1           0       -1.766572    2.168074   -0.021254
     12          1           0       -0.569641    2.331802    1.272548
     13          1           0       -0.141894    0.829833   -1.385556
     14          1           0        1.991030    1.790876   -0.606987
     15          1           0        1.692980    1.188032    1.038440
     16          1           0        2.092695   -2.210118   -0.107527
     17          1           0        1.706385   -1.200860    1.338749
     18          1           0       -0.445740   -0.234198    1.453277
     19          1           0       -4.129519   -0.929403   -0.457868
 ---------------------------------------------------------------------

 SCF Done:  E(RB3LYP) =  -423.151849560     A.U. after    1 cycles

 The electronic state is 1-A.
 Alpha  occ. eigenvalues --  -19.15018 -19.14785 -10.27523 -10.26156 -10.23483
 Alpha  occ. eigenvalues --  -10.19805 -10.18628 -10.18406 -10.18149  -1.07895
 Alpha  occ. eigenvalues --   -1.01169  -0.82479  -0.75730  -0.71446  -0.68595
 Alpha  occ. eigenvalues --   -0.64279  -0.58777  -0.54773  -0.51078  -0.50737
 Alpha  occ. eigenvalues --   -0.48775  -0.46321  -0.44035  -0.42720  -0.41714
 Alpha  occ. eigenvalues --   -0.39342  -0.38336  -0.35118  -0.32891  -0.32691
 Alpha  occ. eigenvalues --   -0.28397  -0.27994  -0.27196  -0.25749
 Alpha virt. eigenvalues --    0.03206   0.04690   0.09086   0.10501   0.11623
 Alpha virt. eigenvalues --    0.12571   0.13722   0.14970   0.15642   0.16287
 Alpha virt. eigenvalues --    0.16685   0.17920   0.18536   0.20963   0.21997

 Mulliken charges:
               1
     1  C   -0.416184
     2  C    0.001645
     3  C   -0.101823
     4  O   -0.232273
     5  C    0.016978
     6  O   -0.250340
     7  C   -0.076416
     8  C    0.310792
     9  C   -0.414249
    10  H    0.119786
    11  H    0.136988
    12  H    0.116654
    13  H    0.100022
    14  H    0.115029
    15  H    0.086524
    16  H    0.121870
    17  H    0.074367
    18  H    0.091779
    19  H    0.198853
 Sum of Mulliken charges =   0.00000

 Dipole moment (field-independent basis, Debye):
    X=             -0.4612    Y=              1.4556    Z=              1.0061  Tot=              1.8285
 Quadrupole moment (field-independent basis, Debye-Ang):
   XX=            -50.8257   YY=            -52.9363   ZZ=            -53.4258
   XY=             -0.1805   XZ=              2.7899   YZ=             -1.0817

  Exact polarizability:  97.520   2.140  74.853   4.598   0.193  59.703
 Approx polarizability: 139.636   5.220 100.770   8.390   2.237  94.890

                      1                      2                      3
                      A                      A                      A
 Frequencies --     98.4178               142.5919               184.2744
 Red. masses --      3.8735                 3.8778                 2.7809
 Frc consts  --      0.0221                 0.0465                 0.0556
 IR Inten    --      0.6410                 0.2935                 1.1758

                      4                      5                      6
                      A                      A                      A
 Frequencies --    213.4152               275.2157               294.7851
 Red. masses --      1.0569                 3.5519                 2.8175
 Frc consts  --      0.0284                 0.1585                 0.1443
 IR Inten    --      0.2482                 2.0426                 0.4990

                      7                      8                      9
                      A                      A                      A
 Frequencies --    383.4576               407.5267               423.9597
 Red. masses --      2.4771                 2.7409                 3.8440
 Frc consts  --      0.2146                 0.2682                 0.4071
 IR Inten    --      5.6418                 3.7207                 1.4553

                     10                     11                     12
                      A                      A                      A
 Frequencies --    461.7514               533.8354               555.4145
 Red. masses --      5.1182                 4.9342                 6.0577
 Frc consts  --      0.6430                 0.8285                 1.1010
 IR Inten    --      1.4280                 6.6362                 1.3064

                     13                     14                     15
                      A                      A                      A
 Frequencies --    624.4478               674.0214               684.5561
 Red. masses --      1.2198                 1.2568                 5.1594
 Frc consts  --      0.2802                 0.3364                 1.4245
 IR Inten    --     41.8976                34.4439                 8.0274

                     16                     17                     18
                      A                      A                      A
 Frequencies --    840.6109               902.0556               946.7655
 Red. masses --      2.2055                 1.7003                 1.5876
 Frc consts  --      0.9182                 0.8152                 0.8385
 IR Inten    --      9.7571                 3.0280                 6.8271

                     19                     20                     21
                      A                      A                      A
 Frequencies --    962.3222              1001.3308              1035.3683
 Red. masses --      4.2127                 3.1179                 3.0946
 Frc consts  --      2.2986                 1.8419                 1.9545
 IR Inten    --     32.7117                22.8449                 8.9751

                     22                     23                     24
                      A                      A                      A
 Frequencies --   1060.9541              1091.4661              1134.6272
 Red. masses --      6.2063                 3.3934                 2.3578
 Frc consts  --      4.1160                 2.3818                 1.7884
 IR Inten    --    148.9927                52.5177                13.5411

                     25                     26                     27
                      A                      A                      A
 Frequencies --   1155.3283              1170.4222              1200.0461
 Red. masses --      2.5683                 1.9527                 2.3940
 Frc consts  --      2.0198                 1.5760                 2.0313
 IR Inten    --     66.1839                 2.5205               120.1760

                     28                     29                     30
                      A                      A                      A
 Frequencies --   1253.4171              1308.5538              1319.0022
 Red. masses --      1.2326                 1.2747                 1.3027
 Frc consts  --      1.1410                 1.2860                 1.3353
 IR Inten    --      4.6627                 9.9309                 2.8592

                     31                     32                     33
                      A                      A                      A
 Frequencies --   1332.8624              1363.3125              1380.1886
 Red. masses --      1.1991                 1.1920                 1.4799
 Frc consts  --      1.2551                 1.3053                 1.6610
 IR Inten    --      3.7027                11.7344                 7.4349

                     34                     35                     36
                      A                      A                      A
 Frequencies --   1401.1969              1413.1416              1443.8060
 Red. masses --      1.3791                 1.2209                 1.2203
 Frc consts  --      1.5953                 1.4365                 1.4988
 IR Inten    --     13.6064                 9.3608                16.5967

                     37                     38                     39
                      A                      A                      A
 Frequencies --   1491.2899              1498.1978              1501.4524
 Red. masses --      1.0778                 1.0571                 1.0488
 Frc consts  --      1.4123                 1.3980                 1.3931
 IR Inten    --      0.6310                 4.9391                 5.9634

                     40                     41                     42
                      A                      A                      A
 Frequencies --   1507.8990              2244.3383              2908.8375
 Red. masses --      1.1115                 5.9061                 1.0707
 Frc consts  --      1.4891                17.5277                 5.3376
 IR Inten    --      5.8199                 1.8539                63.5076

                     43                     44                     45
                      A                      A                      A
 Frequencies --   2926.3420              2950.6546              3031.6728
 Red. masses --      1.0787                 1.0707                 1.0389
 Frc consts  --      5.4427                 5.4923                 5.6257
 IR Inten    --     28.4833                66.6315                20.0611

                     46                     47                     48
                      A                      A                      A
 Frequencies --   3054.3394              3089.0278              3097.8015
 Red. masses --      1.0827                 1.0931                 1.0985
 Frc consts  --      5.9508                 6.1454                 6.2107
 IR Inten    --     16.0011                11.9985                46.1320

                     49                     50                     51
                      A                      A                      A
 Frequencies --   3119.8546              3121.4726              3503.0729
 Red. masses --      1.0930                 1.1000                 1.1635
 Frc consts  --      6.2683                 6.3146                 8.4121
 IR Inten    --     32.3145                15.0123                64.9212

 - Thermochemistry -
 -------------------
 Temperature   298.150 Kelvin.  Pressure   1.00000 Atm.
 Atom     1 has atomic number  6 and mass  12.00000

 Molecular mass:   126.06808 amu.
 Principal axes and moments of inertia in atomic units:
                           1         2         3
     Eigenvalues --   708.100261267.913341858.54055
           X            0.99973  -0.02088   0.01062
           Y            0.02089   0.99978  -0.00121
           Z           -0.01059   0.00143   0.99994
 This molecule is an asymmetric top.
 Rotational symmetry number  1.
 Warning -- assumption of classical behavior for rotation
           may cause significant error
 Rotational temperatures (Kelvin)      0.12232     0.06831     0.04660
 Rotational constants (GHZ):           2.54871     1.42339     0.97105
 Zero-point vibrational energy     417022.4 (Joules/Mol)
                                   99.67075 (Kcal/Mol)
 Warning -- explicit consideration of  12 degrees of freedom as
           vibrations may cause significant error
 Vibrational temperatures:    141.60   205.16   265.13   307.06   395.97
          (Kelvin)            424.13   551.71   586.34   609.98   664.36
                              768.07   799.12   898.44   969.77   984.92
                             1209.45  1297.86  1362.18  1384.57  1440.69
                             1489.66  1526.47  1570.37  1632.47  1662.26
                             1683.97  1726.60  1803.39  1882.71  1897.75
                             1917.69  1961.50  1985.78  2016.01  2033.19
                             2077.31  2145.63  2155.57  2160.25  2169.53
                             3229.10  4185.16  4210.35  4245.33  4361.90
                             4394.51  4444.42  4457.04  4488.77  4491.10
                             5040.13

 Zero-point correction=                           0.158835 (Hartree/Particle)
 Thermal correction to Energy=                    0.167523
 Thermal correction to Enthalpy=                  0.168467
 Thermal correction to Gibbs Free Energy=         0.125729
 Sum of electronic and zero-point Energies=           -422.993014
 Sum of electronic and thermal Energies=              -422.984327
 Sum of electronic and thermal Enthalpies=            -422.983383
 Sum of electronic and thermal Free Energies=         -423.026120

                     E (Thermal)             CV                S
                      KCal/Mol        Cal/Mol-Kelvin    Cal/Mol-Kelvin
 Total                  105.122             33.245             89.949
 Electronic               0.000              0.000              0.000
 Translational            0.889              2.981             40.409
 Rotational               0.889              2.981             28.902
 Vibrational            103.345             27.284             20.638
 Vibration     1          0.604              1.950              3.485
 Vibration     2          0.616              1.911              2.769
 Vibration     3          0.631              1.861              2.285
 Vibration     4          0.644              1.821              2.014
 Vibration     5          0.677              1.719              1.563
 Vibration     6          0.689              1.683              1.446
 Vibration     7          0.753              1.505              1.025
 Vibration     8          0.772              1.454              0.935
 Vibration     9          0.786              1.418              0.879
 Vibration    10          0.819              1.335              0.761
 Vibration    11          0.889              1.175              0.579
 Vibration    12          0.911              1.128              0.533

 Optimization completed.
    -- Stationary point found.
 Normal termination of Gaussian 09 at Tue Jan 28 09:55:52 2020.
