 Gaussian 09, Revision D.01,
 Gaussian 09:  ES64L-G09RevD.01 24-Apr-2013

 -----------------------------
 # b3lyp 6-31G(2df,p) opt Freq
 -----------------------------

 -----
 titel
 -----
 Symbolic Z-matrix:
 Charge =  0 Multiplicity = 1

 SCF Done:  E(RB3LYP) =  -423.236200845     A.U. after   14 cycles
 Optimization completed.
    -- Stationary point found.
 Normal termination of Gaussian 09 at Mon Jan 27 16:56:16 2020.

 ----------------------------------------------------------------------
 #N Geom=AllCheck Guess=TCheck SCRF=Check GenChk RB3LYP/6-31G(2df,p) Fr
 eq
 ----------------------------------------------------------------------

 Structure from the checkpoint file:  "/scratch/puck/g09_8a5534f0-af60-4b95-9e01-10119aec111f/Gau-48670.chk"
 -----
 titel
 -----
 Charge =  0 Multiplicity = 1

                         Standard orientation:
 ---------------------------------------------------------------------
 Center     Atomic      Atomic             Coordinates (Angstroms)
 Number     Number       Type             X           Y           Z
 ---------------------------------------------------------------------
      1          6           0       -1.139437    1.243437    1.280956
      2          6           0       -0.466352    0.201478    0.372422
      3          6           0        0.082091   -1.057724    1.059292
      4          6           0        1.287753   -1.491205    0.195133
      5          6           0        1.927520   -0.170241   -0.258137
      6          6           0        0.769884    0.821614   -0.335075
      7          8           0        0.778592    1.908428   -0.852812
      8          6           0       -1.448291   -0.147722   -0.749916
      9          8           0       -1.789017   -1.262660   -1.046352
     10          1           0       -0.459265    1.541280    2.084224
     11          1           0       -1.395381    2.139289    0.708822
     12          1           0       -2.049723    0.841470    1.736311
     13          1           0        0.411276   -0.806109    2.073862
     14          1           0       -0.675240   -1.840824    1.130869
     15          1           0        1.981888   -2.134895    0.739696
     16          1           0        0.928293   -2.052840   -0.672371
     17          1           0        2.626641    0.213412    0.497566
     18          1           0        2.472696   -0.207785   -1.204369
     19          1           0       -1.836787    0.743037   -1.289354
 ---------------------------------------------------------------------

 SCF Done:  E(RB3LYP) =  -423.236200845     A.U. after    1 cycles

 The electronic state is 1-A.
 Alpha  occ. eigenvalues --  -19.15223 -19.14327 -10.28000 -10.27823 -10.21182
 Alpha  occ. eigenvalues --  -10.19889 -10.19501 -10.19389 -10.19162  -1.06008
 Alpha  occ. eigenvalues --   -1.05295  -0.85401  -0.77851  -0.70409  -0.67248
 Alpha  occ. eigenvalues --   -0.62671  -0.57528  -0.52619  -0.49787  -0.47556
 Alpha  occ. eigenvalues --   -0.45977  -0.44813  -0.44262  -0.42323  -0.40927
 Alpha  occ. eigenvalues --   -0.40162  -0.38606  -0.37902  -0.36179  -0.35443
 Alpha  occ. eigenvalues --   -0.34623  -0.33828  -0.26677  -0.24543
 Alpha virt. eigenvalues --   -0.05024  -0.00175   0.08296   0.10457   0.11970
 Alpha virt. eigenvalues --    0.13056   0.13744   0.15098   0.16093   0.16859
 Alpha virt. eigenvalues --    0.17403   0.17903   0.19358   0.20427   0.21202

 Mulliken charges:
               1
     1  C   -0.451279
     2  C    0.076723
     3  C   -0.255387
     4  C   -0.229063
     5  C   -0.315220
     6  C    0.379831
     7  O   -0.324289
     8  C    0.142894
     9  O   -0.249289
    10  H    0.127750
    11  H    0.144476
    12  H    0.127427
    13  H    0.097240
    14  H    0.123027
    15  H    0.105955
    16  H    0.128362
    17  H    0.134292
    18  H    0.133631
    19  H    0.102918
 Sum of Mulliken charges =   0.00000

 Dipole moment (field-independent basis, Debye):
    X=              0.9802    Y=             -0.3869    Z=              2.0292  Tot=              2.2865
 Quadrupole moment (field-independent basis, Debye-Ang):
   XX=            -52.6284   YY=            -60.1219   ZZ=            -53.2718
   XY=             -6.0457   XZ=             -0.9439   YZ=              0.8490

  Exact polarizability:  79.145  -1.283  79.623   0.660  -1.101  68.274
 Approx polarizability: 110.299   6.842 127.935   3.788  -2.439 102.913

                      1                      2                      3
                      A                      A                      A
 Frequencies --     65.8748                96.0491               176.6403
 Red. masses --      3.9086                 5.5582                 2.0450
 Frc consts  --      0.0100                 0.0302                 0.0376
 IR Inten    --      2.8185                 7.1116                 1.0502

                      4                      5                      6
                      A                      A                      A
 Frequencies --    184.7103               204.3953               273.6007
 Red. masses --      1.0947                 2.7705                 3.1047
 Frc consts  --      0.0220                 0.0682                 0.1369
 IR Inten    --      0.5973                 0.6420                 7.5450

                      7                      8                      9
                      A                      A                      A
 Frequencies --    291.1311               340.5250               466.8725
 Red. masses --      2.5671                 2.2703                 3.7439
 Frc consts  --      0.1282                 0.1551                 0.4808
 IR Inten    --      4.3354                 0.7598                 2.4190

                     10                     11                     12
                      A                      A                      A
 Frequencies --    517.2446               542.0129               600.4215
 Red. masses --      2.1515                 3.9601                 4.0425
 Frc consts  --      0.3391                 0.6854                 0.8586
 IR Inten    --      1.1921                 6.7832                 4.2601

                     13                     14                     15
                      A                      A                      A
 Frequencies --    633.9335               729.0215               791.6912
 Red. masses --      3.1033                 3.0672                 2.2999
 Frc consts  --      0.7348                 0.9604                 0.8493
 IR Inten    --      2.5412                 4.7640                48.6575

                     16                     17                     18
                      A                      A                      A
 Frequencies --    838.8047               898.6171               918.3920
 Red. masses --      2.1605                 1.9370                 1.9580
 Frc consts  --      0.8956                 0.9216                 0.9730
 IR Inten    --      3.0787                 1.9185                15.3130

                     19                     20                     21
                      A                      A                      A
 Frequencies --    939.3983               986.7941              1021.6365
 Red. masses --      2.0981                 1.6020                 1.9042
 Frc consts  --      1.0909                 0.9191                 1.1710
 IR Inten    --     17.2674                 3.3216                 3.3287

                     22                     23                     24
                      A                      A                      A
 Frequencies --   1044.5730              1070.1083              1087.7104
 Red. masses --      1.7975                 1.8078                 1.9450
 Frc consts  --      1.1556                 1.2197                 1.3558
 IR Inten    --     21.1722                 2.8195                31.5110

                     25                     26                     27
                      A                      A                      A
 Frequencies --   1158.5391              1200.2440              1210.9737
 Red. masses --      2.5838                 2.4211                 1.6800
 Frc consts  --      2.0433                 2.0549                 1.4516
 IR Inten    --     56.8238                 1.0978                 8.5914

                     28                     29                     30
                      A                      A                      A
 Frequencies --   1244.2488              1263.9219              1301.5482
 Red. masses --      2.6175                 1.3444                 1.4247
 Frc consts  --      2.3875                 1.2654                 1.4220
 IR Inten    --      4.0773                 5.6381                 3.2191

                     31                     32                     33
                      A                      A                      A
 Frequencies --   1339.4385              1343.0508              1396.5983
 Red. masses --      1.3482                 1.4504                 1.1946
 Frc consts  --      1.4251                 1.5415                 1.3728
 IR Inten    --      2.4342                 9.2112                 4.7423

                     34                     35                     36
                      A                      A                      A
 Frequencies --   1418.4890              1448.6363              1479.0776
 Red. masses --      1.2028                 1.0827                 1.0878
 Frc consts  --      1.4259                 1.3387                 1.4021
 IR Inten    --      1.0595                 6.7070                 4.9192

                     37                     38                     39
                      A                      A                      A
 Frequencies --   1491.9008              1496.0398              1505.0717
 Red. masses --      1.0554                 1.0498                 1.0977
 Frc consts  --      1.3840                 1.3844                 1.4650
 IR Inten    --     10.7380                 5.1394                 4.5817

                     40                     41                     42
                      A                      A                      A
 Frequencies --   1808.1011              1842.5974              2903.8838
 Red. masses --     11.4029                11.6652                 1.0845
 Frc consts  --     21.9640                23.3348                 5.3880
 IR Inten    --    279.4617                67.9348                78.5759

                     43                     44                     45
                      A                      A                      A
 Frequencies --   3028.9519              3038.9159              3045.0760
 Red. masses --      1.0685                 1.0375                 1.0636
 Frc consts  --      5.7757                 5.6449                 5.8109
 IR Inten    --      7.9978                11.2670                29.6658

                     46                     47                     48
                      A                      A                      A
 Frequencies --   3063.2735              3103.3392              3110.4721
 Red. masses --      1.0611                 1.0935                 1.0987
 Frc consts  --      5.8664                 6.2050                 6.2630
 IR Inten    --     21.2617                 9.7751                13.9020

                     49                     50                     51
                      A                      A                      A
 Frequencies --   3111.6407              3118.1229              3123.3592
 Red. masses --      1.1020                 1.1030                 1.1018
 Frc consts  --      6.2866                 6.3182                 6.3329
 IR Inten    --     13.4715                17.3033                11.5517

 - Thermochemistry -
 -------------------
 Temperature   298.150 Kelvin.  Pressure   1.00000 Atm.
 Atom     1 has atomic number  6 and mass  12.00000

 Molecular mass:   126.06808 amu.
 Principal axes and moments of inertia in atomic units:
                           1         2         3
     Eigenvalues --   927.781641068.336651347.44078
           X            0.94830  -0.31539  -0.03554
           Y            0.31631   0.94835   0.02403
           Z            0.02612  -0.03402   0.99908
 This molecule is an asymmetric top.
 Rotational symmetry number  1.
 Warning -- assumption of classical behavior for rotation
           may cause significant error
 Rotational temperatures (Kelvin)      0.09336     0.08107     0.06428
 Rotational constants (GHZ):           1.94522     1.68930     1.33938
 Zero-point vibrational energy     414599.8 (Joules/Mol)
                                   99.09173 (Kcal/Mol)
 Warning -- explicit consideration of  12 degrees of freedom as
           vibrations may cause significant error
 Vibrational temperatures:     94.78   138.19   254.15   265.76   294.08
          (Kelvin)            393.65   418.87   489.94   671.72   744.20
                              779.83   863.87   912.09  1048.90  1139.07
                             1206.85  1292.91  1321.36  1351.58  1419.77
                             1469.91  1502.91  1539.65  1564.97  1666.88
                             1726.88  1742.32  1790.19  1818.50  1872.64
                             1927.15  1932.35  2009.39  2040.89  2084.26
                             2128.06  2146.51  2152.46  2165.46  2601.45
                             2651.08  4178.04  4357.98  4372.32  4381.18
                             4407.36  4465.01  4475.27  4476.95  4486.28
                             4493.81

 Zero-point correction=                           0.157913 (Hartree/Particle)
 Thermal correction to Energy=                    0.166955
 Thermal correction to Enthalpy=                  0.167899
 Thermal correction to Gibbs Free Energy=         0.123960
 Sum of electronic and zero-point Energies=           -423.078288
 Sum of electronic and thermal Energies=              -423.069246
 Sum of electronic and thermal Enthalpies=            -423.068302
 Sum of electronic and thermal Free Energies=         -423.112241

                     E (Thermal)             CV                S
                      KCal/Mol        Cal/Mol-Kelvin    Cal/Mol-Kelvin
 Total                  104.766             33.306             92.477
 Electronic               0.000              0.000              0.000
 Translational            0.889              2.981             40.409
 Rotational               0.889              2.981             28.681
 Vibrational            102.988             27.344             23.388
 Vibration     1          0.597              1.971              4.273
 Vibration     2          0.603              1.952              3.533
 Vibration     3          0.628              1.871              2.364
 Vibration     4          0.631              1.861              2.280
 Vibration     5          0.640              1.834              2.093
 Vibration     6          0.676              1.722              1.573
 Vibration     7          0.687              1.690              1.467
 Vibration     8          0.720              1.595              1.210
 Vibration     9          0.824              1.324              0.746
 Vibration    10          0.872              1.212              0.616
 Vibration    11          0.897              1.157              0.561
 Vibration    12          0.959              1.031              0.449

 Optimization completed.
    -- Stationary point found.
 Normal termination of Gaussian 09 at Mon Jan 27 17:39:27 2020.
