 Gaussian 09, Revision D.01,
 Gaussian 09:  ES64L-G09RevD.01 24-Apr-2013

 -----------------------------
 # b3lyp 6-31G(2df,p) opt Freq
 -----------------------------

 -----
 titel
 -----
 Symbolic Z-matrix:
 Charge =  0 Multiplicity = 1

 SCF Done:  E(RB3LYP) =  -423.177662682     A.U. after   14 cycles
 SCF Done:  E(RB3LYP) =  -423.177662694     A.U. after    6 cycles
 Optimization completed.
    -- Stationary point found.
 Normal termination of Gaussian 09 at Tue Jan 28 02:41:40 2020.

 ----------------------------------------------------------------------
 #N Geom=AllCheck Guess=TCheck SCRF=Check GenChk RB3LYP/6-31G(2df,p) Fr
 eq
 ----------------------------------------------------------------------

 Structure from the checkpoint file:  "/scratch/puck/g09_28514886-609a-45d5-a7e7-fbfbba47004e/Gau-172336.chk"
 -----
 titel
 -----
 Charge =  0 Multiplicity = 1

                         Standard orientation:
 ---------------------------------------------------------------------
 Center     Atomic      Atomic             Coordinates (Angstroms)
 Number     Number       Type             X           Y           Z
 ---------------------------------------------------------------------
      1          8           0       -3.334660   -0.003593   -0.122173
      2          6           0       -1.996819   -0.406947   -0.005153
      3          6           0       -0.951509    0.019220   -1.070780
      4          6           0        0.092119    0.123335    0.073375
      5          6           0       -1.079896    0.214391    1.082539
      6          6           0        1.259953    1.147824    0.021499
      7          6           0        2.243104   -0.033225   -0.008243
      8          8           0        3.423008   -0.128017   -0.178917
      9          6           0        1.113006   -1.052133    0.211981
     10          1           0       -3.352020    0.955390   -0.210803
     11          1           0       -2.027240   -1.496204    0.091945
     12          1           0       -0.747644   -0.658158   -1.904284
     13          1           0       -1.194856    1.010184   -1.472676
     14          1           0       -0.982087   -0.300864    2.041863
     15          1           0       -1.358517    1.258667    1.269669
     16          1           0        1.300328    1.813840   -0.846229
     17          1           0        1.365754    1.755445    0.927548
     18          1           0        1.058745   -1.855656   -0.528935
     19          1           0        1.150999   -1.504544    1.209320
 ---------------------------------------------------------------------

 SCF Done:  E(RB3LYP) =  -423.177662694     A.U. after    1 cycles

 The electronic state is 1-A.
 Alpha  occ. eigenvalues --  -19.14277 -19.13731 -10.27158 -10.23910 -10.21107
 Alpha  occ. eigenvalues --  -10.19376 -10.19302 -10.18890 -10.18865  -1.04623
 Alpha  occ. eigenvalues --   -1.02667  -0.87308  -0.79820  -0.68741  -0.67428
 Alpha  occ. eigenvalues --   -0.62982  -0.54864  -0.53098  -0.50739  -0.48628
 Alpha  occ. eigenvalues --   -0.47770  -0.45219  -0.42924  -0.41835  -0.39724
 Alpha  occ. eigenvalues --   -0.39116  -0.38734  -0.37758  -0.36209  -0.32164
 Alpha  occ. eigenvalues --   -0.31600  -0.29631  -0.26577  -0.24308
 Alpha virt. eigenvalues --   -0.02228   0.06738   0.08004   0.08596   0.10320
 Alpha virt. eigenvalues --    0.13459   0.13986   0.14366   0.15513   0.15875
 Alpha virt. eigenvalues --    0.17121   0.17856   0.19578   0.21568   0.23494

 Mulliken charges:
               1
     1  O   -0.432038
     2  C    0.182803
     3  C   -0.335570
     4  C    0.355462
     5  C   -0.342720
     6  C   -0.430563
     7  C    0.411206
     8  O   -0.287466
     9  C   -0.411363
    10  H    0.276728
    11  H    0.098552
    12  H    0.105684
    13  H    0.093041
    14  H    0.103334
    15  H    0.093533
    16  H    0.128223
    17  H    0.130463
    18  H    0.130155
    19  H    0.130536
 Sum of Mulliken charges =   0.00000

 Dipole moment (field-independent basis, Debye):
    X=             -1.7346    Y=              1.1808    Z=              0.3644  Tot=              2.1297
 Quadrupole moment (field-independent basis, Debye-Ang):
   XX=            -73.4607   YY=            -48.9294   ZZ=            -51.6693
   XY=             -3.3526   XZ=              1.4546   YZ=             -0.4650

  Exact polarizability:  90.105  -1.691  72.252  -0.731  -0.607  65.387
 Approx polarizability: 121.793  -2.991 109.534  -2.236  -0.969  98.262

                      1                      2                      3
                      A                      A                      A
 Frequencies --     23.3376                79.6404               255.8715
 Red. masses --      4.7664                 4.4794                 1.8907
 Frc consts  --      0.0015                 0.0167                 0.0729
 IR Inten    --      5.4594                 3.1959                 4.0506

                      4                      5                      6
                      A                      A                      A
 Frequencies --    261.9725               307.8436               327.1970
 Red. masses --      1.7452                 3.3394                 1.6155
 Frc consts  --      0.0706                 0.1865                 0.1019
 IR Inten    --     27.2435                 3.4234                48.7654

                      7                      8                      9
                      A                      A                      A
 Frequencies --    385.7178               410.5178               441.6740
 Red. masses --      3.7665                 2.5596                 2.2770
 Frc consts  --      0.3302                 0.2541                 0.2617
 IR Inten    --      1.2459                 6.8795                10.3399

                     10                     11                     12
                      A                      A                      A
 Frequencies --    473.3358               501.8314               656.7368
 Red. masses --      1.9229                 2.9404                 1.3970
 Frc consts  --      0.2538                 0.4363                 0.3550
 IR Inten    --      3.7657                 1.3592                 0.0313

                     13                     14                     15
                      A                      A                      A
 Frequencies --    672.9127               731.3248               831.7145
 Red. masses --      3.9200                 2.8307                 1.4037
 Frc consts  --      1.0458                 0.8920                 0.5721
 IR Inten    --      2.3091                 0.9706                 2.1513

                     16                     17                     18
                      A                      A                      A
 Frequencies --    843.2095               859.7849               903.9731
 Red. masses --      2.1411                 2.3762                 3.9231
 Frc consts  --      0.8969                 1.0349                 1.8888
 IR Inten    --      1.0975                 3.5113                 6.3509

                     19                     20                     21
                      A                      A                      A
 Frequencies --    943.8501               975.8536              1026.8597
 Red. masses --      3.6224                 1.4786                 1.8353
 Frc consts  --      1.9013                 0.8296                 1.1402
 IR Inten    --      2.1234                 4.1887                 3.3888

                     22                     23                     24
                      A                      A                      A
 Frequencies --   1058.4067              1069.3937              1094.0791
 Red. masses --      2.7906                 1.1437                 3.0691
 Frc consts  --      1.8419                 0.7706                 2.1645
 IR Inten    --     26.5939                 0.2006                80.9099

                     25                     26                     27
                      A                      A                      A
 Frequencies --   1098.0726              1118.2466              1180.4822
 Red. masses --      1.6249                 2.3404                 2.2278
 Frc consts  --      1.1544                 1.7243                 1.8291
 IR Inten    --     97.5796                 6.0884                50.3003

                     28                     29                     30
                      A                      A                      A
 Frequencies --   1189.6750              1210.7880              1236.4966
 Red. masses --      1.4940                 1.4128                 1.5636
 Frc consts  --      1.2458                 1.2203                 1.4085
 IR Inten    --      0.0525                 0.9756                 2.7513

                     31                     32                     33
                      A                      A                      A
 Frequencies --   1237.2359              1254.2678              1281.0129
 Red. masses --      2.0176                 1.6166                 1.3792
 Frc consts  --      1.8197                 1.4984                 1.3335
 IR Inten    --     12.0671                10.7732                 1.8219

                     34                     35                     36
                      A                      A                      A
 Frequencies --   1298.0154              1338.3334              1422.7288
 Red. masses --      2.7107                 1.5388                 1.0865
 Frc consts  --      2.6908                 1.6239                 1.2958
 IR Inten    --      9.3176                 2.2263                17.3122

                     37                     38                     39
                      A                      A                      A
 Frequencies --   1435.6796              1441.7336              1468.0271
 Red. masses --      1.1860                 1.1595                 1.0928
 Frc consts  --      1.4403                 1.4200                 1.3876
 IR Inten    --     43.6324                27.4583                 2.4768

                     40                     41                     42
                      A                      A                      A
 Frequencies --   1494.5090              1895.5765              3030.1884
 Red. masses --      1.1371                12.7581                 1.0602
 Frc consts  --      1.4965                27.0096                 5.7355
 IR Inten    --      3.8320               298.1173                33.3812

                     43                     44                     45
                      A                      A                      A
 Frequencies --   3036.5985              3040.9874              3046.9272
 Red. masses --      1.0632                 1.0585                 1.0608
 Frc consts  --      5.7763                 5.7671                 5.8022
 IR Inten    --     20.5854                11.4376                 3.8655

                     46                     47                     48
                      A                      A                      A
 Frequencies --   3069.3595              3096.1196              3096.3060
 Red. masses --      1.0858                 1.1037                 1.1053
 Frc consts  --      6.0269                 6.2338                 6.2436
 IR Inten    --      9.9197                25.7520                 0.5929

                     49                     50                     51
                      A                      A                      A
 Frequencies --   3099.6146              3102.7589              3804.3841
 Red. masses --      1.1041                 1.1030                 1.0658
 Frc consts  --      6.2497                 6.2566                 9.0885
 IR Inten    --     12.8095                41.8385                14.1169

 - Thermochemistry -
 -------------------
 Temperature   298.150 Kelvin.  Pressure   1.00000 Atm.
 Atom     1 has atomic number  8 and mass  15.99491

 Molecular mass:   126.06808 amu.
 Principal axes and moments of inertia in atomic units:
                           1         2         3
     Eigenvalues --   338.644402152.556762175.33118
           X            1.00000  -0.00240   0.00196
           Y            0.00250   0.99866  -0.05171
           Z           -0.00183   0.05172   0.99866
 This molecule is an asymmetric top.
 Rotational symmetry number  1.
 Rotational temperatures (Kelvin)      0.25577     0.04024     0.03982
 Rotational constants (GHZ):           5.32931     0.83842     0.82964
 Zero-point vibrational energy     413675.6 (Joules/Mol)
                                   98.87085 (Kcal/Mol)
 Warning -- explicit consideration of  11 degrees of freedom as
           vibrations may cause significant error
 Vibrational temperatures:     33.58   114.58   368.14   376.92   442.92
          (Kelvin)            470.76   554.96   590.64   635.47   681.02
                              722.02   944.90   968.17  1052.21  1196.65
                             1213.19  1237.04  1300.61  1357.99  1404.03
                             1477.42  1522.81  1538.62  1574.13  1579.88
                             1608.91  1698.45  1711.67  1742.05  1779.04
                             1780.10  1804.61  1843.09  1867.55  1925.56
                             2046.99  2065.62  2074.33  2112.16  2150.26
                             2727.31  4359.76  4368.98  4375.30  4383.84
                             4416.12  4454.62  4454.89  4459.65  4464.17
                             5473.65

 Zero-point correction=                           0.157561 (Hartree/Particle)
 Thermal correction to Energy=                    0.166184
 Thermal correction to Enthalpy=                  0.167128
 Thermal correction to Gibbs Free Energy=         0.123288
 Sum of electronic and zero-point Energies=           -423.020102
 Sum of electronic and thermal Energies=              -423.011479
 Sum of electronic and thermal Enthalpies=            -423.010535
 Sum of electronic and thermal Free Energies=         -423.054375

                     E (Thermal)             CV                S
                      KCal/Mol        Cal/Mol-Kelvin    Cal/Mol-Kelvin
 Total                  104.282             33.083             92.270
 Electronic               0.000              0.000              0.000
 Translational            0.889              2.981             40.409
 Rotational               0.889              2.981             28.852
 Vibrational            102.504             27.122             23.010
 Vibration     1          0.593              1.985              6.328
 Vibration     2          0.600              1.963              3.900
 Vibration     3          0.666              1.753              1.690
 Vibration     4          0.669              1.742              1.649
 Vibration     5          0.698              1.659              1.374
 Vibration     6          0.711              1.621              1.274
 Vibration     7          0.754              1.501              1.017
 Vibration     8          0.775              1.447              0.925
 Vibration     9          0.801              1.379              0.821
 Vibration    10          0.830              1.309              0.728
 Vibration    11          0.857              1.246              0.654

 Normal termination of Gaussian 09 at Tue Jan 28 03:15:54 2020.
