 Gaussian 09, Revision D.01,
 Gaussian 09:  ES64L-G09RevD.01 24-Apr-2013

 -----------------------------
 # b3lyp 6-31G(2df,p) opt Freq
 -----------------------------

 -----
 titel
 -----
 Symbolic Z-matrix:
 Charge =  0 Multiplicity = 1

 SCF Done:  E(RB3LYP) =  -423.122009600     A.U. after   14 cycles
 Optimization completed.
    -- Stationary point found.
 Normal termination of Gaussian 09 at Tue Jan 28 14:24:24 2020.

 ----------------------------------------------------------------------
 #N Geom=AllCheck Guess=TCheck SCRF=Check GenChk RB3LYP/6-31G(2df,p) Fr
 eq
 ----------------------------------------------------------------------

 Structure from the checkpoint file:  "/scratch/puck/g09_a11c8ebb-986e-41f5-b813-c04128ac1ef8/Gau-163927.chk"
 -----
 titel
 -----
 Charge =  0 Multiplicity = 1

                         Standard orientation:
 ---------------------------------------------------------------------
 Center     Atomic      Atomic             Coordinates (Angstroms)
 Number     Number       Type             X           Y           Z
 ---------------------------------------------------------------------
      1          8           0        3.801567    0.809128   -0.188905
      2          6           0        2.763721    0.005603    0.349360
      3          6           0        1.441083    0.531404   -0.200552
      4          6           0        0.257938   -0.226008    0.344270
      5          8           0        0.052519   -1.556655   -0.168880
      6          6           0       -0.918748   -0.555616   -0.465882
      7          6           0       -2.292459   -0.766306    0.151557
      8          6           0       -3.113509    0.437217    0.091682
      9          6           0       -3.767111    1.443248    0.024674
     10          1           0        4.643564    0.448695    0.103602
     11          1           0        2.879246   -1.050960    0.065259
     12          1           0        2.752941    0.051418    1.451267
     13          1           0        1.345251    1.592552    0.059880
     14          1           0        1.457565    0.462202   -1.292971
     15          1           0        0.110706   -0.155251    1.424437
     16          1           0       -0.931083   -0.228915   -1.506324
     17          1           0       -2.795225   -1.587421   -0.375978
     18          1           0       -2.167511   -1.096172    1.189550
     19          1           0       -4.353638    2.326807   -0.027101
 ---------------------------------------------------------------------

 SCF Done:  E(RB3LYP) =  -423.122009600     A.U. after    1 cycles

 The electronic state is 1-A.
 Alpha  occ. eigenvalues --  -19.15202 -19.13464 -10.24409 -10.24013 -10.22888
 Alpha  occ. eigenvalues --  -10.21565 -10.18641 -10.18606 -10.17503  -1.07285
 Alpha  occ. eigenvalues --   -1.01581  -0.79766  -0.77493  -0.71766  -0.66314
 Alpha  occ. eigenvalues --   -0.61267  -0.59024  -0.53509  -0.51913  -0.49436
 Alpha  occ. eigenvalues --   -0.47835  -0.45948  -0.45360  -0.42104  -0.40988
 Alpha  occ. eigenvalues --   -0.39421  -0.36991  -0.35638  -0.33707  -0.29633
 Alpha  occ. eigenvalues --   -0.28075  -0.26846  -0.26779  -0.26236
 Alpha virt. eigenvalues --    0.04662   0.05397   0.07644   0.10086   0.10769
 Alpha virt. eigenvalues --    0.11420   0.12171   0.12760   0.13712   0.15366
 Alpha virt. eigenvalues --    0.16443   0.16972   0.19274   0.20086   0.20419

 Mulliken charges:
               1
     1  O   -0.420720
     2  C   -0.066662
     3  C   -0.215088
     4  C    0.063043
     5  O   -0.262829
     6  C    0.060170
     7  C   -0.381273
     8  C    0.298561
     9  C   -0.452688
    10  H    0.287007
    11  H    0.105641
    12  H    0.083313
    13  H    0.115281
    14  H    0.113964
    15  H    0.090124
    16  H    0.103368
    17  H    0.141409
    18  H    0.137936
    19  H    0.199443
 Sum of Mulliken charges =   0.00000

 Dipole moment (field-independent basis, Debye):
    X=              0.2703    Y=              0.1611    Z=              0.9160  Tot=              0.9686
 Quadrupole moment (field-independent basis, Debye-Ang):
   XX=            -46.7005   YY=            -55.4235   ZZ=            -52.3742
   XY=             -4.2279   XZ=              3.9057   YZ=              0.0192

  Exact polarizability:  98.141  -8.981  75.343   3.086  -1.168  60.448
 Approx polarizability: 116.257 -19.288 125.235   5.227  -1.610  91.981

                      1                      2                      3
                      A                      A                      A
 Frequencies --     47.2029                81.6281                85.2606
 Red. masses --      3.7487                 3.3203                 2.8310
 Frc consts  --      0.0049                 0.0130                 0.0121
 IR Inten    --      0.4419                 1.7247                 1.6099

                      4                      5                      6
                      A                      A                      A
 Frequencies --    111.6735               151.9168               258.7077
 Red. masses --      3.3786                 3.9324                 1.0986
 Frc consts  --      0.0248                 0.0535                 0.0433
 IR Inten    --      8.7780                 1.9152               100.9097

                      7                      8                      9
                      A                      A                      A
 Frequencies --    267.7070               327.5245               340.0553
 Red. masses --      3.5053                 4.3589                 2.5398
 Frc consts  --      0.1480                 0.2755                 0.1730
 IR Inten    --      3.7213                 5.3449                 7.4867

                     10                     11                     12
                      A                      A                      A
 Frequencies --    352.6644               447.7867               502.7633
 Red. masses --      3.3342                 4.8407                 5.2475
 Frc consts  --      0.2443                 0.5719                 0.7815
 IR Inten    --      4.1506                 0.2164                13.2856

                     13                     14                     15
                      A                      A                      A
 Frequencies --    556.6322               626.5954               651.9532
 Red. masses --      3.0710                 1.2089                 1.2324
 Frc consts  --      0.5606                 0.2797                 0.3086
 IR Inten    --     10.8137                43.8281                42.4050

                     16                     17                     18
                      A                      A                      A
 Frequencies --    777.7171               830.7767               863.2072
 Red. masses --      1.9969                 1.9786                 2.0251
 Frc consts  --      0.7116                 0.8046                 0.8891
 IR Inten    --     15.2792                 8.3450                18.4107

                     19                     20                     21
                      A                      A                      A
 Frequencies --    957.7280               964.4766              1006.7424
 Red. masses --      3.0921                 3.5542                 2.5033
 Frc consts  --      1.6711                 1.9480                 1.4949
 IR Inten    --     31.4544                 0.1856                 7.8398

                     22                     23                     24
                      A                      A                      A
 Frequencies --   1028.3031              1064.1085              1084.6682
 Red. masses --      2.1790                 2.1963                 3.5604
 Frc consts  --      1.3575                 1.4653                 2.4680
 IR Inten    --     11.9241                56.7125                40.8084

                     25                     26                     27
                      A                      A                      A
 Frequencies --   1099.9068              1137.5754              1171.9943
 Red. masses --      1.7980                 1.5751                 1.7194
 Frc consts  --      1.2816                 1.2009                 1.3915
 IR Inten    --      0.9306                 5.0536                 2.3064

                     28                     29                     30
                      A                      A                      A
 Frequencies --   1223.0481              1232.7704              1243.8994
 Red. masses --      1.2097                 1.2413                 1.2174
 Frc consts  --      1.0661                 1.1115                 1.1099
 IR Inten    --      3.7120                 3.9326                37.3315

                     31                     32                     33
                      A                      A                      A
 Frequencies --   1280.5927              1314.1637              1322.7514
 Red. masses --      1.3443                 1.1198                 1.4447
 Frc consts  --      1.2989                 1.1394                 1.4893
 IR Inten    --      2.6511                 0.2739                11.8419

                     34                     35                     36
                      A                      A                      A
 Frequencies --   1327.0545              1386.4110              1462.6887
 Red. masses --      1.3194                 1.2989                 1.4604
 Frc consts  --      1.3690                 1.4710                 1.8409
 IR Inten    --     10.4026                19.6677                 8.4495

                     37                     38                     39
                      A                      A                      A
 Frequencies --   1468.2223              1477.1709              1504.9873
 Red. masses --      1.1015                 1.0987                 2.9948
 Frc consts  --      1.3990                 1.4125                 3.9965
 IR Inten    --      5.7030                 1.8924                12.8393

                     40                     41                     42
                      A                      A                      A
 Frequencies --   1528.8073              2241.7734              2961.9206
 Red. masses --      1.0860                 5.9165                 1.0629
 Frc consts  --      1.4955                17.5185                 5.4939
 IR Inten    --      3.3880                 1.9888                56.2403

                     43                     44                     45
                      A                      A                      A
 Frequencies --   3007.3346              3025.1268              3040.7717
 Red. masses --      1.0969                 1.0606                 1.0604
 Frc consts  --      5.8447                 5.7184                 5.7770
 IR Inten    --     35.8121                13.4354                17.6772

                     46                     47                     48
                      A                      A                      A
 Frequencies --   3062.9062              3079.8065              3096.5343
 Red. masses --      1.0986                 1.0904                 1.0992
 Frc consts  --      6.0724                 6.0938                 6.2098
 IR Inten    --      4.9675                 4.0734                28.1365

                     49                     50                     51
                      A                      A                      A
 Frequencies --   3110.2015              3506.3606              3831.8556
 Red. masses --      1.0881                 1.1627                 1.0664
 Frc consts  --      6.2015                 8.4225                 9.2253
 IR Inten    --     37.8557                66.5989                22.5061

 - Thermochemistry -
 -------------------
 Temperature   298.150 Kelvin.  Pressure   1.00000 Atm.
 Atom     1 has atomic number  8 and mass  15.99491

 Molecular mass:   126.06808 amu.
 Principal axes and moments of inertia in atomic units:
                           1         2         3
     Eigenvalues --   434.712512855.787733168.53025
           X            0.99999  -0.00151   0.00395
           Y            0.00156   0.99992  -0.01239
           Z           -0.00393   0.01239   0.99992
 This molecule is an asymmetric top.
 Rotational symmetry number  1.
 Warning -- assumption of classical behavior for rotation
           may cause significant error
 Rotational temperatures (Kelvin)      0.19924     0.03033     0.02734
 Rotational constants (GHZ):           4.15157     0.63196     0.56958
 Zero-point vibrational energy     409927.0 (Joules/Mol)
                                   97.97489 (Kcal/Mol)
 Warning -- explicit consideration of  13 degrees of freedom as
           vibrations may cause significant error
 Vibrational temperatures:     67.91   117.44   122.67   160.67   218.57
          (Kelvin)            372.22   385.17   471.23   489.26   507.40
                              644.26   723.36   800.87   901.53   938.01
                             1118.96  1195.30  1241.96  1377.96  1387.67
                             1448.48  1479.50  1531.01  1560.59  1582.52
                             1636.72  1686.24  1759.69  1773.68  1789.69
                             1842.48  1890.79  1903.14  1909.33  1994.73
                             2104.48  2112.44  2125.32  2165.34  2199.61
                             3225.41  4261.54  4326.88  4352.48  4374.99
                             4406.83  4431.15  4455.22  4474.88  5044.86
                             5513.18

 Zero-point correction=                           0.156133 (Hartree/Particle)
 Thermal correction to Energy=                    0.166312
 Thermal correction to Enthalpy=                  0.167256
 Thermal correction to Gibbs Free Energy=         0.119820
 Sum of electronic and zero-point Energies=           -422.965877
 Sum of electronic and thermal Energies=              -422.955698
 Sum of electronic and thermal Enthalpies=            -422.954753
 Sum of electronic and thermal Free Energies=         -423.002190

                     E (Thermal)             CV                S
                      KCal/Mol        Cal/Mol-Kelvin    Cal/Mol-Kelvin
 Total                  104.362             35.997             99.838
 Electronic               0.000              0.000              0.000
 Translational            0.889              2.981             40.409
 Rotational               0.889              2.981             29.754
 Vibrational            102.585             30.035             29.675
 Vibration     1          0.595              1.979              4.931
 Vibration     2          0.600              1.962              3.851
 Vibration     3          0.601              1.959              3.766
 Vibration     4          0.607              1.940              3.240
 Vibration     5          0.619              1.901              2.648
 Vibration     6          0.668              1.748              1.670
 Vibration     7          0.673              1.732              1.611
 Vibration     8          0.711              1.620              1.272
 Vibration     9          0.720              1.595              1.212
 Vibration    10          0.729              1.570              1.154
 Vibration    11          0.807              1.366              0.802
 Vibration    12          0.858              1.244              0.651
 Vibration    13          0.912              1.125              0.531

 Optimization completed.
    -- Stationary point found.
 Normal termination of Gaussian 09 at Tue Jan 28 15:01:34 2020.
