 Gaussian 09, Revision D.01,
 Gaussian 09:  ES64L-G09RevD.01 24-Apr-2013

 -----------------------------
 # b3lyp 6-31G(2df,p) opt Freq
 -----------------------------

 -----
 titel
 -----
 Symbolic Z-matrix:
 Charge =  0 Multiplicity = 1

 SCF Done:  E(RB3LYP) =  -423.179101321     A.U. after   13 cycles
 Optimization completed.
    -- Stationary point found.
 Normal termination of Gaussian 09 at Mon Jan 27 12:23:04 2020.

 ----------------------------------------------------------------------
 #N Geom=AllCheck Guess=TCheck SCRF=Check GenChk RB3LYP/6-31G(2df,p) Fr
 eq
 ----------------------------------------------------------------------

 Structure from the checkpoint file:  "/scratch/puck/g09_a69dcd2e-ec7d-4757-959f-a5dc3cc8ddea/Gau-165725.chk"
 -----
 titel
 -----
 Charge =  0 Multiplicity = 1

                         Standard orientation:
 ---------------------------------------------------------------------
 Center     Atomic      Atomic             Coordinates (Angstroms)
 Number     Number       Type             X           Y           Z
 ---------------------------------------------------------------------
      1          6           0       -2.282412    0.236358    0.381173
      2          6           0       -1.857431   -0.947174   -0.530356
      3          6           0       -0.337185   -0.881001   -0.608922
      4          6           0        0.414354   -0.739720    0.703111
      5          8           0        1.821419   -0.815743    0.641747
      6          6           0        2.250438    0.157069   -0.299560
      7          8           0        1.237875    1.138512   -0.411586
      8          6           0        0.047090    0.494966   -0.055538
      9          6           0       -1.184709    1.312364    0.217976
     10          1           0       -3.276855    0.613561    0.131756
     11          1           0       -2.320448   -0.090331    1.425541
     12          1           0       -2.232640   -1.905070   -0.153693
     13          1           0       -2.265776   -0.816382   -1.539105
     14          1           0        0.169435   -1.344166   -1.448852
     15          1           0        0.027754   -1.057687    1.665426
     16          1           0        3.173817    0.626266    0.054703
     17          1           0        2.423102   -0.319414   -1.278516
     18          1           0       -1.088379    1.954739    1.098738
     19          1           0       -1.385228    1.959165   -0.644582
 ---------------------------------------------------------------------

 SCF Done:  E(RB3LYP) =  -423.179101321     A.U. after    1 cycles

 The electronic state is 1-A.
 Alpha  occ. eigenvalues --  -19.15362 -19.14952 -10.27595 -10.23634 -10.23167
 Alpha  occ. eigenvalues --  -10.18918 -10.18847 -10.18805 -10.18646  -1.09491
 Alpha  occ. eigenvalues --   -0.99917  -0.87391  -0.76514  -0.72123  -0.66819
 Alpha  occ. eigenvalues --   -0.62446  -0.57704  -0.55246  -0.50291  -0.49490
 Alpha  occ. eigenvalues --   -0.48276  -0.46113  -0.43378  -0.42802  -0.40085
 Alpha  occ. eigenvalues --   -0.37717  -0.37465  -0.34990  -0.34718  -0.34190
 Alpha  occ. eigenvalues --   -0.32461  -0.31102  -0.24637  -0.22293
 Alpha virt. eigenvalues --    0.08105   0.09788   0.11623   0.12464   0.12981
 Alpha virt. eigenvalues --    0.13807   0.14158   0.14957   0.16356   0.18110
 Alpha virt. eigenvalues --    0.18170   0.19753   0.20223   0.20535   0.21977

 Mulliken charges:
               1
     1  C   -0.224362
     2  C   -0.226929
     3  C   -0.173566
     4  C    0.018334
     5  O   -0.272075
     6  C    0.001914
     7  O   -0.305113
     8  C    0.436220
     9  C   -0.304555
    10  H    0.103700
    11  H    0.109217
    12  H    0.101508
    13  H    0.106278
    14  H    0.092567
    15  H    0.104305
    16  H    0.119946
    17  H    0.094604
    18  H    0.107277
    19  H    0.110730
 Sum of Mulliken charges =   0.00000

 Dipole moment (field-independent basis, Debye):
    X=             -1.2894    Y=             -0.1466    Z=             -0.3328  Tot=              1.3396
 Quadrupole moment (field-independent basis, Debye-Ang):
   XX=            -50.7987   YY=            -55.7600   ZZ=            -52.2263
   XY=              0.5664   XZ=             -1.9156   YZ=              1.4304

  Exact polarizability:  87.957   1.588  68.555  -0.840   1.636  64.948
 Approx polarizability: 112.979   2.031 105.389   1.232  -1.026 101.472

                      1                      2                      3
                      A                      A                      A
 Frequencies --    176.0896               195.8357               229.3138
 Red. masses --      2.3533                 2.4932                 2.6790
 Frc consts  --      0.0430                 0.0563                 0.0830
 IR Inten    --      3.4531                 1.4416                 2.8693

                      4                      5                      6
                      A                      A                      A
 Frequencies --    257.6517               350.2351               402.5832
 Red. masses --      2.1985                 4.1237                 2.8235
 Frc consts  --      0.0860                 0.2980                 0.2696
 IR Inten    --      1.5900                 2.5900                 0.3615

                      7                      8                      9
                      A                      A                      A
 Frequencies --    487.6508               613.6212               665.4667
 Red. masses --      4.9887                 2.6250                 2.4114
 Frc consts  --      0.6990                 0.5823                 0.6292
 IR Inten    --      3.7572                 1.5027                 1.9115

                     10                     11                     12
                      A                      A                      A
 Frequencies --    724.9576               757.3934               833.6049
 Red. masses --      4.3633                 7.0261                 2.0221
 Frc consts  --      1.3511                 2.3747                 0.8279
 IR Inten    --     12.1124                 2.1845                 5.7519

                     13                     14                     15
                      A                      A                      A
 Frequencies --    871.5519               887.2743               922.7498
 Red. masses --      2.1536                 2.7735                 1.9791
 Frc consts  --      0.9638                 1.2865                 0.9928
 IR Inten    --      2.1636                 6.0294                11.1782

                     16                     17                     18
                      A                      A                      A
 Frequencies --    944.3430               959.4837               965.8301
 Red. masses --      2.5284                 2.0020                 1.8196
 Frc consts  --      1.3285                 1.0859                 1.0001
 IR Inten    --     30.1932                25.1839                 2.1640

                     19                     20                     21
                      A                      A                      A
 Frequencies --   1010.4080              1027.3020              1038.7941
 Red. masses --      2.0826                 1.7227                 4.3992
 Frc consts  --      1.2527                 1.0712                 2.7969
 IR Inten    --      7.2361                 3.1059                18.9048

                     22                     23                     24
                      A                      A                      A
 Frequencies --   1085.5416              1107.2376              1134.4668
 Red. masses --      1.8896                 2.3497                 2.8777
 Frc consts  --      1.3119                 1.6972                 2.1822
 IR Inten    --      2.2139                 4.6179                94.2329

                     25                     26                     27
                      A                      A                      A
 Frequencies --   1156.5329              1170.1624              1182.3108
 Red. masses --      1.8245                 1.5713                 1.4767
 Frc consts  --      1.4378                 1.2677                 1.2162
 IR Inten    --     20.6220                32.0947                14.1073

                     28                     29                     30
                      A                      A                      A
 Frequencies --   1219.6155              1237.3492              1251.3037
 Red. masses --      1.1266                 1.9823                 1.2936
 Frc consts  --      0.9873                 1.7882                 1.1934
 IR Inten    --      3.5709                77.4966                 3.7772

                     31                     32                     33
                      A                      A                      A
 Frequencies --   1274.1954              1288.2178              1327.2786
 Red. masses --      1.4043                 1.5662                 1.4944
 Frc consts  --      1.3433                 1.5314                 1.5511
 IR Inten    --      1.6787                10.7929                11.0103

                     34                     35                     36
                      A                      A                      A
 Frequencies --   1337.0661              1363.5754              1425.2399
 Red. masses --      1.3312                 2.0160                 2.8913
 Frc consts  --      1.4021                 2.2085                 3.4604
 IR Inten    --      5.7242                17.6955                23.0429

                     37                     38                     39
                      A                      A                      A
 Frequencies --   1437.5682              1491.7077              1496.0628
 Red. masses --      1.3592                 1.0907                 1.0887
 Frc consts  --      1.6550                 1.4300                 1.4357
 IR Inten    --      6.0605                 1.3118                 0.9504

                     40                     41                     42
                      A                      A                      A
 Frequencies --   1513.4453              1546.9062              2962.4089
 Red. masses --      1.1114                 1.1016                 1.0699
 Frc consts  --      1.4999                 1.5531                 5.5321
 IR Inten    --      2.6364                 3.8092                91.7158

                     43                     44                     45
                      A                      A                      A
 Frequencies --   3033.5002              3037.3886              3049.8124
 Red. masses --      1.0589                 1.0623                 1.0718
 Frc consts  --      5.7410                 5.7745                 5.8737
 IR Inten    --     51.9322                25.6827                 9.4782

                     46                     47                     48
                      A                      A                      A
 Frequencies --   3071.2807              3073.1035              3083.6857
 Red. masses --      1.0986                 1.0961                 1.0977
 Frc consts  --      6.1056                 6.0989                 6.1499
 IR Inten    --     34.3330                52.3110                27.7331

                     49                     50                     51
                      A                      A                      A
 Frequencies --   3106.0310              3166.2966              3168.7582
 Red. masses --      1.1027                 1.0931                 1.0893
 Frc consts  --      6.2680                 6.4565                 6.4445
 IR Inten    --     37.8933                14.0446                12.8711

 - Thermochemistry -
 -------------------
 Temperature   298.150 Kelvin.  Pressure   1.00000 Atm.
 Atom     1 has atomic number  6 and mass  12.00000

 Molecular mass:   126.06808 amu.
 Principal axes and moments of inertia in atomic units:
                           1         2         3
     Eigenvalues --   491.336841238.707601451.77191
           X            0.99992   0.00285  -0.01206
           Y           -0.00224   0.99874   0.05006
           Z            0.01219  -0.05002   0.99867
 This molecule is an asymmetric top.
 Rotational symmetry number  1.
 Warning -- assumption of classical behavior for rotation
           may cause significant error
 Rotational temperatures (Kelvin)      0.17628     0.06992     0.05966
 Rotational constants (GHZ):           3.67312     1.45695     1.24313
 Zero-point vibrational energy     425393.2 (Joules/Mol)
                                  101.67142 (Kcal/Mol)
 Warning -- explicit consideration of   8 degrees of freedom as
           vibrations may cause significant error
 Vibrational temperatures:    253.35   281.76   329.93   370.70   503.91
          (Kelvin)            579.23   701.62   882.86   957.46  1043.05
                             1089.72  1199.37  1253.97  1276.59  1327.63
                             1358.70  1380.48  1389.61  1453.75  1478.06
                             1494.59  1561.85  1593.07  1632.24  1663.99
                             1683.60  1701.08  1754.75  1780.27  1800.34
                             1833.28  1853.46  1909.66  1923.74  1961.88
                             2050.60  2068.34  2146.23  2152.50  2177.51
                             2225.65  4262.24  4364.52  4370.12  4387.99
                             4418.88  4421.50  4436.73  4468.88  4555.59
                             4559.13

 Zero-point correction=                           0.162024 (Hartree/Particle)
 Thermal correction to Energy=                    0.169114
 Thermal correction to Enthalpy=                  0.170058
 Thermal correction to Gibbs Free Energy=         0.130754
 Sum of electronic and zero-point Energies=           -423.017078
 Sum of electronic and thermal Energies=              -423.009987
 Sum of electronic and thermal Enthalpies=            -423.009043
 Sum of electronic and thermal Free Energies=         -423.048347

                     E (Thermal)             CV                S
                      KCal/Mol        Cal/Mol-Kelvin    Cal/Mol-Kelvin
 Total                  106.121             28.628             82.723
 Electronic               0.000              0.000              0.000
 Translational            0.889              2.981             40.409
 Rotational               0.889              2.981             28.271
 Vibrational            104.343             22.667             14.044
 Vibration     1          0.628              1.872              2.369
 Vibration     2          0.636              1.846              2.172
 Vibration     3          0.652              1.796              1.884
 Vibration     4          0.667              1.750              1.678
 Vibration     5          0.727              1.575              1.165
 Vibration     6          0.768              1.465              0.953
 Vibration     7          0.844              1.277              0.690
 Vibration     8          0.973              1.003              0.427

 Optimization completed.
    -- Stationary point found.
 Normal termination of Gaussian 09 at Mon Jan 27 13:11:39 2020.
