 Gaussian 09, Revision D.01,
 Gaussian 09:  ES64L-G09RevD.01 24-Apr-2013

 -----------------------------
 # b3lyp 6-31G(2df,p) opt Freq
 -----------------------------

 -----
 titel
 -----
 Symbolic Z-matrix:
 Charge =  0 Multiplicity = 1

 SCF Done:  E(RB3LYP) =  -423.203741004     A.U. after   14 cycles
 Optimization completed.
    -- Stationary point found.
 Normal termination of Gaussian 09 at Tue Jan 28 13:47:43 2020.

 ----------------------------------------------------------------------
 #N Geom=AllCheck Guess=TCheck SCRF=Check GenChk RB3LYP/6-31G(2df,p) Fr
 eq
 ----------------------------------------------------------------------

 Structure from the checkpoint file:  "/scratch/puck/g09_4122f18d-6663-4332-8805-7217166b0fac/Gau-119776.chk"
 -----
 titel
 -----
 Charge =  0 Multiplicity = 1

                         Standard orientation:
 ---------------------------------------------------------------------
 Center     Atomic      Atomic             Coordinates (Angstroms)
 Number     Number       Type             X           Y           Z
 ---------------------------------------------------------------------
      1          6           0       -3.032688   -0.422071   -0.341068
      2          6           0       -1.602277   -0.805890    0.051086
      3          6           0       -0.814146    0.370673    0.615727
      4          6           0       -0.377925    1.530716   -0.343864
      5          6           0        1.088833    1.314670    0.074723
      6          8           0        1.771305    0.368246   -0.810385
      7          6           0        1.469609   -0.695474    0.015319
      8          8           0        1.776162   -1.834079   -0.135396
      9          6           0        0.689139    0.152048    1.014663
     10          1           0       -3.573659   -1.281908   -0.746659
     11          1           0       -3.595142   -0.050815    0.522976
     12          1           0       -3.040475    0.364115   -1.103858
     13          1           0       -1.625585   -1.610030    0.797311
     14          1           0       -1.077705   -1.217397   -0.819787
     15          1           0       -1.346109    0.782907    1.478931
     16          1           0       -0.547971    1.361747   -1.409736
     17          1           0       -0.780154    2.508546   -0.070617
     18          1           0        1.736604    2.150728    0.331413
     19          1           0        0.947189    0.050746    2.066766
 ---------------------------------------------------------------------

 SCF Done:  E(RB3LYP) =  -423.203741004     A.U. after    1 cycles

 The electronic state is 1-A.
 Alpha  occ. eigenvalues --  -19.17724 -19.13203 -10.30517 -10.25550 -10.21070
 Alpha  occ. eigenvalues --  -10.20935 -10.19809 -10.18916 -10.18150  -1.10287
 Alpha  occ. eigenvalues --   -1.03036  -0.85479  -0.76988  -0.71226  -0.67176
 Alpha  occ. eigenvalues --   -0.62071  -0.58474  -0.53078  -0.51643  -0.49818
 Alpha  occ. eigenvalues --   -0.46445  -0.45783  -0.43083  -0.42144  -0.40608
 Alpha  occ. eigenvalues --   -0.39841  -0.37598  -0.36749  -0.34785  -0.33877
 Alpha  occ. eigenvalues --   -0.32665  -0.30696  -0.29238  -0.26957
 Alpha virt. eigenvalues --    0.00810   0.07532   0.08525   0.09566   0.09934
 Alpha virt. eigenvalues --    0.12902   0.14113   0.14403   0.14765   0.15948
 Alpha virt. eigenvalues --    0.16755   0.18044   0.19264   0.19724   0.21367

 Mulliken charges:
               1
     1  C   -0.385850
     2  C   -0.196520
     3  C    0.025376
     4  C   -0.265501
     5  C    0.111648
     6  O   -0.257013
     7  C    0.461465
     8  O   -0.332768
     9  C   -0.266582
    10  H    0.120593
    11  H    0.114849
    12  H    0.119833
    13  H    0.108215
    14  H    0.117039
    15  H    0.085392
    16  H    0.121752
    17  H    0.112770
    18  H    0.100337
    19  H    0.104966
 Sum of Mulliken charges =   0.00000

 Dipole moment (field-independent basis, Debye):
    X=             -2.3282    Y=              2.9250    Z=              1.6935  Tot=              4.1042
 Quadrupole moment (field-independent basis, Debye-Ang):
   XX=            -56.7305   YY=            -55.6982   ZZ=            -52.3387
   XY=              5.1291   XZ=              3.0034   YZ=              0.2780

  Exact polarizability:  80.453  -1.672  79.576   0.088  -0.517  63.953
 Approx polarizability: 103.887  -5.947 124.305  -3.809  -1.606 100.557

                      1                      2                      3
                      A                      A                      A
 Frequencies --     86.9011                93.8276               114.0334
 Red. masses --      3.7440                 1.9848                 6.1700
 Frc consts  --      0.0167                 0.0103                 0.0473
 IR Inten    --      1.0709                 0.2378                 2.6448

                      4                      5                      6
                      A                      A                      A
 Frequencies --    214.6426               254.8053               362.7580
 Red. masses --      1.7136                 1.5274                 3.4237
 Frc consts  --      0.0465                 0.0584                 0.2655
 IR Inten    --      0.2313                 0.1159                 0.6006

                      7                      8                      9
                      A                      A                      A
 Frequencies --    385.1306               424.7477               482.9080
 Red. masses --      2.1117                 3.9397                 4.1185
 Frc consts  --      0.1845                 0.4188                 0.5659
 IR Inten    --      0.0384                 2.1627                 3.0443

                     10                     11                     12
                      A                      A                      A
 Frequencies --    628.2239               725.6818               770.8609
 Red. masses --      5.0083                 2.5383                 3.0548
 Frc consts  --      1.1646                 0.7876                 1.0695
 IR Inten    --      0.6317                 0.8589                 3.3513

                     13                     14                     15
                      A                      A                      A
 Frequencies --    779.1716               825.1377               869.4376
 Red. masses --      1.4889                 2.7525                 2.5927
 Frc consts  --      0.5326                 1.1042                 1.1547
 IR Inten    --      1.9416                15.1887                 0.2330

                     16                     17                     18
                      A                      A                      A
 Frequencies --    874.4426               918.1981               942.2052
 Red. masses --      1.9193                 3.1041                 2.1054
 Frc consts  --      0.8647                 1.5419                 1.1012
 IR Inten    --      4.7645                28.6974                12.3555

                     19                     20                     21
                      A                      A                      A
 Frequencies --    970.1417               988.4428              1011.2459
 Red. masses --      1.5790                 2.7754                 2.8332
 Frc consts  --      0.8756                 1.5976                 1.7070
 IR Inten    --      4.4393                39.7628                 1.4364

                     22                     23                     24
                      A                      A                      A
 Frequencies --   1063.6672              1092.5396              1110.6703
 Red. masses --      2.1609                 2.2586                 1.6688
 Frc consts  --      1.4404                 1.5884                 1.2129
 IR Inten    --     19.2938                41.1654                31.1279

                     25                     26                     27
                      A                      A                      A
 Frequencies --   1132.9617              1155.0671              1192.8781
 Red. masses --      1.9406                 1.8881                 1.7782
 Frc consts  --      1.4676                 1.4842                 1.4908
 IR Inten    --      1.7252                 2.3490                 9.0369

                     28                     29                     30
                      A                      A                      A
 Frequencies --   1213.2865              1235.0939              1272.0237
 Red. masses --      1.7107                 1.7166                 1.5898
 Frc consts  --      1.4837                 1.5428                 1.5156
 IR Inten    --      2.7768                 9.8396                 5.6569

                     31                     32                     33
                      A                      A                      A
 Frequencies --   1289.7422              1304.4152              1322.4775
 Red. masses --      1.2994                 1.3568                 1.5384
 Frc consts  --      1.2735                 1.3601                 1.5853
 IR Inten    --      2.2929                 7.6153                29.2991

                     34                     35                     36
                      A                      A                      A
 Frequencies --   1345.5824              1390.8015              1413.9025
 Red. masses --      1.3525                 1.4942                 1.2310
 Frc consts  --      1.4428                 1.7030                 1.4499
 IR Inten    --      3.2315                 0.4898                 1.3402

                     37                     38                     39
                      A                      A                      A
 Frequencies --   1465.8910              1483.5339              1501.5885
 Red. masses --      1.0988                 1.0717                 1.0409
 Frc consts  --      1.3912                 1.3897                 1.3828
 IR Inten    --      2.6680                 0.9320                 5.2506

                     40                     41                     42
                      A                      A                      A
 Frequencies --   1506.3735              1929.7976              3026.5447
 Red. masses --      1.0661                12.7726                 1.0590
 Frc consts  --      1.4253                28.0254                 5.7155
 IR Inten    --      3.0693               400.4673                11.0434

                     43                     44                     45
                      A                      A                      A
 Frequencies --   3031.8852              3046.9200              3064.5173
 Red. masses --      1.0369                 1.0889                 1.0960
 Frc consts  --      5.6161                 5.9561                 6.0646
 IR Inten    --     27.2917                 7.5164                16.3910

                     46                     47                     48
                      A                      A                      A
 Frequencies --   3070.5840              3098.2668              3108.5977
 Red. masses --      1.0608                 1.1020                 1.1007
 Frc consts  --      5.8926                 6.2328                 6.2666
 IR Inten    --     18.1242                43.0792                28.5540

                     49                     50                     51
                      A                      A                      A
 Frequencies --   3125.0175              3134.5081              3144.8899
 Red. masses --      1.1053                 1.0908                 1.0930
 Frc consts  --      6.3598                 6.3144                 6.3694
 IR Inten    --     10.3381                25.8707                21.6784

 - Thermochemistry -
 -------------------
 Temperature   298.150 Kelvin.  Pressure   1.00000 Atm.
 Atom     1 has atomic number  6 and mass  12.00000

 Molecular mass:   126.06808 amu.
 Principal axes and moments of inertia in atomic units:
                           1         2         3
     Eigenvalues --   657.393381373.597461727.18048
           X            0.99921   0.03602   0.01660
           Y           -0.03607   0.99935   0.00267
           Z           -0.01649  -0.00327   0.99986
 This molecule is an asymmetric top.
 Rotational symmetry number  1.
 Warning -- assumption of classical behavior for rotation
           may cause significant error
 Rotational temperatures (Kelvin)      0.13175     0.06306     0.05015
 Rotational constants (GHZ):           2.74530     1.31388     1.04491
 Zero-point vibrational energy     418674.8 (Joules/Mol)
                                  100.06569 (Kcal/Mol)
 Warning -- explicit consideration of   9 degrees of freedom as
           vibrations may cause significant error
 Vibrational temperatures:    125.03   135.00   164.07   308.82   366.61
          (Kelvin)            521.93   554.12   611.12   694.80   903.87
                             1044.09  1109.10  1121.05  1187.19  1250.93
                             1258.13  1321.08  1355.62  1395.82  1422.15
                             1454.96  1530.38  1571.92  1598.00  1630.08
                             1661.88  1716.28  1745.65  1777.02  1830.16
                             1855.65  1876.76  1902.75  1935.99  2001.05
                             2034.29  2109.09  2134.47  2160.45  2167.33
                             2776.54  4354.52  4362.20  4383.83  4409.15
                             4417.88  4457.71  4472.57  4496.20  4509.85
                             4524.79

 Zero-point correction=                           0.159465 (Hartree/Particle)
 Thermal correction to Energy=                    0.167806
 Thermal correction to Enthalpy=                  0.168750
 Thermal correction to Gibbs Free Energy=         0.126000
 Sum of electronic and zero-point Energies=           -423.044276
 Sum of electronic and thermal Energies=              -423.035935
 Sum of electronic and thermal Enthalpies=            -423.034991
 Sum of electronic and thermal Free Energies=         -423.077741

                     E (Thermal)             CV                S
                      KCal/Mol        Cal/Mol-Kelvin    Cal/Mol-Kelvin
 Total                  105.300             31.268             89.976
 Electronic               0.000              0.000              0.000
 Translational            0.889              2.981             40.409
 Rotational               0.889              2.981             28.835
 Vibrational            103.522             25.306             20.732
 Vibration     1          0.601              1.958              3.729
 Vibration     2          0.603              1.954              3.579
 Vibration     3          0.607              1.938              3.199
 Vibration     4          0.645              1.819              2.004
 Vibration     5          0.665              1.755              1.697
 Vibration     6          0.737              1.549              1.110
 Vibration     7          0.754              1.502              1.019
 Vibration     8          0.787              1.416              0.876
 Vibration     9          0.839              1.288              0.702

 Optimization completed.
    -- Stationary point found.
 Normal termination of Gaussian 09 at Tue Jan 28 14:29:25 2020.
