 Gaussian 09, Revision D.01,
 Gaussian 09:  ES64L-G09RevD.01 24-Apr-2013

 -----------------------------
 # b3lyp 6-31G(2df,p) opt Freq
 -----------------------------

 -----
 titel
 -----
 Symbolic Z-matrix:
 Charge =  0 Multiplicity = 1

 SCF Done:  E(RB3LYP) =  -423.126239864     A.U. after   13 cycles
 Optimization completed.
    -- Stationary point found.
 Normal termination of Gaussian 09 at Tue Jan 28 14:02:01 2020.

 ----------------------------------------------------------------------
 #N Geom=AllCheck Guess=TCheck SCRF=Check GenChk RB3LYP/6-31G(2df,p) Fr
 eq
 ----------------------------------------------------------------------

 Structure from the checkpoint file:  "/scratch/puck/g09_6bdcc0c9-6be5-42c8-aadc-8e6f8c4751d4/Gau-24644.chk"
 -----
 titel
 -----
 Charge =  0 Multiplicity = 1

                         Standard orientation:
 ---------------------------------------------------------------------
 Center     Atomic      Atomic             Coordinates (Angstroms)
 Number     Number       Type             X           Y           Z
 ---------------------------------------------------------------------
      1          6           0       -3.034168   -0.419489   -0.496562
      2          8           0       -1.942231   -0.553442    0.388790
      3          6           0       -0.710436   -0.336380   -0.212750
      4          6           0       -0.164383    1.152069   -0.246229
      5          8           0        0.104325    1.010184    1.185202
      6          6           0        0.471768   -0.350709    0.807323
      7          6           0        1.661624   -0.125714   -0.144419
      8          6           0        2.917157   -0.922812   -0.194238
      9          6           0        1.211775    0.912547   -0.863488
     10          1           0       -2.947042   -1.105218   -1.353584
     11          1           0       -3.937369   -0.666559    0.065364
     12          1           0       -3.126512    0.606263   -0.882316
     13          1           0       -0.598061   -0.920464   -1.137706
     14          1           0       -0.761077    2.022112   -0.516143
     15          1           0        0.537314   -1.058216    1.633378
     16          1           0        2.709875   -1.984963   -0.376221
     17          1           0        3.584169   -0.569193   -0.985347
     18          1           0        3.459619   -0.869710    0.758085
     19          1           0        1.662304    1.434941   -1.695265
 ---------------------------------------------------------------------

 SCF Done:  E(RB3LYP) =  -423.126239864     A.U. after    1 cycles

 The electronic state is 1-A.
 Alpha  occ. eigenvalues --  -19.14560 -19.12326 -10.23918 -10.23540 -10.23490
 Alpha  occ. eigenvalues --  -10.22818 -10.19097 -10.18924 -10.17756  -1.05894
 Alpha  occ. eigenvalues --   -1.02406  -0.81305  -0.73931  -0.71578  -0.67470
 Alpha  occ. eigenvalues --   -0.64647  -0.55409  -0.53179  -0.50995  -0.49378
 Alpha  occ. eigenvalues --   -0.46134  -0.45615  -0.42595  -0.41838  -0.41722
 Alpha  occ. eigenvalues --   -0.39868  -0.37547  -0.35383  -0.35180  -0.33508
 Alpha  occ. eigenvalues --   -0.30403  -0.26258  -0.24163  -0.22825
 Alpha virt. eigenvalues --    0.00954   0.09548   0.10311   0.10741   0.12007
 Alpha virt. eigenvalues --    0.13896   0.14160   0.14952   0.15745   0.16323
 Alpha virt. eigenvalues --    0.16648   0.17788   0.18873   0.19671   0.21735

 Mulliken charges:
               1
     1  C   -0.244166
     2  O   -0.248323
     3  C    0.187804
     4  C   -0.031267
     5  O   -0.279612
     6  C   -0.085315
     7  C    0.350360
     8  C   -0.517203
     9  C   -0.205365
    10  H    0.106517
    11  H    0.132528
    12  H    0.110051
    13  H    0.064226
    14  H    0.079615
    15  H    0.080690
    16  H    0.130354
    17  H    0.129192
    18  H    0.135617
    19  H    0.104298
 Sum of Mulliken charges =   0.00000

 Dipole moment (field-independent basis, Debye):
    X=              0.2025    Y=             -1.0452    Z=             -2.4119  Tot=              2.6364
 Quadrupole moment (field-independent basis, Debye-Ang):
   XX=            -47.5703   YY=            -52.8485   ZZ=            -54.6674
   XY=             -1.9943   XZ=              2.2789   YZ=             -3.3463

  Exact polarizability:  95.082  -5.319  72.110   0.530  -6.976  66.201
 Approx polarizability: 117.183  -9.924 116.328   1.606 -14.370 108.365

                      1                      2                      3
                      A                      A                      A
 Frequencies --     74.5993               150.1007               161.4737
 Red. masses --      2.7214                 1.8125                 1.3152
 Frc consts  --      0.0089                 0.0241                 0.0202
 IR Inten    --      3.1207                 0.1401                 0.3541

                      4                      5                      6
                      A                      A                      A
 Frequencies --    170.5069               205.6254               284.0566
 Red. masses --      1.3955                 2.1187                 3.0051
 Frc consts  --      0.0239                 0.0528                 0.1429
 IR Inten    --      0.3155                 0.2905                 0.9766

                      7                      8                      9
                      A                      A                      A
 Frequencies --    337.9422               423.6583               487.5589
 Red. masses --      4.2056                 3.4246                 3.7872
 Frc consts  --      0.2830                 0.3622                 0.5304
 IR Inten    --      4.0299                 0.8780                 3.0400

                     10                     11                     12
                      A                      A                      A
 Frequencies --    561.1082               592.6331               671.8297
 Red. masses --      3.5253                 3.8525                 4.1816
 Frc consts  --      0.6539                 0.7972                 1.1120
 IR Inten    --      3.9014                 4.7073                 4.7358

                     13                     14                     15
                      A                      A                      A
 Frequencies --    785.6978               817.9899               849.6769
 Red. masses --      1.6916                 3.0428                 2.4102
 Frc consts  --      0.6153                 1.1996                 1.0252
 IR Inten    --     19.3561                 5.3221                25.8867

                     16                     17                     18
                      A                      A                      A
 Frequencies --    887.7025               918.2199               927.4004
 Red. masses --      4.8996                 2.0274                 3.3796
 Frc consts  --      2.2748                 1.0071                 1.7126
 IR Inten    --     24.3208                 3.8389                24.4268

                     19                     20                     21
                      A                      A                      A
 Frequencies --    953.3251              1011.7766              1019.1775
 Red. masses --      4.8276                 1.6807                 3.1008
 Frc consts  --      2.5850                 1.0137                 1.8977
 IR Inten    --     12.4820                 1.9012                15.5683

                     22                     23                     24
                      A                      A                      A
 Frequencies --   1060.4408              1067.2330              1139.5100
 Red. masses --      2.2299                 2.1572                 1.5238
 Frc consts  --      1.4775                 1.4476                 1.1658
 IR Inten    --      1.6795                 9.9583                 1.6148

                     25                     26                     27
                      A                      A                      A
 Frequencies --   1150.0690              1179.7356              1184.3209
 Red. masses --      3.0123                 1.3824                 1.3612
 Frc consts  --      2.3474                 1.1335                 1.1249
 IR Inten    --    179.9158                 7.5050                 2.1836

                     28                     29                     30
                      A                      A                      A
 Frequencies --   1202.5593              1224.1766              1235.6820
 Red. masses --      1.8520                 1.4840                 1.4800
 Frc consts  --      1.5780                 1.3103                 1.3315
 IR Inten    --      3.7505                 1.0828                 7.1511

                     31                     32                     33
                      A                      A                      A
 Frequencies --   1248.5335              1295.0524              1303.8082
 Red. masses --      1.9527                 2.1022                 1.6061
 Frc consts  --      1.7935                 2.0773                 1.6086
 IR Inten    --     96.3304                10.9060                13.6438

                     34                     35                     36
                      A                      A                      A
 Frequencies --   1384.5258              1414.0776              1478.5249
 Red. masses --      1.2695                 1.2681                 1.0448
 Frc consts  --      1.4338                 1.4939                 1.3457
 IR Inten    --     45.6941                 0.7706                 5.7100

                     37                     38                     39
                      A                      A                      A
 Frequencies --   1482.0948              1485.6998              1489.7605
 Red. masses --      1.1246                 1.0610                 1.0829
 Frc consts  --      1.4555                 1.3798                 1.4161
 IR Inten    --      4.1186                 7.8178                 3.0300

                     40                     41                     42
                      A                      A                      A
 Frequencies --   1507.0975              1678.1365              2978.5699
 Red. masses --      1.0608                 6.9374                 1.0387
 Frc consts  --      1.4196                11.5106                 5.4296
 IR Inten    --      7.2514                 6.5189                49.6681

                     43                     44                     45
                      A                      A                      A
 Frequencies --   3003.2198              3018.0575              3029.7789
 Red. masses --      1.0834                 1.0377                 1.1022
 Frc consts  --      5.7574                 5.5692                 5.9613
 IR Inten    --     66.4176                28.3468                46.3937

                     46                     47                     48
                      A                      A                      A
 Frequencies --   3064.4396              3108.9866              3122.2144
 Red. masses --      1.0986                 1.0991                 1.0966
 Frc consts  --      6.0782                 6.2595                 6.2984
 IR Inten    --     15.4338                16.9007                27.6577

                     49                     50                     51
                      A                      A                      A
 Frequencies --   3132.9134              3136.9827              3233.6720
 Red. masses --      1.0899                 1.0931                 1.0984
 Frc consts  --      6.3029                 6.3378                 6.7671
 IR Inten    --     48.5634                16.4065                 6.1773

 - Thermochemistry -
 -------------------
 Temperature   298.150 Kelvin.  Pressure   1.00000 Atm.
 Atom     1 has atomic number  6 and mass  12.00000

 Molecular mass:   126.06808 amu.
 Principal axes and moments of inertia in atomic units:
                           1         2         3
     Eigenvalues --   483.875831647.213441719.91703
           X            0.99980  -0.01560   0.01245
           Y            0.01703   0.99207  -0.12453
           Z           -0.01041   0.12472   0.99214
 This molecule is an asymmetric top.
 Rotational symmetry number  1.
 Warning -- assumption of classical behavior for rotation
           may cause significant error
 Rotational temperatures (Kelvin)      0.17900     0.05258     0.05036
 Rotational constants (GHZ):           3.72976     1.09563     1.04932
 Zero-point vibrational energy     414697.0 (Joules/Mol)
                                   99.11497 (Kcal/Mol)
 Warning -- explicit consideration of  11 degrees of freedom as
           vibrations may cause significant error
 Vibrational temperatures:    107.33   215.96   232.32   245.32   295.85
          (Kelvin)            408.69   486.22   609.55   701.49   807.31
                              852.67   966.61  1130.44  1176.90  1222.49
                             1277.20  1321.11  1334.32  1371.62  1455.72
                             1466.37  1525.74  1535.51  1639.50  1654.69
                             1697.37  1703.97  1730.21  1761.31  1777.87
                             1796.36  1863.29  1875.89  1992.02  2034.54
                             2127.26  2132.40  2137.59  2143.43  2168.37
                             2414.46  4285.49  4320.96  4342.31  4359.17
                             4409.04  4473.13  4492.16  4507.56  4513.41
                             4652.53

 Zero-point correction=                           0.157950 (Hartree/Particle)
 Thermal correction to Energy=                    0.166552
 Thermal correction to Enthalpy=                  0.167496
 Thermal correction to Gibbs Free Energy=         0.124544
 Sum of electronic and zero-point Energies=           -422.968290
 Sum of electronic and thermal Energies=              -422.959688
 Sum of electronic and thermal Enthalpies=            -422.958743
 Sum of electronic and thermal Free Energies=         -423.001696

                     E (Thermal)             CV                S
                      KCal/Mol        Cal/Mol-Kelvin    Cal/Mol-Kelvin
 Total                  104.513             32.191             90.402
 Electronic               0.000              0.000              0.000
 Translational            0.889              2.981             40.409
 Rotational               0.889              2.981             28.707
 Vibrational            102.736             26.230             21.286
 Vibration     1          0.599              1.966              4.028
 Vibration     2          0.618              1.903              2.671
 Vibration     3          0.622              1.890              2.532
 Vibration     4          0.626              1.879              2.430
 Vibration     5          0.640              1.832              2.082
 Vibration     6          0.682              1.703              1.509
 Vibration     7          0.718              1.600              1.222
 Vibration     8          0.786              1.419              0.880
 Vibration     9          0.844              1.278              0.690
 Vibration    10          0.917              1.115              0.522
 Vibration    11          0.950              1.047              0.463

 Optimization completed.
    -- Stationary point found.
 Normal termination of Gaussian 09 at Tue Jan 28 14:45:33 2020.
