 Gaussian 09, Revision D.01,
 Gaussian 09:  ES64L-G09RevD.01 24-Apr-2013

 -----------------------------
 # b3lyp 6-31G(2df,p) opt Freq
 -----------------------------

 -----
 titel
 -----
 Symbolic Z-matrix:
 Charge =  0 Multiplicity = 1

 SCF Done:  E(RB3LYP) =  -423.182578656     A.U. after   14 cycles
 Optimization completed.
    -- Stationary point found.
 Normal termination of Gaussian 09 at Tue Jan 28 14:28:18 2020.

 ----------------------------------------------------------------------
 #N Geom=AllCheck Guess=TCheck SCRF=Check GenChk RB3LYP/6-31G(2df,p) Fr
 eq
 ----------------------------------------------------------------------

 Structure from the checkpoint file:  "/scratch/puck/g09_92348226-1e99-4831-a228-251548cc43f1/Gau-164310.chk"
 -----
 titel
 -----
 Charge =  0 Multiplicity = 1

                         Standard orientation:
 ---------------------------------------------------------------------
 Center     Atomic      Atomic             Coordinates (Angstroms)
 Number     Number       Type             X           Y           Z
 ---------------------------------------------------------------------
      1          6           0       -3.882491    0.464959    0.714247
      2          6           0       -2.873781   -0.154340   -0.256925
      3          6           0       -1.443224   -0.154272    0.294803
      4          6           0       -0.455524   -0.779685   -0.683171
      5          8           0        0.875960   -0.850721   -0.122678
      6          6           0        1.637548    0.246693   -0.262020
      7          8           0        1.301410    1.266761   -0.812091
      8          6           0        2.939503    0.044526    0.338459
      9          6           0        4.034261   -0.065238    0.820886
     10          1           0       -4.893353    0.456850    0.295468
     11          1           0       -3.908893   -0.084990    1.661325
     12          1           0       -3.623518    1.504471    0.942305
     13          1           0       -3.175411   -1.183900   -0.491446
     14          1           0       -2.896059    0.394177   -1.207413
     15          1           0       -1.126765    0.872871    0.507225
     16          1           0       -1.405419   -0.707229    1.241402
     17          1           0       -0.713907   -1.819456   -0.898713
     18          1           0       -0.416037   -0.213988   -1.617436
     19          1           0        5.002657   -0.162983    1.247761
 ---------------------------------------------------------------------

 SCF Done:  E(RB3LYP) =  -423.182578656     A.U. after    1 cycles

 The electronic state is 1-A.
 Alpha  occ. eigenvalues --  -19.18980 -19.13552 -10.32960 -10.24179 -10.20690
 Alpha  occ. eigenvalues --  -10.20281 -10.18850 -10.18682 -10.17753  -1.10933
 Alpha  occ. eigenvalues --   -1.02333  -0.80818  -0.77878  -0.73883  -0.67651
 Alpha  occ. eigenvalues --   -0.61663  -0.59014  -0.55135  -0.52737  -0.48228
 Alpha  occ. eigenvalues --   -0.47228  -0.46936  -0.43172  -0.42346  -0.39682
 Alpha  occ. eigenvalues --   -0.38552  -0.35902  -0.34911  -0.34063  -0.33248
 Alpha  occ. eigenvalues --   -0.30941  -0.30060  -0.29806  -0.27770
 Alpha virt. eigenvalues --   -0.03994   0.03290   0.08797   0.10867   0.11612
 Alpha virt. eigenvalues --    0.12095   0.12507   0.12943   0.13882   0.17053
 Alpha virt. eigenvalues --    0.17316   0.18766   0.19052   0.19479   0.22812

 Mulliken charges:
               1
     1  C   -0.379359
     2  C   -0.171255
     3  C   -0.179377
     4  C   -0.079058
     5  O   -0.235553
     6  C    0.294801
     7  O   -0.358466
     8  C    0.230566
     9  C   -0.365425
    10  H    0.114627
    11  H    0.116393
    12  H    0.120252
    13  H    0.097245
    14  H    0.104877
    15  H    0.122164
    16  H    0.105654
    17  H    0.115492
    18  H    0.133973
    19  H    0.212449
 Sum of Mulliken charges =   0.00000

 Dipole moment (field-independent basis, Debye):
    X=             -0.5046    Y=             -1.5101    Z=              0.7469  Tot=              1.7586
 Quadrupole moment (field-independent basis, Debye-Ang):
   XX=            -42.6679   YY=            -56.8774   ZZ=            -52.8708
   XY=             -1.4475   XZ=              4.6200   YZ=              2.1799

  Exact polarizability: 114.196  -0.467  64.387  11.680  -2.116  63.850
 Approx polarizability: 143.933  -3.602 105.836  24.199 -10.699  98.045

                      1                      2                      3
                      A                      A                      A
 Frequencies --     48.6490                58.2098                74.8980
 Red. masses --      5.2254                 4.5796                 1.7017
 Frc consts  --      0.0073                 0.0091                 0.0056
 IR Inten    --      2.4312                 0.2240                 0.2016

                      4                      5                      6
                      A                      A                      A
 Frequencies --    117.5683               166.3777               190.9419
 Red. masses --      2.4339                 3.9635                 3.6314
 Frc consts  --      0.0198                 0.0646                 0.0780
 IR Inten    --      0.5765                 3.4087                 1.2141

                      7                      8                      9
                      A                      A                      A
 Frequencies --    243.8407               278.8550               314.4836
 Red. masses --      1.1379                 4.3825                 3.5112
 Frc consts  --      0.0399                 0.2008                 0.2046
 IR Inten    --      0.3049                 1.0080                 8.9299

                     10                     11                     12
                      A                      A                      A
 Frequencies --    368.5356               431.4310               590.6136
 Red. masses --      4.6883                 3.3157                 6.5585
 Frc consts  --      0.3752                 0.3636                 1.3479
 IR Inten    --      3.0900                 2.7926                 6.7082

                     13                     14                     15
                      A                      A                      A
 Frequencies --    597.3015               656.3689               699.6885
 Red. masses --      7.0947                 1.2694                 1.3229
 Frc consts  --      1.4913                 0.3222                 0.3816
 IR Inten    --      2.3413                36.6670                22.2860

                     16                     17                     18
                      A                      A                      A
 Frequencies --    743.6920               776.0863               795.2140
 Red. masses --      1.0714                 7.7272                 1.2549
 Frc consts  --      0.3491                 2.7421                 0.4675
 IR Inten    --      4.3198                29.2400                 0.5572

                     19                     20                     21
                      A                      A                      A
 Frequencies --    872.7311               910.4735               959.5307
 Red. masses --      3.3618                 1.8170                 1.2835
 Frc consts  --      1.5086                 0.8874                 0.6963
 IR Inten    --     14.6931                 2.0142                 3.4868

                     22                     23                     24
                      A                      A                      A
 Frequencies --    996.1092              1040.4828              1064.6035
 Red. masses --      5.0710                 4.2481                 2.3727
 Frc consts  --      2.9645                 2.7096                 1.5844
 IR Inten    --     16.5278                20.8368                 2.6447

                     25                     26                     27
                      A                      A                      A
 Frequencies --   1133.6458              1201.0478              1244.2010
 Red. masses --      2.4179                 1.8847                 4.1770
 Frc consts  --      1.8308                 1.6018                 3.8098
 IR Inten    --     14.3775                 5.0575               564.5250

                     28                     29                     30
                      A                      A                      A
 Frequencies --   1269.1805              1298.2970              1329.1607
 Red. masses --      1.4011                 1.3864                 1.0629
 Frc consts  --      1.3297                 1.3768                 1.1064
 IR Inten    --     60.7795                30.3115                 0.8161

                     31                     32                     33
                      A                      A                      A
 Frequencies --   1335.4457              1387.2103              1412.4241
 Red. masses --      1.1471                 1.4687                 1.2676
 Frc consts  --      1.2054                 1.6652                 1.4899
 IR Inten    --     14.0408                 7.8205                 2.0588

                     34                     35                     36
                      A                      A                      A
 Frequencies --   1423.0658              1484.4471              1488.2958
 Red. masses --      1.3718                 1.0963                 1.0611
 Frc consts  --      1.6368                 1.4233                 1.3848
 IR Inten    --      1.8238                11.5070                 0.1026

                     37                     38                     39
                      A                      A                      A
 Frequencies --   1499.2241              1499.8802              1513.2040
 Red. masses --      1.0700                 1.0400                 1.0901
 Frc consts  --      1.4170                 1.3785                 1.4706
 IR Inten    --      0.8111                 5.3104                 4.4205

                     40                     41                     42
                      A                      A                      A
 Frequencies --   1787.8691              2237.3232              3015.3014
 Red. masses --     11.8916                 5.9115                 1.0592
 Frc consts  --     22.3955                17.4342                 5.6738
 IR Inten    --    220.2913                63.9582                18.7015

                     43                     44                     45
                      A                      A                      A
 Frequencies --   3031.5028              3035.2674              3045.4497
 Red. masses --      1.0420                 1.0570                 1.0959
 Frc consts  --      5.6420                 5.7376                 5.9885
 IR Inten    --     13.9093                28.6397                11.8468

                     46                     47                     48
                      A                      A                      A
 Frequencies --   3066.6700              3080.4263              3100.6127
 Red. masses --      1.0579                 1.1014                 1.1024
 Frc consts  --      5.8615                 6.1575                 6.2441
 IR Inten    --     33.8118                 8.4698                43.0864

                     49                     50                     51
                      A                      A                      A
 Frequencies --   3105.7509              3125.0886              3497.6247
 Red. masses --      1.1012                 1.1095                 1.1638
 Frc consts  --      6.2582                 6.3843                 8.3883
 IR Inten    --     35.8958                24.4349                58.3791

 - Thermochemistry -
 -------------------
 Temperature   298.150 Kelvin.  Pressure   1.00000 Atm.
 Atom     1 has atomic number  6 and mass  12.00000

 Molecular mass:   126.06808 amu.
 Principal axes and moments of inertia in atomic units:
                           1         2         3
     Eigenvalues --   371.908962937.153252979.15235
           X            0.99998  -0.00494  -0.00305
           Y            0.00554   0.96870   0.24818
           Z            0.00173  -0.24820   0.96871
 This molecule is an asymmetric top.
 Rotational symmetry number  1.
 Rotational temperatures (Kelvin)      0.23289     0.02949     0.02907
 Rotational constants (GHZ):           4.85264     0.61445     0.60579
 Zero-point vibrational energy     410584.1 (Joules/Mol)
                                   98.13196 (Kcal/Mol)
 Warning -- explicit consideration of  13 degrees of freedom as
           vibrations may cause significant error
 Vibrational temperatures:     69.99    83.75   107.76   169.15   239.38
          (Kelvin)            274.72   350.83   401.21   452.47   530.24
                              620.73   849.76   859.38   944.37  1006.69
                             1070.01  1116.61  1144.13  1255.66  1309.97
                             1380.55  1433.18  1497.02  1531.73  1631.06
                             1728.04  1790.13  1826.07  1867.96  1912.36
                             1921.41  1995.88  2032.16  2047.47  2135.79
                             2141.32  2157.05  2157.99  2177.16  2572.34
                             3219.01  4338.34  4361.65  4367.07  4381.72
                             4412.25  4432.04  4461.08  4468.48  4496.30
                             5032.30

 Zero-point correction=                           0.156383 (Hartree/Particle)
 Thermal correction to Energy=                    0.166742
 Thermal correction to Enthalpy=                  0.167687
 Thermal correction to Gibbs Free Energy=         0.119652
 Sum of electronic and zero-point Energies=           -423.026195
 Sum of electronic and thermal Energies=              -423.015836
 Sum of electronic and thermal Enthalpies=            -423.014892
 Sum of electronic and thermal Free Energies=         -423.062926

                     E (Thermal)             CV                S
                      KCal/Mol        Cal/Mol-Kelvin    Cal/Mol-Kelvin
 Total                  104.632             35.963            101.097
 Electronic               0.000              0.000              0.000
 Translational            0.889              2.981             40.409
 Rotational               0.889              2.981             29.566
 Vibrational            102.855             30.001             31.122
 Vibration     1          0.595              1.978              4.872
 Vibration     2          0.596              1.974              4.517
 Vibration     3          0.599              1.966              4.020
 Vibration     4          0.608              1.935              3.140
 Vibration     5          0.624              1.884              2.476
 Vibration     6          0.634              1.852              2.219
 Vibration     7          0.659              1.773              1.775
 Vibration     8          0.679              1.713              1.541
 Vibration     9          0.702              1.646              1.339
 Vibration    10          0.741              1.537              1.086
 Vibration    11          0.792              1.402              0.854
 Vibration    12          0.948              1.052              0.466
 Vibration    13          0.955              1.038              0.454

 Optimization completed.
    -- Stationary point found.
 Normal termination of Gaussian 09 at Tue Jan 28 15:05:21 2020.
