 Gaussian 09, Revision D.01,
 Gaussian 09:  ES64L-G09RevD.01 24-Apr-2013

 -----------------------------
 # b3lyp 6-31G(2df,p) opt Freq
 -----------------------------

 -----
 titel
 -----
 Symbolic Z-matrix:
 Charge =  0 Multiplicity = 1

 SCF Done:  E(RB3LYP) =  -423.155182968     A.U. after   14 cycles
 Optimization completed.
    -- Stationary point found.
 Normal termination of Gaussian 09 at Tue Jan 28 02:29:53 2020.

 ----------------------------------------------------------------------
 #N Geom=AllCheck Guess=TCheck SCRF=Check GenChk RB3LYP/6-31G(2df,p) Fr
 eq
 ----------------------------------------------------------------------

 Structure from the checkpoint file:  "/scratch/puck/g09_8144892f-06b6-41dd-98a1-2bc2277369f6/Gau-5136.chk"
 -----
 titel
 -----
 Charge =  0 Multiplicity = 1

                         Standard orientation:
 ---------------------------------------------------------------------
 Center     Atomic      Atomic             Coordinates (Angstroms)
 Number     Number       Type             X           Y           Z
 ---------------------------------------------------------------------
      1          6           0        2.236720   -1.103159    0.356785
      2          6           0        0.953376   -0.376612    0.051612
      3          6           0       -0.269010   -1.204206   -0.341753
      4          6           0       -1.421773   -0.176332   -0.413746
      5          8           0       -2.545273   -0.726969    0.266020
      6          6           0       -0.856158    1.061610    0.289049
      7          6           0        0.477726    1.589388   -0.203878
      8          8           0        1.138428    0.627887   -1.022215
      9          6           0        0.431668    0.726613    1.013269
     10          1           0        2.563627   -1.681090   -0.513577
     11          1           0        3.028434   -0.394523    0.613874
     12          1           0        2.096682   -1.793529    1.195292
     13          1           0       -0.110336   -1.733160   -1.285158
     14          1           0       -0.511205   -1.935145    0.437159
     15          1           0       -1.685504    0.049232   -1.455924
     16          1           0       -3.292374   -0.134796    0.134629
     17          1           0       -1.540383    1.784330    0.722341
     18          1           0        0.709838    2.636633   -0.359470
     19          1           0        0.680678    0.890905    2.052361
 ---------------------------------------------------------------------

 SCF Done:  E(RB3LYP) =  -423.155182968     A.U. after    1 cycles

 The electronic state is 1-A.
 Alpha  occ. eigenvalues --  -19.13303 -19.12821 -10.24056 -10.23605 -10.23136
 Alpha  occ. eigenvalues --  -10.18783 -10.18679 -10.17820 -10.17528  -1.04732
 Alpha  occ. eigenvalues --   -1.01371  -0.84103  -0.77835  -0.72798  -0.65134
 Alpha  occ. eigenvalues --   -0.60418  -0.57128  -0.52959  -0.50604  -0.49819
 Alpha  occ. eigenvalues --   -0.48949  -0.43943  -0.42438  -0.40276  -0.38971
 Alpha  occ. eigenvalues --   -0.37543  -0.37159  -0.36501  -0.34603  -0.31534
 Alpha  occ. eigenvalues --   -0.29934  -0.27993  -0.26163  -0.22370
 Alpha virt. eigenvalues --    0.07744   0.09124   0.10166   0.11259   0.12394
 Alpha virt. eigenvalues --    0.13666   0.14611   0.15664   0.16446   0.17612
 Alpha virt. eigenvalues --    0.17758   0.19034   0.19635   0.21653   0.22430

 Mulliken charges:
               1
     1  C   -0.479749
     2  C    0.410617
     3  C   -0.249521
     4  C    0.126249
     5  O   -0.441156
     6  C   -0.130282
     7  C    0.089317
     8  O   -0.342183
     9  C   -0.202889
    10  H    0.128246
    11  H    0.127185
    12  H    0.119863
    13  H    0.105404
    14  H    0.112927
    15  H    0.073169
    16  H    0.278730
    17  H    0.080255
    18  H    0.100402
    19  H    0.093416
 Sum of Mulliken charges =   0.00000

 Dipole moment (field-independent basis, Debye):
    X=             -0.5841    Y=              0.9377    Z=              0.8597  Tot=              1.3998
 Quadrupole moment (field-independent basis, Debye-Ang):
   XX=            -50.5465   YY=            -50.9977   ZZ=            -54.4345
   XY=             -5.2243   XZ=              3.5737   YZ=              1.7863

  Exact polarizability:  81.992  -3.617  75.709   0.939   0.411  63.858
 Approx polarizability: 110.641  -2.836 108.939  -2.507  -3.365 103.550

                      1                      2                      3
                      A                      A                      A
 Frequencies --    104.6233               213.1858               254.0340
 Red. masses --      3.1657                 1.0763                 2.4290
 Frc consts  --      0.0204                 0.0288                 0.0924
 IR Inten    --      1.3959                 0.4020                 7.8659

                      4                      5                      6
                      A                      A                      A
 Frequencies --    285.0659               289.1633               365.4047
 Red. masses --      2.0765                 1.3545                 2.7303
 Frc consts  --      0.0994                 0.0667                 0.2148
 IR Inten    --      5.2999                96.8987                 2.7305

                      7                      8                      9
                      A                      A                      A
 Frequencies --    384.7819               405.1875               556.5137
 Red. masses --      7.7760                 2.3281                 3.4360
 Frc consts  --      0.6783                 0.2252                 0.6270
 IR Inten    --      1.1611                 5.0868                 4.8780

                     10                     11                     12
                      A                      A                      A
 Frequencies --    596.4498               689.9152               728.3996
 Red. masses --      4.2761                 4.1917                 3.9073
 Frc consts  --      0.8963                 1.1755                 1.2214
 IR Inten    --     12.9452                 6.9842                 1.2473

                     13                     14                     15
                      A                      A                      A
 Frequencies --    784.2623               800.9453               818.4415
 Red. masses --      1.5584                 1.7668                 3.4142
 Frc consts  --      0.5647                 0.6678                 1.3475
 IR Inten    --      5.7008                11.9800                25.1085

                     16                     17                     18
                      A                      A                      A
 Frequencies --    858.9247               901.1640               929.7424
 Red. masses --      3.2228                 2.1761                 1.7518
 Frc consts  --      1.4009                 1.0412                 0.8922
 IR Inten    --      5.4758                 2.0747                 6.8114

                     19                     20                     21
                      A                      A                      A
 Frequencies --    967.2329               974.2832              1027.9735
 Red. masses --      1.5531                 2.0649                 3.1426
 Frc consts  --      0.8561                 1.1549                 1.9566
 IR Inten    --      4.9890                33.4221                 1.8717

                     22                     23                     24
                      A                      A                      A
 Frequencies --   1034.3815              1043.1883              1051.7834
 Red. masses --      2.4272                 1.9633                 1.9314
 Frc consts  --      1.5301                 1.2588                 1.2589
 IR Inten    --     34.6670                 5.5232                40.9786

                     25                     26                     27
                      A                      A                      A
 Frequencies --   1056.0371              1101.5326              1125.5706
 Red. masses --      2.2586                 1.4850                 2.0039
 Frc consts  --      1.4841                 1.0616                 1.4958
 IR Inten    --     26.9355                17.7717                23.8653

                     28                     29                     30
                      A                      A                      A
 Frequencies --   1192.5941              1206.4282              1223.1187
 Red. masses --      1.3852                 2.1272                 1.8188
 Frc consts  --      1.1608                 1.8242                 1.6032
 IR Inten    --     11.3705                 6.9153                 3.0127

                     31                     32                     33
                      A                      A                      A
 Frequencies --   1249.8275              1268.9389              1306.7339
 Red. masses --      1.9485                 1.2813                 1.5774
 Frc consts  --      1.7933                 1.2156                 1.5869
 IR Inten    --      5.1983                51.0105                 5.2913

                     34                     35                     36
                      A                      A                      A
 Frequencies --   1326.9355              1356.7945              1379.5472
 Red. masses --      1.7901                 1.9134                 2.1024
 Frc consts  --      1.8570                 2.0753                 2.3575
 IR Inten    --     40.3387                31.7763                 6.3565

                     37                     38                     39
                      A                      A                      A
 Frequencies --   1411.6403              1430.4898              1468.2280
 Red. masses --      1.4170                 1.5810                 1.1391
 Frc consts  --      1.6637                 1.9062                 1.4468
 IR Inten    --     10.3341                 7.3168                 2.1998

                     40                     41                     42
                      A                      A                      A
 Frequencies --   1482.1515              1492.0570              3005.2648
 Red. masses --      1.0582                 1.0492                 1.0845
 Frc consts  --      1.3696                 1.3762                 5.7707
 IR Inten    --      2.3590                 3.6365                49.2832

                     43                     44                     45
                      A                      A                      A
 Frequencies --   3037.2655              3052.7049              3105.7157
 Red. masses --      1.0358                 1.0593                 1.1021
 Frc consts  --      5.6295                 5.8160                 6.2633
 IR Inten    --     14.3661                19.4832                 1.7212

                     46                     47                     48
                      A                      A                      A
 Frequencies --   3110.9171              3119.4447              3164.7093
 Red. masses --      1.1032                 1.1016                 1.0892
 Frc consts  --      6.2902                 6.3159                 6.4275
 IR Inten    --     30.3452                15.9286                10.0086

                     49                     50                     51
                      A                      A                      A
 Frequencies --   3179.4845              3209.5025              3819.0886
 Red. masses --      1.0915                 1.0992                 1.0662
 Frc consts  --      6.5012                 6.6713                 9.1622
 IR Inten    --     30.9526                10.4356                19.3975

 - Thermochemistry -
 -------------------
 Temperature   298.150 Kelvin.  Pressure   1.00000 Atm.
 Atom     1 has atomic number  6 and mass  12.00000

 Molecular mass:   126.06808 amu.
 Principal axes and moments of inertia in atomic units:
                           1         2         3
     Eigenvalues --   607.720671142.522311410.89928
           X            0.99832  -0.05393   0.02138
           Y            0.05344   0.99831   0.02277
           Z           -0.02258  -0.02159   0.99951
 This molecule is an asymmetric top.
 Rotational symmetry number  1.
 Warning -- assumption of classical behavior for rotation
           may cause significant error
 Rotational temperatures (Kelvin)      0.14252     0.07581     0.06139
 Rotational constants (GHZ):           2.96969     1.57961     1.27914
 Zero-point vibrational energy     418380.6 (Joules/Mol)
                                   99.99536 (Kcal/Mol)
 Warning -- explicit consideration of  10 degrees of freedom as
           vibrations may cause significant error
 Vibrational temperatures:    150.53   306.73   365.50   410.15   416.04
          (Kelvin)            525.74   553.61   582.97   800.70   858.16
                              992.63  1048.00  1128.38  1152.38  1177.55
                             1235.80  1296.57  1337.69  1391.63  1401.77
                             1479.02  1488.24  1500.91  1513.28  1519.40
                             1584.86  1619.44  1715.87  1735.78  1759.79
                             1798.22  1825.72  1880.10  1909.16  1952.12
                             1984.86  2031.03  2058.15  2112.45  2132.48
                             2146.73  4323.90  4369.94  4392.16  4468.43
                             4475.91  4488.18  4553.31  4574.56  4617.75
                             5494.81

 Zero-point correction=                           0.159353 (Hartree/Particle)
 Thermal correction to Energy=                    0.167173
 Thermal correction to Enthalpy=                  0.168117
 Thermal correction to Gibbs Free Energy=         0.127442
 Sum of electronic and zero-point Energies=           -422.995830
 Sum of electronic and thermal Energies=              -422.988010
 Sum of electronic and thermal Enthalpies=            -422.987066
 Sum of electronic and thermal Free Energies=         -423.027741

                     E (Thermal)             CV                S
                      KCal/Mol        Cal/Mol-Kelvin    Cal/Mol-Kelvin
 Total                  104.903             31.555             85.609
 Electronic               0.000              0.000              0.000
 Translational            0.889              2.981             40.409
 Rotational               0.889              2.981             28.373
 Vibrational            103.125             25.593             16.827
 Vibration     1          0.605              1.946              3.366
 Vibration     2          0.644              1.821              2.016
 Vibration     3          0.665              1.756              1.702
 Vibration     4          0.683              1.701              1.503
 Vibration     5          0.686              1.694              1.479
 Vibration     6          0.739              1.543              1.099
 Vibration     7          0.754              1.503              1.020
 Vibration     8          0.770              1.459              0.944
 Vibration     9          0.912              1.125              0.531
 Vibration    10          0.954              1.039              0.456

 Optimization completed.
    -- Stationary point found.
 Normal termination of Gaussian 09 at Tue Jan 28 03:14:24 2020.
