 Gaussian 09, Revision D.01,
 Gaussian 09:  ES64L-G09RevD.01 24-Apr-2013

 -----------------------------
 # b3lyp 6-31G(2df,p) opt Freq
 -----------------------------

 -----
 titel
 -----
 Symbolic Z-matrix:
 Charge =  0 Multiplicity = 1

 SCF Done:  E(RB3LYP) =  -423.122938302     A.U. after   13 cycles
 Optimization completed.
    -- Stationary point found.
 Normal termination of Gaussian 09 at Mon Jan 27 12:07:50 2020.

 ----------------------------------------------------------------------
 #N Geom=AllCheck Guess=TCheck SCRF=Check GenChk RB3LYP/6-31G(2df,p) Fr
 eq
 ----------------------------------------------------------------------

 Structure from the checkpoint file:  "/scratch/puck/g09_71dabc54-8f3e-404c-a5ba-6ab4d1e29c1e/Gau-71567.chk"
 -----
 titel
 -----
 Charge =  0 Multiplicity = 1

                         Standard orientation:
 ---------------------------------------------------------------------
 Center     Atomic      Atomic             Coordinates (Angstroms)
 Number     Number       Type             X           Y           Z
 ---------------------------------------------------------------------
      1          6           0        2.730859    0.326874    0.009654
      2          6           0        2.265764   -1.096273   -0.138714
      3          6           0        1.323672   -0.047236    0.405553
      4          6           0        0.174856    0.414753   -0.434196
      5          8           0       -0.283168    1.761929   -0.119479
      6          6           0       -1.624030    1.320757    0.183657
      7          6           0       -1.220321   -0.120993   -0.088919
      8          6           0       -1.958587   -1.293503   -0.544267
      9          8           0       -1.457849   -1.191250    0.800000
     10          1           0        3.432337    0.562801    0.801575
     11          1           0        2.862297    0.917717   -0.890710
     12          1           0        2.087816   -1.470864   -1.141657
     13          1           0        2.641352   -1.842790    0.551284
     14          1           0        1.108574   -0.094135    1.468224
     15          1           0        0.429399    0.339550   -1.501918
     16          1           0       -1.912036    1.528982    1.221349
     17          1           0       -2.368918    1.751820   -0.497202
     18          1           0       -3.042616   -1.249771   -0.641759
     19          1           0       -1.463349   -2.035019   -1.169959
 ---------------------------------------------------------------------

 SCF Done:  E(RB3LYP) =  -423.122938302     A.U. after    1 cycles

 The electronic state is 1-A.
 Alpha  occ. eigenvalues --  -19.15922 -19.13369 -10.24691 -10.24058 -10.23694
 Alpha  occ. eigenvalues --  -10.23138 -10.19085 -10.18865 -10.18657  -1.08305
 Alpha  occ. eigenvalues --   -1.03415  -0.85916  -0.71948  -0.70637  -0.66792
 Alpha  occ. eigenvalues --   -0.60107  -0.59223  -0.54928  -0.51615  -0.50160
 Alpha  occ. eigenvalues --   -0.48592  -0.47459  -0.44080  -0.42526  -0.41508
 Alpha  occ. eigenvalues --   -0.37439  -0.36578  -0.35154  -0.33809  -0.31024
 Alpha  occ. eigenvalues --   -0.29789  -0.28477  -0.26670  -0.25097
 Alpha virt. eigenvalues --    0.06978   0.07705   0.09934   0.10989   0.11411
 Alpha virt. eigenvalues --    0.12390   0.13347   0.14129   0.15051   0.16270
 Alpha virt. eigenvalues --    0.16480   0.17811   0.20226   0.22359   0.22433

 Mulliken charges:
               1
     1  C   -0.274137
     2  C   -0.268082
     3  C    0.030171
     4  C    0.027380
     5  O   -0.300205
     6  C   -0.152455
     7  C    0.354859
     8  C   -0.258640
     9  O   -0.251309
    10  H    0.116826
    11  H    0.117550
    12  H    0.109853
    13  H    0.118220
    14  H    0.093881
    15  H    0.073707
    16  H    0.116935
    17  H    0.105569
    18  H    0.119681
    19  H    0.120195
 Sum of Mulliken charges =   0.00000

 Dipole moment (field-independent basis, Debye):
    X=             -0.4866    Y=             -0.8812    Z=             -1.2862  Tot=              1.6333
 Quadrupole moment (field-independent basis, Debye-Ang):
   XX=            -48.4625   YY=            -57.1113   ZZ=            -51.9929
   XY=             -1.6239   XZ=              2.8037   YZ=              2.7897

  Exact polarizability:  89.488  -1.106  74.763   0.693   3.810  63.779
 Approx polarizability: 111.465   0.496 109.401  -0.369   3.302 101.045

                      1                      2                      3
                      A                      A                      A
 Frequencies --     63.7299                77.9779               134.4394
 Red. masses --      2.9145                 3.2584                 3.3726
 Frc consts  --      0.0070                 0.0117                 0.0359
 IR Inten    --      0.4673                 2.8472                 2.2527

                      4                      5                      6
                      A                      A                      A
 Frequencies --    227.4281               270.4350               308.4042
 Red. masses --      3.3339                 3.1573                 2.6576
 Frc consts  --      0.1016                 0.1360                 0.1489
 IR Inten    --      4.3343                 1.1696                 1.6615

                      7                      8                      9
                      A                      A                      A
 Frequencies --    371.5692               436.4595               509.4373
 Red. masses --      2.8883                 3.6555                 3.3905
 Frc consts  --      0.2349                 0.4103                 0.5184
 IR Inten    --      2.1019                 5.7252                 4.4473

                     10                     11                     12
                      A                      A                      A
 Frequencies --    594.8334               766.8076               828.2286
 Red. masses --      5.5271                 1.1172                 1.3038
 Frc consts  --      1.1522                 0.3870                 0.5269
 IR Inten    --      3.4845                 0.6669                 2.7131

                     13                     14                     15
                      A                      A                      A
 Frequencies --    841.5754               856.1203               881.8638
 Red. masses --      2.4235                 1.8375                 3.0008
 Frc consts  --      1.0113                 0.7935                 1.3749
 IR Inten    --     22.1039                 6.0382                18.8476

                     16                     17                     18
                      A                      A                      A
 Frequencies --    901.1334               920.8667               951.9712
 Red. masses --      1.9169                 4.1128                 3.8889
 Frc consts  --      0.9171                 2.0548                 2.0765
 IR Inten    --     10.5466                15.6409                20.0722

                     19                     20                     21
                      A                      A                      A
 Frequencies --    966.7016              1007.3112              1040.1663
 Red. masses --      2.4795                 6.8411                 3.0798
 Frc consts  --      1.3652                 4.0898                 1.9633
 IR Inten    --      5.2913               143.6060                 7.4360

                     22                     23                     24
                      A                      A                      A
 Frequencies --   1062.3319              1071.0610              1079.6995
 Red. masses --      1.3376                 1.9595                 1.3645
 Frc consts  --      0.8894                 1.3244                 0.9372
 IR Inten    --     14.7130                13.3533                 1.6677

                     25                     26                     27
                      A                      A                      A
 Frequencies --   1123.6479              1129.4970              1148.0957
 Red. masses --      1.3022                 1.1359                 1.1318
 Frc consts  --      0.9687                 0.8538                 0.8790
 IR Inten    --      1.1068                 1.1879                 1.2342

                     28                     29                     30
                      A                      A                      A
 Frequencies --   1167.9321              1190.4133              1196.2885
 Red. masses --      1.4396                 2.4013                 1.3812
 Frc consts  --      1.1570                 2.0049                 1.1646
 IR Inten    --      0.8418                 4.7673                 0.9319

                     31                     32                     33
                      A                      A                      A
 Frequencies --   1208.3877              1226.9597              1266.4199
 Red. masses --      2.3858                 1.7646                 1.5374
 Frc consts  --      2.0525                 1.5652                 1.4528
 IR Inten    --      2.9842                 3.0139                 4.0578

                     34                     35                     36
                      A                      A                      A
 Frequencies --   1312.5130              1327.6244              1432.6827
 Red. masses --      1.3423                 1.3819                 1.6455
 Frc consts  --      1.3625                 1.4351                 1.9900
 IR Inten    --     11.2348                 2.9283                11.0492

                     37                     38                     39
                      A                      A                      A
 Frequencies --   1460.7862              1471.1071              1505.0910
 Red. masses --      1.7925                 1.0928                 1.3625
 Frc consts  --      2.2537                 1.3934                 1.8185
 IR Inten    --     12.4221                 0.7573                 1.1166

                     40                     41                     42
                      A                      A                      A
 Frequencies --   1513.8789              1544.1700              2992.0474
 Red. masses --      1.1322                 1.9648                 1.0827
 Frc consts  --      1.5288                 2.7603                 5.7106
 IR Inten    --      0.1232                10.8682                48.7109

                     43                     44                     45
                      A                      A                      A
 Frequencies --   3014.6130              3060.6174              3081.2905
 Red. masses --      1.0571                 1.1098                 1.0504
 Frc consts  --      5.6600                 6.1252                 5.8759
 IR Inten    --     53.5787                30.1479                24.8613

                     46                     47                     48
                      A                      A                      A
 Frequencies --   3133.0106              3137.7556              3162.9830
 Red. masses --      1.0515                 1.0583                 1.0894
 Frc consts  --      6.0809                 6.1387                 6.4213
 IR Inten    --     17.1731                11.4476                 5.2629

                     49                     50                     51
                      A                      A                      A
 Frequencies --   3168.3872              3212.1013              3227.0797
 Red. masses --      1.1194                 1.1173                 1.1150
 Frc consts  --      6.6210                 6.7917                 6.8415
 IR Inten    --     19.8435                 0.3039                17.0858

 - Thermochemistry -
 -------------------
 Temperature   298.150 Kelvin.  Pressure   1.00000 Atm.
 Atom     1 has atomic number  6 and mass  12.00000

 Molecular mass:   126.06808 amu.
 Principal axes and moments of inertia in atomic units:
                           1         2         3
     Eigenvalues --   640.442021381.933581808.96604
           X            0.99981  -0.01795   0.00785
           Y            0.01769   0.99934   0.03166
           Z           -0.00841  -0.03151   0.99947
 This molecule is an asymmetric top.
 Rotational symmetry number  1.
 Warning -- assumption of classical behavior for rotation
           may cause significant error
 Rotational temperatures (Kelvin)      0.13524     0.06268     0.04788
 Rotational constants (GHZ):           2.81796     1.30595     0.99766
 Zero-point vibrational energy     416216.3 (Joules/Mol)
                                   99.47808 (Kcal/Mol)
 Warning -- explicit consideration of  10 degrees of freedom as
           vibrations may cause significant error
 Vibrational temperatures:     91.69   112.19   193.43   327.22   389.10
          (Kelvin)            443.72   534.60   627.97   732.97   855.83
                             1103.26  1191.63  1210.84  1231.76  1268.80
                             1296.53  1324.92  1369.67  1390.87  1449.29
                             1496.57  1528.46  1541.02  1553.44  1616.68
                             1625.09  1651.85  1680.39  1712.74  1721.19
                             1738.60  1765.32  1822.09  1888.41  1910.15
                             2061.31  2101.74  2116.59  2165.49  2178.13
                             2221.71  4304.88  4337.35  4403.54  4433.28
                             4507.70  4514.52  4550.82  4558.60  4621.49
                             4643.04

 Zero-point correction=                           0.158528 (Hartree/Particle)
 Thermal correction to Energy=                    0.166901
 Thermal correction to Enthalpy=                  0.167845
 Thermal correction to Gibbs Free Energy=         0.124793
 Sum of electronic and zero-point Energies=           -422.964410
 Sum of electronic and thermal Energies=              -422.956038
 Sum of electronic and thermal Enthalpies=            -422.955093
 Sum of electronic and thermal Free Energies=         -422.998145

                     E (Thermal)             CV                S
                      KCal/Mol        Cal/Mol-Kelvin    Cal/Mol-Kelvin
 Total                  104.732             31.325             90.611
 Electronic               0.000              0.000              0.000
 Translational            0.889              2.981             40.409
 Rotational               0.889              2.981             28.861
 Vibrational            102.954             25.364             21.341
 Vibration     1          0.597              1.972              4.338
 Vibration     2          0.599              1.964              3.941
 Vibration     3          0.613              1.919              2.882
 Vibration     4          0.651              1.799              1.899
 Vibration     5          0.674              1.728              1.593
 Vibration     6          0.698              1.658              1.371
 Vibration     7          0.743              1.531              1.073
 Vibration     8          0.797              1.391              0.838
 Vibration     9          0.865              1.229              0.635
 Vibration    10          0.953              1.043              0.459

 Optimization completed.
    -- Stationary point found.
 Normal termination of Gaussian 09 at Mon Jan 27 12:48:39 2020.
