 Gaussian 09, Revision D.01,
 Gaussian 09:  ES64L-G09RevD.01 24-Apr-2013

 -----------------------------
 # b3lyp 6-31G(2df,p) opt Freq
 -----------------------------

 -----
 titel
 -----
 Symbolic Z-matrix:
 Charge =  0 Multiplicity = 1

 SCF Done:  E(RB3LYP) =  -423.144791454     A.U. after   13 cycles
 Optimization completed.
    -- Stationary point found.
 Normal termination of Gaussian 09 at Mon Jan 27 22:58:33 2020.

 ----------------------------------------------------------------------
 #N Geom=AllCheck Guess=TCheck SCRF=Check GenChk RB3LYP/6-31G(2df,p) Fr
 eq
 ----------------------------------------------------------------------

 Structure from the checkpoint file:  "/scratch/puck/g09_d75de32b-f842-4282-8262-4adac5cf82ae/Gau-65329.chk"
 -----
 titel
 -----
 Charge =  0 Multiplicity = 1

                         Standard orientation:
 ---------------------------------------------------------------------
 Center     Atomic      Atomic             Coordinates (Angstroms)
 Number     Number       Type             X           Y           Z
 ---------------------------------------------------------------------
      1          6           0        2.221707    0.062986   -0.752616
      2          6           0        0.871560   -0.187359   -0.123819
      3          6           0        0.648540   -1.072549    1.163342
      4          6           0       -0.720672   -0.304357    1.223696
      5          6           0       -1.364871   -0.874330   -0.052225
      6          8           0       -1.435634    0.019141   -1.190862
      7          6           0       -0.251830   -0.793727   -0.996470
      8          6           0        0.114377    0.913195    0.702917
      9          8           0       -0.442621    2.049250    0.130929
     10          1           0        2.620023   -0.837507   -1.234406
     11          1           0        2.151478    0.846998   -1.514384
     12          1           0        2.949895    0.391300   -0.004026
     13          1           0        0.600558   -2.154363    1.017924
     14          1           0        1.329047   -0.831277    1.983756
     15          1           0       -1.325092   -0.251219    2.127925
     16          1           0       -2.114809   -1.657266   -0.031589
     17          1           0       -0.043471   -1.505499   -1.788846
     18          1           0        0.772182    1.261421    1.504225
     19          1           0       -1.026641    1.727126   -0.570066
 ---------------------------------------------------------------------

 SCF Done:  E(RB3LYP) =  -423.144791454     A.U. after    1 cycles

 The electronic state is 1-A.
 Alpha  occ. eigenvalues --  -19.16348 -19.11963 -10.24177 -10.24009 -10.23219
 Alpha  occ. eigenvalues --  -10.20378 -10.19822 -10.19601 -10.17999  -1.08016
 Alpha  occ. eigenvalues --   -1.00815  -0.87438  -0.74421  -0.68282  -0.65932
 Alpha  occ. eigenvalues --   -0.64627  -0.58237  -0.56353  -0.51199  -0.49314
 Alpha  occ. eigenvalues --   -0.45342  -0.43789  -0.42783  -0.41018  -0.39398
 Alpha  occ. eigenvalues --   -0.38948  -0.38010  -0.35823  -0.35701  -0.32750
 Alpha  occ. eigenvalues --   -0.31681  -0.29150  -0.25818  -0.24708
 Alpha virt. eigenvalues --    0.07366   0.08394   0.09661   0.11272   0.12979
 Alpha virt. eigenvalues --    0.13436   0.14352   0.15769   0.16160   0.16868
 Alpha virt. eigenvalues --    0.17496   0.18257   0.20217   0.20523   0.21469

 Mulliken charges:
               1
     1  C   -0.511467
     2  C    0.227225
     3  C   -0.264352
     4  C   -0.151133
     5  C    0.041398
     6  O   -0.287137
     7  C    0.006242
     8  C    0.155319
     9  O   -0.447400
    10  H    0.114042
    11  H    0.132801
    12  H    0.118439
    13  H    0.099290
    14  H    0.103408
    15  H    0.069831
    16  H    0.109223
    17  H    0.105606
    18  H    0.085290
    19  H    0.293376
 Sum of Mulliken charges =   0.00000

 Dipole moment (field-independent basis, Debye):
    X=              0.8144    Y=             -2.7124    Z=              0.4708  Tot=              2.8709
 Quadrupole moment (field-independent basis, Debye-Ang):
   XX=            -52.4605   YY=            -56.5179   ZZ=            -52.2290
   XY=              1.6447   XZ=             -1.2735   YZ=             -0.0016

  Exact polarizability:  77.281   1.203  70.369  -1.225  -0.156  72.730
 Approx polarizability: 111.885  -2.033 107.840   0.918  -2.703 111.590

                      1                      2                      3
                      A                      A                      A
 Frequencies --    182.5617               216.4451               244.5635
 Red. masses --      1.3438                 1.9161                 3.4603
 Frc consts  --      0.0264                 0.0529                 0.1219
 IR Inten    --      0.7717                 0.8234                 0.2898

                      4                      5                      6
                      A                      A                      A
 Frequencies --    316.6239               328.0138               429.1406
 Red. masses --      3.7623                 3.8827                 3.1626
 Frc consts  --      0.2222                 0.2461                 0.3432
 IR Inten    --      2.0950                 3.1616                 8.5850

                      7                      8                      9
                      A                      A                      A
 Frequencies --    479.5115               501.4051               588.5232
 Red. masses --      2.8952                 3.3177                 3.1120
 Frc consts  --      0.3922                 0.4914                 0.6351
 IR Inten    --      0.1360                 5.0341                 5.0903

                     10                     11                     12
                      A                      A                      A
 Frequencies --    644.9942               669.9584               746.4758
 Red. masses --      1.1905                 5.0350                 4.3254
 Frc consts  --      0.2918                 1.3315                 1.4201
 IR Inten    --     62.5312                 4.3224                 5.3537

                     13                     14                     15
                      A                      A                      A
 Frequencies --    786.9620               797.5637               827.9403
 Red. masses --      3.4758                 2.9962                 3.5078
 Frc consts  --      1.2683                 1.1229                 1.4167
 IR Inten    --      3.7111                 4.0521                 3.3833

                     16                     17                     18
                      A                      A                      A
 Frequencies --    843.3369               891.0809               896.4565
 Red. masses --      1.9884                 2.7930                 2.5454
 Frc consts  --      0.8332                 1.3067                 1.2052
 IR Inten    --      6.4050                32.9180                21.8712

                     19                     20                     21
                      A                      A                      A
 Frequencies --    918.2616               954.2925               985.3988
 Red. masses --      2.5254                 2.2439                 1.5583
 Frc consts  --      1.2546                 1.2040                 0.8915
 IR Inten    --      1.9920                 4.2660                11.5640

                     22                     23                     24
                      A                      A                      A
 Frequencies --   1012.5552              1070.1037              1081.1047
 Red. masses --      1.4962                 1.1795                 1.3473
 Frc consts  --      0.9038                 0.7958                 0.9278
 IR Inten    --      8.2142                 2.8231                 0.1785

                     25                     26                     27
                      A                      A                      A
 Frequencies --   1115.0267              1139.4069              1172.4002
 Red. masses --      1.5640                 1.7808                 2.4156
 Frc consts  --      1.1456                 1.3621                 1.9562
 IR Inten    --      5.2659                16.9374               109.1650

                     28                     29                     30
                      A                      A                      A
 Frequencies --   1182.5196              1211.3853              1231.9783
 Red. masses --      1.8357                 1.4568                 2.2627
 Frc consts  --      1.5124                 1.2595                 2.0234
 IR Inten    --      1.5107                42.6315                22.6232

                     31                     32                     33
                      A                      A                      A
 Frequencies --   1247.9520              1263.7369              1281.1731
 Red. masses --      1.6811                 1.7521                 1.7219
 Frc consts  --      1.5426                 1.6486                 1.6653
 IR Inten    --      8.0473                 4.0061                 2.4404

                     34                     35                     36
                      A                      A                      A
 Frequencies --   1330.4029              1337.6249              1413.6203
 Red. masses --      1.6065                 1.8596                 1.3283
 Frc consts  --      1.6753                 1.9603                 1.5639
 IR Inten    --     45.4911                 7.3430                 3.5178

                     37                     38                     39
                      A                      A                      A
 Frequencies --   1419.4380              1480.6228              1490.4685
 Red. masses --      2.6244                 1.1440                 1.0495
 Frc consts  --      3.1154                 1.4776                 1.3737
 IR Inten    --      9.3148                42.6589                 3.5762

                     40                     41                     42
                      A                      A                      A
 Frequencies --   1493.9734              1514.5392              3026.2016
 Red. masses --      1.0493                 1.1547                 1.0360
 Frc consts  --      1.3798                 1.5606                 5.5902
 IR Inten    --      8.3884                40.8683                28.2227

                     43                     44                     45
                      A                      A                      A
 Frequencies --   3061.0525              3073.8864              3089.7508
 Red. masses --      1.0594                 1.0832                 1.1002
 Frc consts  --      5.8488                 6.0302                 6.1881
 IR Inten    --     22.8015                35.8187                18.8849

                     46                     47                     48
                      A                      A                      A
 Frequencies --   3100.2557              3123.0061              3128.9767
 Red. masses --      1.1011                 1.1091                 1.0905
 Frc consts  --      6.2355                 6.3733                 6.2903
 IR Inten    --     17.9460                27.5948                39.0264

                     49                     50                     51
                      A                      A                      A
 Frequencies --   3165.8513              3182.6612              3728.5067
 Red. masses --      1.0889                 1.0965                 1.0637
 Frc consts  --      6.4300                 6.5437                 8.7123
 IR Inten    --     14.9588                20.1711               100.2957

 - Thermochemistry -
 -------------------
 Temperature   298.150 Kelvin.  Pressure   1.00000 Atm.
 Atom     1 has atomic number  6 and mass  12.00000

 Molecular mass:   126.06808 amu.
 Principal axes and moments of inertia in atomic units:
                           1         2         3
     Eigenvalues --   810.26249 965.687421054.78685
           X            0.99782   0.02658  -0.06043
           Y           -0.02920   0.99865  -0.04300
           Z            0.05921   0.04467   0.99725
 This molecule is an asymmetric top.
 Rotational symmetry number  1.
 Warning -- assumption of classical behavior for rotation
           may cause significant error
 Rotational temperatures (Kelvin)      0.10690     0.08969     0.08211
 Rotational constants (GHZ):           2.22735     1.86887     1.71100
 Zero-point vibrational energy     421203.3 (Joules/Mol)
                                  100.67000 (Kcal/Mol)
 Warning -- explicit consideration of   9 degrees of freedom as
           vibrations may cause significant error
 Vibrational temperatures:    262.67   311.42   351.87   455.55   471.94
          (Kelvin)            617.44   689.91   721.41   846.75   928.00
                              963.92  1074.01  1132.26  1147.51  1191.22
                             1213.37  1282.07  1289.80  1321.17  1373.01
                             1417.77  1456.84  1539.64  1555.47  1604.27
                             1639.35  1686.82  1701.38  1742.91  1772.54
                             1795.52  1818.23  1843.32  1914.15  1924.54
                             2033.88  2042.25  2130.28  2144.45  2149.49
                             2179.08  4354.02  4404.17  4422.63  4445.46
                             4460.57  4493.30  4501.89  4554.95  4579.13
                             5364.48

 Zero-point correction=                           0.160428 (Hartree/Particle)
 Thermal correction to Energy=                    0.167771
 Thermal correction to Enthalpy=                  0.168715
 Thermal correction to Gibbs Free Energy=         0.129237
 Sum of electronic and zero-point Energies=           -422.984364
 Sum of electronic and thermal Energies=              -422.977021
 Sum of electronic and thermal Enthalpies=            -422.976077
 Sum of electronic and thermal Free Energies=         -423.015555

                     E (Thermal)             CV                S
                      KCal/Mol        Cal/Mol-Kelvin    Cal/Mol-Kelvin
 Total                  105.278             30.656             83.089
 Electronic               0.000              0.000              0.000
 Translational            0.889              2.981             40.409
 Rotational               0.889              2.981             28.203
 Vibrational            103.500             24.694             14.477
 Vibration     1          0.630              1.864              2.302
 Vibration     2          0.645              1.816              1.989
 Vibration     3          0.660              1.772              1.769
 Vibration     4          0.704              1.642              1.327
 Vibration     5          0.711              1.620              1.270
 Vibration     6          0.790              1.407              0.861
 Vibration     7          0.836              1.296              0.711
 Vibration     8          0.857              1.247              0.655
 Vibration     9          0.946              1.056              0.470

 Optimization completed.
    -- Stationary point found.
 Normal termination of Gaussian 09 at Mon Jan 27 23:46:03 2020.
