 Gaussian 09, Revision D.01,
 Gaussian 09:  ES64L-G09RevD.01 24-Apr-2013

 -----------------------------
 # b3lyp 6-31G(2df,p) opt Freq
 -----------------------------

 -----
 titel
 -----
 Symbolic Z-matrix:
 Charge =  0 Multiplicity = 1

 SCF Done:  E(RB3LYP) =  -423.134665181     A.U. after   14 cycles
 SCF Done:  E(RB3LYP) =  -423.134665114     A.U. after    8 cycles
 SCF Done:  E(RB3LYP) =  -423.134665440     A.U. after    7 cycles
 SCF Done:  E(RB3LYP) =  -423.134665399     A.U. after    8 cycles
 SCF Done:  E(RB3LYP) =  -423.134665608     A.U. after    7 cycles
 SCF Done:  E(RB3LYP) =  -423.134665769     A.U. after    8 cycles
 SCF Done:  E(RB3LYP) =  -423.134665920     A.U. after    9 cycles
 SCF Done:  E(RB3LYP) =  -423.134666017     A.U. after    8 cycles
 SCF Done:  E(RB3LYP) =  -423.134666160     A.U. after    9 cycles
 SCF Done:  E(RB3LYP) =  -423.134666181     A.U. after    7 cycles
 SCF Done:  E(RB3LYP) =  -423.134666193     A.U. after    6 cycles
 Optimization completed.
    -- Stationary point found.
 Normal termination of Gaussian 09 at Tue Jan 28 08:49:26 2020.

 ----------------------------------------------------------------------
 #N Geom=AllCheck Guess=TCheck SCRF=Check GenChk RB3LYP/6-31G(2df,p) Fr
 eq
 ----------------------------------------------------------------------

 Structure from the checkpoint file:  "/scratch/puck/g09_4c5bfffe-2033-47d1-9534-b0f66a14e138/Gau-102033.chk"
 -----
 titel
 -----
 Charge =  0 Multiplicity = 1

                         Standard orientation:
 ---------------------------------------------------------------------
 Center     Atomic      Atomic             Coordinates (Angstroms)
 Number     Number       Type             X           Y           Z
 ---------------------------------------------------------------------
      1          6           0        1.390160    1.575696    0.349972
      2          6           0        1.851330    0.180898   -0.005264
      3          6           0        3.183603    0.087262   -0.717061
      4          8           0        1.643756   -0.808244    1.009487
      5          6           0        0.864253   -0.913347   -0.198315
      6          6           0       -0.557143   -0.724008   -0.104285
      7          6           0       -1.756259   -0.602444   -0.063459
      8          6           0       -3.203286   -0.410027    0.022456
      9          8           0       -3.623079    0.914281   -0.273919
     10          1           0        0.418230    1.550509    0.844927
     11          1           0        2.113254    2.048484    1.023144
     12          1           0        1.310902    2.196742   -0.548483
     13          1           0        3.972888    0.530436   -0.100098
     14          1           0        3.449227   -0.954193   -0.913404
     15          1           0        3.156608    0.629684   -1.667887
     16          1           0        1.166938   -1.741387   -0.840298
     17          1           0       -3.708853   -1.052446   -0.706990
     18          1           0       -3.549697   -0.729120    1.018529
     19          1           0       -3.130859    1.508810    0.301748
 ---------------------------------------------------------------------

 SCF Done:  E(RB3LYP) =  -423.134666193     A.U. after    1 cycles

 The electronic state is 1-A.
 Alpha  occ. eigenvalues --  -19.15129 -19.14445 -10.25611 -10.25536 -10.25158
 Alpha  occ. eigenvalues --  -10.18672 -10.18627 -10.18427 -10.18338  -1.07274
 Alpha  occ. eigenvalues --   -1.02624  -0.77937  -0.77225  -0.72036  -0.70370
 Alpha  occ. eigenvalues --   -0.65921  -0.57492  -0.53481  -0.51090  -0.48442
 Alpha  occ. eigenvalues --   -0.47352  -0.44891  -0.44722  -0.42072  -0.40419
 Alpha  occ. eigenvalues --   -0.39377  -0.37582  -0.36636  -0.35830  -0.32300
 Alpha  occ. eigenvalues --   -0.29155  -0.27558  -0.26412  -0.25299
 Alpha virt. eigenvalues --    0.01539   0.03038   0.08230   0.10135   0.11071
 Alpha virt. eigenvalues --    0.12658   0.13280   0.15140   0.15448   0.16760
 Alpha virt. eigenvalues --    0.17760   0.18615   0.18972   0.19761   0.21151

 Mulliken charges:
               1
     1  C   -0.454799
     2  C    0.410784
     3  C   -0.452351
     4  O   -0.279890
     5  C   -0.239705
     6  C    0.043118
     7  C    0.148925
     8  C   -0.202001
     9  O   -0.399598
    10  H    0.130561
    11  H    0.125960
    12  H    0.123718
    13  H    0.128276
    14  H    0.128992
    15  H    0.124976
    16  H    0.107316
    17  H    0.144064
    18  H    0.123754
    19  H    0.287901
 Sum of Mulliken charges =   0.00000

 Dipole moment (field-independent basis, Debye):
    X=              0.8188    Y=              0.7133    Z=             -0.5105  Tot=              1.1999
 Quadrupole moment (field-independent basis, Debye-Ang):
   XX=            -53.7393   YY=            -50.9963   ZZ=            -54.9094
   XY=              4.2107   XZ=             -6.5701   YZ=              3.8695

  Exact polarizability: 118.999   3.680  71.177  -1.905   2.737  58.730
 Approx polarizability: 163.536   1.133 101.722   3.048   1.290  91.934

                      1                      2                      3
                      A                      A                      A
 Frequencies --     18.2904                65.7826                93.1489
 Red. masses --      2.8197                 4.5859                 2.8704
 Frc consts  --      0.0006                 0.0117                 0.0147
 IR Inten    --      3.2720                 0.2436                 3.2111

                      4                      5                      6
                      A                      A                      A
 Frequencies --    166.7939               179.0345               207.4561
 Red. masses --      1.3107                 1.9877                 1.2744
 Frc consts  --      0.0215                 0.0375                 0.0323
 IR Inten    --      0.3711                 0.8246                 6.7933

                      7                      8                      9
                      A                      A                      A
 Frequencies --    248.3544               302.7128               326.8427
 Red. masses --      2.1648                 1.5604                 3.0199
 Frc consts  --      0.0787                 0.0842                 0.1901
 IR Inten    --     12.7913                75.7040                 6.5585

                     10                     11                     12
                      A                      A                      A
 Frequencies --    368.9499               375.2766               404.3301
 Red. masses --      2.6637                 3.0596                 3.2318
 Frc consts  --      0.2136                 0.2539                 0.3113
 IR Inten    --     21.7743                14.4833                 7.1960

                     13                     14                     15
                      A                      A                      A
 Frequencies --    462.4843               560.0166               601.6675
 Red. masses --      3.6446                 5.9005                 7.1937
 Frc consts  --      0.4593                 1.0903                 1.5343
 IR Inten    --      5.9042                12.9968                 9.8838

                     16                     17                     18
                      A                      A                      A
 Frequencies --    705.6925               795.5964               844.7535
 Red. masses --      4.6716                 4.1249                 3.8805
 Frc consts  --      1.3707                 1.5383                 1.6315
 IR Inten    --      5.9866                19.2129                 5.8644

                     19                     20                     21
                      A                      A                      A
 Frequencies --    906.6139               950.1873               982.4076
 Red. masses --      4.0206                 1.4385                 1.5843
 Frc consts  --      1.9471                 0.7652                 0.9009
 IR Inten    --     20.1710                 0.7856                32.0306

                     22                     23                     24
                      A                      A                      A
 Frequencies --   1005.5588              1044.2859              1054.7274
 Red. masses --      1.3832                 3.0705                 1.9822
 Frc consts  --      0.8240                 1.9728                 1.2992
 IR Inten    --      2.3011                51.7016                30.3627

                     25                     26                     27
                      A                      A                      A
 Frequencies --   1094.0496              1148.5912              1187.5930
 Red. masses --      1.6604                 2.0438                 3.3938
 Frc consts  --      1.1710                 1.5886                 2.8202
 IR Inten    --      7.3897                14.2668                42.6121

                     28                     29                     30
                      A                      A                      A
 Frequencies --   1214.3697              1262.6675              1333.7161
 Red. masses --      1.0873                 2.4050                 1.4595
 Frc consts  --      0.9447                 2.2592                 1.5296
 IR Inten    --     14.1693                26.4502                29.9586

                     31                     32                     33
                      A                      A                      A
 Frequencies --   1359.3739              1409.3373              1416.9411
 Red. masses --      1.2218                 1.3738                 1.2326
 Frc consts  --      1.3303                 1.6077                 1.4581
 IR Inten    --      5.4432                 6.2464                80.9315

                     34                     35                     36
                      A                      A                      A
 Frequencies --   1419.2650              1432.9623              1473.7922
 Red. masses --      1.2433                 2.4615                 1.0455
 Frc consts  --      1.4756                 2.9780                 1.3379
 IR Inten    --     17.3151                18.9319                 0.3881

                     37                     38                     39
                      A                      A                      A
 Frequencies --   1482.8640              1487.4920              1497.0695
 Red. masses --      1.0506                 1.0774                 1.0580
 Frc consts  --      1.3611                 1.4045                 1.3971
 IR Inten    --      2.5468                 0.6456                 9.8300

                     40                     41                     42
                      A                      A                      A
 Frequencies --   1508.3292              2352.6530              2978.0971
 Red. masses --      1.2222                11.8747                 1.0710
 Frc consts  --      1.6382                38.7248                 5.5968
 IR Inten    --      0.3818                 0.9493                46.2990

                     43                     44                     45
                      A                      A                      A
 Frequencies --   3035.5168              3041.3067              3064.9862
 Red. masses --      1.0362                 1.0371                 1.0885
 Frc consts  --      5.6256                 5.6520                 6.0249
 IR Inten    --     13.5068                25.5331                15.9365

                     46                     47                     48
                      A                      A                      A
 Frequencies --   3098.7505              3099.8428              3103.8944
 Red. masses --      1.0994                 1.0868                 1.1001
 Frc consts  --      6.2197                 6.1530                 6.2446
 IR Inten    --      0.8348                16.5816                33.4623

                     49                     50                     51
                      A                      A                      A
 Frequencies --   3125.5600              3141.4104              3817.0693
 Red. masses --      1.1014                 1.0997                 1.0663
 Frc consts  --      6.3393                 6.3942                 9.1534
 IR Inten    --     18.2076                14.5901                17.5388

 - Thermochemistry -
 -------------------
 Temperature   298.150 Kelvin.  Pressure   1.00000 Atm.
 Atom     1 has atomic number  6 and mass  12.00000

 Molecular mass:   126.06808 amu.
 Principal axes and moments of inertia in atomic units:
                           1         2         3
     Eigenvalues --   465.513132598.582222824.83712
           X            0.99978   0.01512  -0.01423
           Y           -0.01427   0.99821   0.05812
           Z            0.01508  -0.05790   0.99821
 This molecule is an asymmetric top.
 Rotational symmetry number  1.
 Warning -- assumption of classical behavior for rotation
           may cause significant error
 Rotational temperatures (Kelvin)      0.18606     0.03333     0.03066
 Rotational constants (GHZ):           3.87689     0.69451     0.63888
 Zero-point vibrational energy     408276.3 (Joules/Mol)
                                   97.58037 (Kcal/Mol)
 Warning -- explicit consideration of  15 degrees of freedom as
           vibrations may cause significant error
 Vibrational temperatures:     26.32    94.65   134.02   239.98   257.59
          (Kelvin)            298.48   357.33   435.54   470.25   530.84
                              539.94   581.74   665.41   805.74   865.66
                             1015.33  1144.68  1215.41  1304.41  1367.11
                             1413.46  1446.77  1502.49  1517.52  1574.09
                             1652.56  1708.68  1747.20  1816.69  1918.92
                             1955.83  2027.72  2038.66  2042.00  2061.71
                             2120.46  2133.51  2140.17  2153.95  2170.15
                             3384.94  4284.81  4367.43  4375.76  4409.83
                             4458.41  4459.98  4465.81  4496.98  4519.78
                             5491.90

 Zero-point correction=                           0.155504 (Hartree/Particle)
 Thermal correction to Energy=                    0.166072
 Thermal correction to Enthalpy=                  0.167016
 Thermal correction to Gibbs Free Energy=         0.118315
 Sum of electronic and zero-point Energies=           -422.979162
 Sum of electronic and thermal Energies=              -422.968595
 Sum of electronic and thermal Enthalpies=            -422.967650
 Sum of electronic and thermal Free Energies=         -423.016351

                     E (Thermal)             CV                S
                      KCal/Mol        Cal/Mol-Kelvin    Cal/Mol-Kelvin
 Total                  104.212             37.055            102.499
 Electronic               0.000              0.000              0.000
 Translational            0.889              2.981             40.409
 Rotational               0.889              2.981             29.615
 Vibrational            102.434             31.093             32.476
 Vibration     1          0.593              1.986              6.812
 Vibration     2          0.597              1.971              4.276
 Vibration     3          0.602              1.954              3.593
 Vibration     4          0.624              1.883              2.471
 Vibration     5          0.629              1.868              2.338
 Vibration     6          0.641              1.829              2.066
 Vibration     7          0.662              1.766              1.742
 Vibration     8          0.694              1.669              1.402
 Vibration     9          0.711              1.622              1.276
 Vibration    10          0.741              1.536              1.084
 Vibration    11          0.746              1.523              1.058
 Vibration    12          0.770              1.461              0.947
 Vibration    13          0.820              1.333              0.759
 Vibration    14          0.916              1.118              0.524
 Vibration    15          0.960              1.028              0.447

 Optimization completed.
    -- Stationary point found.
 Normal termination of Gaussian 09 at Tue Jan 28 09:22:35 2020.
