 Gaussian 09, Revision D.01,
 Gaussian 09:  ES64L-G09RevD.01 24-Apr-2013

 -----------------------------
 # b3lyp 6-31G(2df,p) opt Freq
 -----------------------------

 -----
 titel
 -----
 Symbolic Z-matrix:
 Charge =  0 Multiplicity = 1

 SCF Done:  E(RB3LYP) =  -423.195776681     A.U. after   14 cycles
 Optimization completed.
    -- Stationary point found.
 Normal termination of Gaussian 09 at Mon Jan 27 13:23:43 2020.

 ----------------------------------------------------------------------
 #N Geom=AllCheck Guess=TCheck SCRF=Check GenChk RB3LYP/6-31G(2df,p) Fr
 eq
 ----------------------------------------------------------------------

 Structure from the checkpoint file:  "/scratch/puck/g09_65faaf2f-8779-43dd-9841-1873b62fd7e2/Gau-155474.chk"
 -----
 titel
 -----
 Charge =  0 Multiplicity = 1

                         Standard orientation:
 ---------------------------------------------------------------------
 Center     Atomic      Atomic             Coordinates (Angstroms)
 Number     Number       Type             X           Y           Z
 ---------------------------------------------------------------------
      1          8           0       -3.321302   -0.009196   -0.222272
      2          6           0       -2.270993   -0.155732    0.346591
      3          6           0       -0.903676    0.030997   -0.275081
      4          6           0       -0.178075    1.214861    0.399924
      5          6           0        1.169551    1.487725   -0.282156
      6          6           0        2.022877    0.244004   -0.371029
      7          8           0        2.103876   -0.549441    0.816627
      8          6           0        1.407200   -1.092083   -0.314085
      9          6           0       -0.090596   -1.278452   -0.150084
     10          1           0       -2.237489   -0.446359    1.424974
     11          1           0       -1.061979    0.269254   -1.332797
     12          1           0       -0.803921    2.111554    0.349353
     13          1           0       -0.011458    0.990957    1.459316
     14          1           0        1.007717    1.869063   -1.299050
     15          1           0        1.716189    2.266991    0.262061
     16          1           0        2.971197    0.355718   -0.898561
     17          1           0        1.931797   -1.922541   -0.787010
     18          1           0       -0.448407   -1.999689   -0.892399
     19          1           0       -0.261963   -1.733776    0.834784
 ---------------------------------------------------------------------

 SCF Done:  E(RB3LYP) =  -423.195776681     A.U. after    1 cycles

 The electronic state is 1-A.
 Alpha  occ. eigenvalues --  -19.15223 -19.14087 -10.27040 -10.24315 -10.24217
 Alpha  occ. eigenvalues --  -10.20294 -10.20184 -10.19775 -10.19727  -1.07416
 Alpha  occ. eigenvalues --   -1.04776  -0.83248  -0.76897  -0.71724  -0.65137
 Alpha  occ. eigenvalues --   -0.62137  -0.58033  -0.55364  -0.52496  -0.46929
 Alpha  occ. eigenvalues --   -0.46469  -0.45987  -0.44891  -0.42450  -0.40752
 Alpha  occ. eigenvalues --   -0.39691  -0.38624  -0.37827  -0.35500  -0.33952
 Alpha  occ. eigenvalues --   -0.33676  -0.29378  -0.27235  -0.24909
 Alpha virt. eigenvalues --   -0.02329   0.08366   0.08771   0.11030   0.11592
 Alpha virt. eigenvalues --    0.11960   0.12425   0.14711   0.15488   0.16243
 Alpha virt. eigenvalues --    0.16569   0.17671   0.18873   0.19771   0.22045

 Mulliken charges:
               1
     1  O   -0.248033
     2  C    0.147548
     3  C   -0.059985
     4  C   -0.225682
     5  C   -0.250111
     6  C    0.070406
     7  O   -0.255283
     8  C    0.035870
     9  C   -0.250976
    10  H    0.072253
    11  H    0.091350
    12  H    0.110745
    13  H    0.121127
    14  H    0.108640
    15  H    0.112670
    16  H    0.089667
    17  H    0.095130
    18  H    0.115586
    19  H    0.119077
 Sum of Mulliken charges =   0.00000

 Dipole moment (field-independent basis, Debye):
    X=              1.9186    Y=              0.2314    Z=             -0.7983  Tot=              2.0909
 Quadrupole moment (field-independent basis, Debye-Ang):
   XX=            -66.7315   YY=            -49.7024   ZZ=            -53.3098
   XY=              1.8593   XZ=             -6.1546   YZ=              1.0910

  Exact polarizability:  87.856   2.332  74.263  -1.268  -0.608  64.487
 Approx polarizability: 119.258   2.582 106.376   6.581  -3.011 106.986

                      1                      2                      3
                      A                      A                      A
 Frequencies --     59.6297                81.4833               190.9951
 Red. masses --      4.7662                 4.1135                 2.4363
 Frc consts  --      0.0100                 0.0161                 0.0524
 IR Inten    --      6.9488                 4.2355                 1.8608

                      4                      5                      6
                      A                      A                      A
 Frequencies --    292.6620               312.5520               336.5579
 Red. masses --      2.1416                 5.2585                 2.6227
 Frc consts  --      0.1081                 0.3027                 0.1750
 IR Inten    --      0.6452                 1.2005                 2.7646

                      7                      8                      9
                      A                      A                      A
 Frequencies --    372.3519               414.2800               538.2521
 Red. masses --      1.8669                 3.8256                 4.0614
 Frc consts  --      0.1525                 0.3868                 0.6933
 IR Inten    --      5.9233                 3.7141                11.5947

                     10                     11                     12
                      A                      A                      A
 Frequencies --    560.7171               665.5266               780.2147
 Red. masses --      3.5637                 2.4032                 3.5331
 Frc consts  --      0.6601                 0.6271                 1.2672
 IR Inten    --      3.2115                 2.0055                 9.3544

                     13                     14                     15
                      A                      A                      A
 Frequencies --    802.7505               839.7272               891.0036
 Red. masses --      2.8832                 1.9234                 2.2576
 Frc consts  --      1.0947                 0.7991                 1.0560
 IR Inten    --     13.3579                 6.3256                 5.4323

                     16                     17                     18
                      A                      A                      A
 Frequencies --    901.3747               921.0025               982.3937
 Red. masses --      2.4213                 3.2494                 1.9958
 Frc consts  --      1.1591                 1.6239                 1.1348
 IR Inten    --      8.6368                16.3544                11.2209

                     19                     20                     21
                      A                      A                      A
 Frequencies --   1026.0792              1041.5995              1063.4735
 Red. masses --      1.9342                 1.9223                 2.1329
 Frc consts  --      1.1998                 1.2288                 1.4213
 IR Inten    --      8.0793                 3.3674                 1.8091

                     22                     23                     24
                      A                      A                      A
 Frequencies --   1070.1092              1098.9176              1137.1466
 Red. masses --      1.3855                 2.3433                 2.1682
 Frc consts  --      0.9348                 1.6673                 1.6519
 IR Inten    --      0.8694                25.8887                 7.1361

                     25                     26                     27
                      A                      A                      A
 Frequencies --   1167.5315              1197.6333              1231.2860
 Red. masses --      1.5458                 1.3514                 1.2849
 Frc consts  --      1.2415                 1.1420                 1.1477
 IR Inten    --      1.5193                 2.0832                 5.6402

                     28                     29                     30
                      A                      A                      A
 Frequencies --   1273.2641              1290.7293              1299.1615
 Red. masses --      1.3986                 1.2946                 1.2592
 Frc consts  --      1.3359                 1.2707                 1.2522
 IR Inten    --      5.0955                 2.5660                 2.2070

                     31                     32                     33
                      A                      A                      A
 Frequencies --   1333.7132              1370.1340              1373.8705
 Red. masses --      1.2942                 1.3878                 1.4201
 Frc consts  --      1.3564                 1.5349                 1.5793
 IR Inten    --      0.4179                 1.9501                 1.5323

                     34                     35                     36
                      A                      A                      A
 Frequencies --   1378.0498              1394.0374              1428.6590
 Red. masses --      1.5240                 1.4362                 1.1950
 Frc consts  --      1.7052                 1.6444                 1.4371
 IR Inten    --      0.2156                 4.1009                 3.2317

                     37                     38                     39
                      A                      A                      A
 Frequencies --   1464.0331              1476.1718              1486.9210
 Red. masses --      1.5113                 1.1318                 1.3868
 Frc consts  --      1.9086                 1.4531                 1.8065
 IR Inten    --      8.4451                 8.4388                 2.9572

                     40                     41                     42
                      A                      A                      A
 Frequencies --   1490.0055              1835.3201              2839.4966
 Red. masses --      1.2186                10.4084                 1.0810
 Frc consts  --      1.5940                20.6566                 5.1350
 IR Inten    --      8.6494               202.0197                98.1338

                     43                     44                     45
                      A                      A                      A
 Frequencies --   3020.7963              3023.7149              3042.4720
 Red. masses --      1.0644                 1.0607                 1.0643
 Frc consts  --      5.7225                 5.7140                 5.8045
 IR Inten    --     21.1895                18.9876                11.3797

                     46                     47                     48
                      A                      A                      A
 Frequencies --   3050.0642              3063.4990              3074.6357
 Red. masses --      1.0820                 1.0976                 1.0967
 Frc consts  --      5.9308                 6.0691                 6.1082
 IR Inten    --      9.1117                27.3496                14.0689

                     49                     50                     51
                      A                      A                      A
 Frequencies --   3091.2358              3097.0916              3110.8025
 Red. masses --      1.1040                 1.0856                 1.0918
 Frc consts  --      6.2158                 6.1354                 6.2251
 IR Inten    --     30.0059                26.3331                61.4371

 - Thermochemistry -
 -------------------
 Temperature   298.150 Kelvin.  Pressure   1.00000 Atm.
 Atom     1 has atomic number  8 and mass  15.99491

 Molecular mass:   126.06808 amu.
 Principal axes and moments of inertia in atomic units:
                           1         2         3
     Eigenvalues --   499.348751653.442891935.14557
           X            0.99979   0.01098  -0.01705
           Y           -0.01080   0.99989   0.01020
           Z            0.01716  -0.01001   0.99980
 This molecule is an asymmetric top.
 Rotational symmetry number  1.
 Warning -- assumption of classical behavior for rotation
           may cause significant error
 Rotational temperatures (Kelvin)      0.17345     0.05238     0.04476
 Rotational constants (GHZ):           3.61419     1.09151     0.93261
 Zero-point vibrational energy     420398.4 (Joules/Mol)
                                  100.47764 (Kcal/Mol)
 Warning -- explicit consideration of  10 degrees of freedom as
           vibrations may cause significant error
 Vibrational temperatures:     85.79   117.24   274.80   421.07   449.69
          (Kelvin)            484.23   535.73   596.06   774.42   806.75
                              957.54  1122.55  1154.98  1208.18  1281.95
                             1296.88  1325.12  1413.44  1476.30  1498.63
                             1530.10  1539.65  1581.10  1636.10  1679.82
                             1723.13  1771.54  1831.94  1857.07  1869.20
                             1918.91  1971.31  1976.69  1982.70  2005.71
                             2055.52  2106.41  2123.88  2139.34  2143.78
                             2640.61  4085.40  4346.25  4350.45  4377.43
                             4388.36  4407.69  4423.71  4447.59  4456.02
                             4475.75

 Zero-point correction=                           0.160121 (Hartree/Particle)
 Thermal correction to Energy=                    0.168220
 Thermal correction to Enthalpy=                  0.169164
 Thermal correction to Gibbs Free Energy=         0.126785
 Sum of electronic and zero-point Energies=           -423.035655
 Sum of electronic and thermal Energies=              -423.027557
 Sum of electronic and thermal Enthalpies=            -423.026613
 Sum of electronic and thermal Free Energies=         -423.068992

                     E (Thermal)             CV                S
                      KCal/Mol        Cal/Mol-Kelvin    Cal/Mol-Kelvin
 Total                  105.559             30.577             89.194
 Electronic               0.000              0.000              0.000
 Translational            0.889              2.981             40.409
 Rotational               0.889              2.981             28.859
 Vibrational            103.782             24.615             19.926
 Vibration     1          0.597              1.974              4.469
 Vibration     2          0.600              1.962              3.855
 Vibration     3          0.634              1.852              2.218
 Vibration     4          0.688              1.687              1.459
 Vibration     5          0.701              1.650              1.349
 Vibration     6          0.717              1.602              1.228
 Vibration     7          0.744              1.529              1.070
 Vibration     8          0.778              1.439              0.912
 Vibration     9          0.893              1.165              0.569
 Vibration    10          0.916              1.116              0.522

 Optimization completed.
    -- Stationary point found.
 Normal termination of Gaussian 09 at Mon Jan 27 14:09:57 2020.
