 Gaussian 09, Revision D.01,
 Gaussian 09:  ES64L-G09RevD.01 24-Apr-2013

 -----------------------------
 # b3lyp 6-31G(2df,p) opt Freq
 -----------------------------

 -----
 titel
 -----
 Symbolic Z-matrix:
 Charge =  0 Multiplicity = 1

 SCF Done:  E(RB3LYP) =  -423.163721791     A.U. after   14 cycles
 SCF Done:  E(RB3LYP) =  -423.163721797     A.U. after    7 cycles
 SCF Done:  E(RB3LYP) =  -423.163721736     A.U. after    7 cycles
 Optimization completed.
    -- Stationary point found.
 Normal termination of Gaussian 09 at Tue Jan 28 14:29:59 2020.

 ----------------------------------------------------------------------
 #N Geom=AllCheck Guess=TCheck SCRF=Check GenChk RB3LYP/6-31G(2df,p) Fr
 eq
 ----------------------------------------------------------------------

 Structure from the checkpoint file:  "/scratch/puck/g09_3f22bfb4-c695-44c4-a26c-0b357c8ea580/Gau-147900.chk"
 -----
 titel
 -----
 Charge =  0 Multiplicity = 1

                         Standard orientation:
 ---------------------------------------------------------------------
 Center     Atomic      Atomic             Coordinates (Angstroms)
 Number     Number       Type             X           Y           Z
 ---------------------------------------------------------------------
      1          6           0       -4.311073    0.612445    0.004229
      2          8           0       -3.294820   -0.363561   -0.000631
      3          6           0       -2.001619    0.190448    0.000975
      4          6           0       -1.007824   -0.977482   -0.005020
      5          6           0        0.377468   -0.536533   -0.004160
      6          6           0        1.515317   -0.132032   -0.002965
      7          6           0        2.884675    0.346780    0.000015
      8          6           0        3.950874   -0.730507    0.006699
      9          8           0        3.145697    1.531389   -0.003409
     10          1           0       -5.268309    0.086091    0.002454
     11          1           0       -4.257430    1.252268    0.898826
     12          1           0       -4.258434    1.260113   -0.884762
     13          1           0       -1.840199    0.827147   -0.883623
     14          1           0       -1.838992    0.819138    0.891074
     15          1           0       -1.200837   -1.610840    0.869462
     16          1           0       -1.201896   -1.602597   -0.885197
     17          1           0        3.838602   -1.376379   -0.870826
     18          1           0        4.938757   -0.267553    0.006933
     19          1           0        3.834815   -1.368731    0.889340
 ---------------------------------------------------------------------

 SCF Done:  E(RB3LYP) =  -423.163721736     A.U. after    1 cycles

 The electronic state is 1-A.
 Alpha  occ. eigenvalues --  -19.14997 -19.13039 -10.28601 -10.24203 -10.23129
 Alpha  occ. eigenvalues --  -10.21976 -10.20465 -10.19021 -10.18609  -1.04405
 Alpha  occ. eigenvalues --   -1.04073  -0.81425  -0.76853  -0.73305  -0.69127
 Alpha  occ. eigenvalues --   -0.63157  -0.60722  -0.51081  -0.49776  -0.48059
 Alpha  occ. eigenvalues --   -0.47070  -0.44580  -0.44166  -0.43931  -0.43540
 Alpha  occ. eigenvalues --   -0.39912  -0.38805  -0.38144  -0.36473  -0.32954
 Alpha  occ. eigenvalues --   -0.27853  -0.27810  -0.26516  -0.25476
 Alpha virt. eigenvalues --   -0.04614   0.03809   0.08390   0.09291   0.11017
 Alpha virt. eigenvalues --    0.11518   0.13477   0.13956   0.15089   0.16296
 Alpha virt. eigenvalues --    0.16876   0.17251   0.18173   0.19160   0.21079

 Mulliken charges:
               1
     1  C   -0.232047
     2  O   -0.227941
     3  C   -0.044352
     4  C   -0.362217
     5  C    0.025750
     6  C    0.058306
     7  C    0.249134
     8  C   -0.476988
     9  O   -0.277729
    10  H    0.130864
    11  H    0.109002
    12  H    0.109019
    13  H    0.104024
    14  H    0.103952
    15  H    0.149037
    16  H    0.149114
    17  H    0.145496
    18  H    0.142064
    19  H    0.145512
 Sum of Mulliken charges =   0.00000

 Dipole moment (field-independent basis, Debye):
    X=             -1.7272    Y=             -1.8610    Z=              0.0125  Tot=              2.5390
 Quadrupole moment (field-independent basis, Debye-Ang):
   XX=            -49.7141   YY=            -56.6291   ZZ=            -52.2393
   XY=            -11.4433   XZ=              0.0179   YZ=              0.0135

  Exact polarizability: 126.221   7.097  72.382   0.044  -0.014  56.837
 Approx polarizability: 159.278  28.119 118.994   0.065  -0.030  84.683

                      1                      2                      3
                      A                      A                      A
 Frequencies --     12.5977                54.2033                69.6126
 Red. masses --      2.7940                 4.8885                 2.2096
 Frc consts  --      0.0003                 0.0085                 0.0063
 IR Inten    --      3.2416                 2.9486                 1.5860

                      4                      5                      6
                      A                      A                      A
 Frequencies --    103.5908               120.3471               143.7125
 Red. masses --      2.6745                 1.0715                 3.9218
 Frc consts  --      0.0169                 0.0091                 0.0477
 IR Inten    --      2.4508                 0.0759                 0.9004

                      7                      8                      9
                      A                      A                      A
 Frequencies --    161.4119               233.8559               256.4047
 Red. masses --      3.0915                 1.2818                 4.1459
 Frc consts  --      0.0475                 0.0413                 0.1606
 IR Inten    --      1.4080                 3.3875                 3.3826

                     10                     11                     12
                      A                      A                      A
 Frequencies --    362.1775               394.5252               449.6059
 Red. masses --      5.3292                 3.7533                 3.5471
 Frc consts  --      0.4119                 0.3442                 0.4225
 IR Inten    --      1.7411                 2.4772                 5.2583

                     13                     14                     15
                      A                      A                      A
 Frequencies --    486.8494               603.3358               614.2331
 Red. masses --      3.7000                 2.6188                 8.1234
 Frc consts  --      0.5167                 0.5617                 1.8057
 IR Inten    --      7.2993                 2.2531                 8.4777

                     16                     17                     18
                      A                      A                      A
 Frequencies --    689.9508               789.3004               959.3514
 Red. masses --      3.8202                 1.1855                 2.6617
 Frc consts  --      1.0715                 0.4351                 1.4433
 IR Inten    --     15.0123                 0.4129                44.9013

                     19                     20                     21
                      A                      A                      A
 Frequencies --    991.1438              1042.5222              1043.5775
 Red. masses --      3.7151                 1.8472                 3.2498
 Frc consts  --      2.1503                 1.1829                 2.0852
 IR Inten    --     33.0680                 5.0174                 0.4982

                     22                     23                     24
                      A                      A                      A
 Frequencies --   1063.4805              1081.5285              1164.2391
 Red. masses --      2.4403                 1.5567                 5.0554
 Frc consts  --      1.6261                 1.0728                 4.0373
 IR Inten    --      8.6442                 1.3562               187.0471

                     25                     26                     27
                      A                      A                      A
 Frequencies --   1181.8308              1226.9193              1229.9343
 Red. masses --      1.2422                 1.6882                 1.2538
 Frc consts  --      1.0222                 1.4973                 1.1175
 IR Inten    --      1.6084                28.6277                 5.3826

                     28                     29                     30
                      A                      A                      A
 Frequencies --   1246.7935              1298.6713              1310.8931
 Red. masses --      3.2757                 1.0820                 1.6267
 Frc consts  --      3.0002                 1.0752                 1.6470
 IR Inten    --    212.5483                 0.4716                31.5686

                     31                     32                     33
                      A                      A                      A
 Frequencies --   1380.2602              1419.5886              1460.8073
 Red. masses --      1.3153                 1.3675                 1.0542
 Frc consts  --      1.4763                 1.6237                 1.3254
 IR Inten    --     37.8049                22.2341                11.6483

                     34                     35                     36
                      A                      A                      A
 Frequencies --   1463.9421              1468.7269              1482.7134
 Red. masses --      1.0810                 1.0475                 1.1576
 Frc consts  --      1.3649                 1.3314                 1.4994
 IR Inten    --      4.3307                 7.0036                 0.7959

                     37                     38                     39
                      A                      A                      A
 Frequencies --   1486.8338              1504.3576              1531.5784
 Red. masses --      1.0459                 1.0606                 1.0940
 Frc consts  --      1.3623                 1.4142                 1.5120
 IR Inten    --      5.4457                 9.3401                 1.7575

                     40                     41                     42
                      A                      A                      A
 Frequencies --   1767.4051              2332.3829              2967.0633
 Red. masses --     11.0608                11.9380                 1.0475
 Frc consts  --     20.3568                38.2632                 5.4330
 IR Inten    --    196.5671               145.4250                27.0948

                     43                     44                     45
                      A                      A                      A
 Frequencies --   2979.1034              3002.1302              3021.1356
 Red. masses --      1.0433                 1.1061                 1.1036
 Frc consts  --      5.4554                 5.8735                 5.9347
 IR Inten    --     64.0262                49.8702                49.1247

                     46                     47                     48
                      A                      A                      A
 Frequencies --   3033.7403              3039.1101              3070.5065
 Red. masses --      1.0582                 1.0355                 1.1019
 Frc consts  --      5.7384                 5.6348                 6.1211
 IR Inten    --      9.6171                 1.6787                10.6843

                     49                     50                     51
                      A                      A                      A
 Frequencies --   3103.2815              3118.6418              3151.3547
 Red. masses --      1.0986                 1.0964                 1.1030
 Frc consts  --      6.2336                 6.2826                 6.4537
 IR Inten    --      5.9721                29.1210                10.7455

 - Thermochemistry -
 -------------------
 Temperature   298.150 Kelvin.  Pressure   1.00000 Atm.
 Atom     1 has atomic number  6 and mass  12.00000

 Molecular mass:   126.06808 amu.
 Principal axes and moments of inertia in atomic units:
                           1         2         3
     Eigenvalues --   310.505693808.609524074.08513
           X            0.99975  -0.02232   0.00003
           Y            0.02232   0.99975   0.00008
           Z           -0.00003  -0.00008   1.00000
 This molecule is an asymmetric top.
 Rotational symmetry number  1.
 Rotational temperatures (Kelvin)      0.27894     0.02274     0.02126
 Rotational constants (GHZ):           5.81226     0.47386     0.44298
 Zero-point vibrational energy     407754.7 (Joules/Mol)
                                   97.45571 (Kcal/Mol)
 Warning -- explicit consideration of  15 degrees of freedom as
           vibrations may cause significant error
 Vibrational temperatures:     18.13    77.99   100.16   149.04   173.15
          (Kelvin)            206.77   232.24   336.47   368.91   521.09
                              567.63   646.88   700.47   868.06   883.74
                              992.68  1135.63  1380.29  1426.03  1499.96
                             1501.47  1530.11  1556.08  1675.08  1700.39
                             1765.26  1769.60  1793.86  1868.50  1886.08
                             1985.88  2042.47  2101.77  2106.28  2113.17
                             2133.29  2139.22  2164.43  2203.60  2542.90
                             3355.77  4268.94  4286.26  4319.39  4346.73
                             4364.87  4372.60  4417.77  4464.92  4487.02
                             4534.09

 Zero-point correction=                           0.155306 (Hartree/Particle)
 Thermal correction to Energy=                    0.166389
 Thermal correction to Enthalpy=                  0.167333
 Thermal correction to Gibbs Free Energy=         0.116059
 Sum of electronic and zero-point Energies=           -423.008416
 Sum of electronic and thermal Energies=              -422.997333
 Sum of electronic and thermal Enthalpies=            -422.996389
 Sum of electronic and thermal Free Energies=         -423.047663

                     E (Thermal)             CV                S
                      KCal/Mol        Cal/Mol-Kelvin    Cal/Mol-Kelvin
 Total                  104.411             36.500            107.916
 Electronic               0.000              0.000              0.000
 Translational            0.889              2.981             40.409
 Rotational               0.889              2.981             29.956
 Vibrational            102.633             30.538             37.552
 Vibration     1          0.593              1.987              7.552
 Vibration     2          0.596              1.976              4.658
 Vibration     3          0.598              1.969              4.164
 Vibration     4          0.605              1.946              3.386
 Vibration     5          0.609              1.932              3.095
 Vibration     6          0.616              1.909              2.754
 Vibration     7          0.622              1.890              2.533
 Vibration     8          0.654              1.789              1.849
 Vibration     9          0.666              1.752              1.686
 Vibration    10          0.736              1.550              1.113
 Vibration    11          0.761              1.482              0.983
 Vibration    12          0.809              1.362              0.797
 Vibration    13          0.843              1.279              0.692
 Vibration    14          0.962              1.025              0.444
 Vibration    15          0.974              1.002              0.426

 Normal termination of Gaussian 09 at Tue Jan 28 14:55:44 2020.
