 Gaussian 09, Revision D.01,
 Gaussian 09:  ES64L-G09RevD.01 24-Apr-2013

 -----------------------------
 # b3lyp 6-31G(2df,p) opt Freq
 -----------------------------

 -----
 titel
 -----
 Symbolic Z-matrix:
 Charge =  0 Multiplicity = 1

 SCF Done:  E(RB3LYP) =  -423.193453018     A.U. after   14 cycles
 Optimization completed.
    -- Stationary point found.
 Normal termination of Gaussian 09 at Mon Jan 27 16:33:49 2020.

 ----------------------------------------------------------------------
 #N Geom=AllCheck Guess=TCheck SCRF=Check GenChk RB3LYP/6-31G(2df,p) Fr
 eq
 ----------------------------------------------------------------------

 Structure from the checkpoint file:  "/scratch/puck/g09_3a8480d5-89d7-45b3-8f24-1c787d5734cb/Gau-57785.chk"
 -----
 titel
 -----
 Charge =  0 Multiplicity = 1

                         Standard orientation:
 ---------------------------------------------------------------------
 Center     Atomic      Atomic             Coordinates (Angstroms)
 Number     Number       Type             X           Y           Z
 ---------------------------------------------------------------------
      1          6           0        0.818021    1.587921   -0.000815
      2          6           0        0.543623    0.080818    0.000146
      3          6           0       -0.309526   -0.366626   -1.235659
      4          6           0       -1.735277   -0.451427   -0.732464
      5          8           0       -2.164032    0.705629   -0.000653
      6          6           0       -1.735449   -0.450469    0.732807
      7          6           0       -0.309818   -0.364961    1.236212
      8          6           0        1.848305   -0.700995    0.000651
      9          8           0        2.952008   -0.224460   -0.000154
     10          1           0       -0.123532    2.138939   -0.000923
     11          1           0        1.400795    1.873804    0.879405
     12          1           0        1.400356    1.872829   -0.881637
     13          1           0       -0.189857    0.328867   -2.071345
     14          1           0       -0.007797   -1.360861   -1.592640
     15          1           0       -2.504123   -0.936846   -1.328597
     16          1           0       -2.504415   -0.935104    1.329422
     17          1           0       -0.190487    0.331674    2.071009
     18          1           0       -0.008122   -1.358663    1.594723
     19          1           0        1.704099   -1.809553    0.001769
 ---------------------------------------------------------------------

 SCF Done:  E(RB3LYP) =  -423.193453018     A.U. after    1 cycles

 The electronic state is 1-A.
 Alpha  occ. eigenvalues --  -19.15688 -19.14288 -10.27045 -10.24443 -10.24409
 Alpha  occ. eigenvalues --  -10.21111 -10.20172 -10.20171 -10.17080  -1.07943
 Alpha  occ. eigenvalues --   -1.05047  -0.83917  -0.73744  -0.72680  -0.66402
 Alpha  occ. eigenvalues --   -0.61477  -0.58774  -0.55076  -0.52419  -0.46480
 Alpha  occ. eigenvalues --   -0.46039  -0.45463  -0.44958  -0.41891  -0.41233
 Alpha  occ. eigenvalues --   -0.38801  -0.37624  -0.37121  -0.36430  -0.34806
 Alpha  occ. eigenvalues --   -0.33261  -0.30204  -0.27228  -0.25212
 Alpha virt. eigenvalues --   -0.02288   0.09202   0.09895   0.11043   0.11506
 Alpha virt. eigenvalues --    0.12581   0.12822   0.14467   0.14719   0.15298
 Alpha virt. eigenvalues --    0.16471   0.17177   0.17973   0.20710   0.20860

 Mulliken charges:
               1
     1  C   -0.441463
     2  C    0.208779
     3  C   -0.300622
     4  C    0.052392
     5  O   -0.250293
     6  C    0.052406
     7  C   -0.300637
     8  C    0.124136
     9  O   -0.248196
    10  H    0.137213
    11  H    0.121531
    12  H    0.121539
    13  H    0.123723
    14  H    0.104598
    15  H    0.099197
    16  H    0.099199
    17  H    0.123709
    18  H    0.104587
    19  H    0.068202
 Sum of Mulliken charges =   0.00000

 Dipole moment (field-independent basis, Debye):
    X=             -1.8819    Y=             -2.0009    Z=              0.0020  Tot=              2.7468
 Quadrupole moment (field-independent basis, Debye-Ang):
   XX=            -65.2152   YY=            -52.6366   ZZ=            -49.5775
   XY=              3.4288   XZ=             -0.0006   YZ=              0.0021

  Exact polarizability:  84.287   3.770  69.497  -0.004   0.000  70.531
 Approx polarizability: 120.345   4.172 107.254  -0.007  -0.004 107.755

                      1                      2                      3
                      A                      A                      A
 Frequencies --     75.2383               125.9861               224.7266
 Red. masses --      4.7962                 3.5336                 1.1675
 Frc consts  --      0.0160                 0.0330                 0.0347
 IR Inten    --      5.3503                 3.6003                 0.3237

                      4                      5                      6
                      A                      A                      A
 Frequencies --    262.5369               277.6186               347.5271
 Red. masses --      2.1963                 3.4402                 7.9891
 Frc consts  --      0.0892                 0.1562                 0.5685
 IR Inten    --      0.2758                 6.8762                 2.9462

                      7                      8                      9
                      A                      A                      A
 Frequencies --    352.8694               388.8659               398.5249
 Red. masses --      1.7391                 1.9189                 2.0894
 Frc consts  --      0.1276                 0.1710                 0.1955
 IR Inten    --      0.8816                 0.9717                 0.0007

                     10                     11                     12
                      A                      A                      A
 Frequencies --    496.9451               671.7254               727.3565
 Red. masses --      4.7276                 5.6279                 3.5313
 Frc consts  --      0.6879                 1.4962                 1.1007
 IR Inten    --     11.4018                 2.6642                 8.1001

                     13                     14                     15
                      A                      A                      A
 Frequencies --    781.1304               804.9857               865.2685
 Red. masses --      3.8564                 3.9969                 2.5032
 Frc consts  --      1.3864                 1.5260                 1.1042
 IR Inten    --      0.7509                 2.3207                25.1962

                     16                     17                     18
                      A                      A                      A
 Frequencies --    877.2085               916.9564               932.9917
 Red. masses --      2.0898                 3.0418                 1.5353
 Frc consts  --      0.9474                 1.5069                 0.7874
 IR Inten    --      5.9914                 2.6321                 0.7082

                     19                     20                     21
                      A                      A                      A
 Frequencies --    950.5893               991.6735               993.6282
 Red. masses --      2.0021                 2.5819                 1.9052
 Frc consts  --      1.0659                 1.4960                 1.1082
 IR Inten    --     27.0477                22.4848                 7.7530

                     22                     23                     24
                      A                      A                      A
 Frequencies --   1035.3178              1035.8631              1102.0380
 Red. masses --      1.6894                 1.3133                 1.2880
 Frc consts  --      1.0669                 0.8303                 0.9217
 IR Inten    --      0.0002                 8.0653                 0.0001

                     25                     26                     27
                      A                      A                      A
 Frequencies --   1151.7425              1164.6528              1173.4374
 Red. masses --      2.3634                 1.8050                 1.9187
 Frc consts  --      1.8471                 1.4425                 1.5566
 IR Inten    --      1.8069                 0.5667                 5.2067

                     28                     29                     30
                      A                      A                      A
 Frequencies --   1219.9273              1264.0315              1307.5640
 Red. masses --      1.3423                 1.4445                 1.5561
 Frc consts  --      1.1770                 1.3598                 1.5675
 IR Inten    --      0.0318                 5.5355                 1.6206

                     31                     32                     33
                      A                      A                      A
 Frequencies --   1308.3107              1328.5703              1340.6145
 Red. masses --      2.0489                 1.3244                 1.7805
 Frc consts  --      2.0663                 1.3773                 1.8854
 IR Inten    --     10.3933                 0.3324                 1.1900

                     34                     35                     36
                      A                      A                      A
 Frequencies --   1401.3951              1428.3962              1449.8449
 Red. masses --      1.2431                 1.2733                 2.5433
 Frc consts  --      1.4384                 1.5307                 3.1499
 IR Inten    --      6.0992                10.7029                14.6023

                     37                     38                     39
                      A                      A                      A
 Frequencies --   1470.5833              1477.5383              1493.5869
 Red. masses --      1.0883                 1.0932                 1.0716
 Frc consts  --      1.3867                 1.4061                 1.4085
 IR Inten    --      6.2965                 0.5461                 3.6990

                     40                     41                     42
                      A                      A                      A
 Frequencies --   1504.1450              1834.7467              2828.8467
 Red. masses --      1.0482                11.0463                 1.0816
 Frc consts  --      1.3972                21.9088                 5.0998
 IR Inten    --      2.3334               191.7819               109.0774

                     43                     44                     45
                      A                      A                      A
 Frequencies --   3020.2864              3023.2052              3049.9899
 Red. masses --      1.0659                 1.0665                 1.0364
 Frc consts  --      5.7287                 5.7433                 5.6801
 IR Inten    --     24.9754                24.4683                13.7532

                     46                     47                     48
                      A                      A                      A
 Frequencies --   3087.2768              3089.3685              3115.6537
 Red. masses --      1.0956                 1.0963                 1.1008
 Frc consts  --      6.1524                 6.1645                 6.2960
 IR Inten    --      8.1922                18.6582                20.2742

                     49                     50                     51
                      A                      A                      A
 Frequencies --   3140.4867              3148.5953              3153.1936
 Red. masses --      1.0866                 1.1014                 1.0960
 Frc consts  --      6.3139                 6.4330                 6.4206
 IR Inten    --     18.2787                 9.8461                36.2780

 - Thermochemistry -
 -------------------
 Temperature   298.150 Kelvin.  Pressure   1.00000 Atm.
 Atom     1 has atomic number  6 and mass  12.00000

 Molecular mass:   126.06808 amu.
 Principal axes and moments of inertia in atomic units:
                           1         2         3
     Eigenvalues --   507.377771534.184681552.81197
           X            0.99975   0.02233  -0.00002
           Y           -0.02233   0.99975  -0.00013
           Z            0.00001   0.00013   1.00000
 This molecule is an asymmetric top.
 Rotational symmetry number  1.
 Warning -- assumption of classical behavior for rotation
           may cause significant error
 Rotational temperatures (Kelvin)      0.17071     0.05646     0.05578
 Rotational constants (GHZ):           3.55700     1.17635     1.16224
 Zero-point vibrational energy     416381.6 (Joules/Mol)
                                   99.51758 (Kcal/Mol)
 Warning -- explicit consideration of  10 degrees of freedom as
           vibrations may cause significant error
 Vibrational temperatures:    108.25   181.27   323.33   377.73   399.43
          (Kelvin)            500.01   507.70   559.49   573.39   714.99
                              966.46  1046.50  1123.87  1158.19  1244.93
                             1262.11  1319.29  1342.37  1367.68  1426.80
                             1429.61  1489.59  1490.37  1585.58  1657.10
                             1675.67  1688.31  1755.20  1818.66  1881.29
                             1882.36  1911.51  1928.84  2016.29  2055.14
                             2086.00  2115.84  2125.85  2148.94  2164.13
                             2639.79  4070.07  4345.51  4349.71  4388.25
                             4441.90  4444.91  4482.73  4518.45  4530.12
                             4536.74

 Zero-point correction=                           0.158591 (Hartree/Particle)
 Thermal correction to Energy=                    0.166899
 Thermal correction to Enthalpy=                  0.167844
 Thermal correction to Gibbs Free Energy=         0.125725
 Sum of electronic and zero-point Energies=           -423.034862
 Sum of electronic and thermal Energies=              -423.026554
 Sum of electronic and thermal Enthalpies=            -423.025610
 Sum of electronic and thermal Free Energies=         -423.067728

                     E (Thermal)             CV                S
                      KCal/Mol        Cal/Mol-Kelvin    Cal/Mol-Kelvin
 Total                  104.731             31.884             88.647
 Electronic               0.000              0.000              0.000
 Translational            0.889              2.981             40.409
 Rotational               0.889              2.981             28.582
 Vibrational            102.953             25.922             19.656
 Vibration     1          0.599              1.966              4.011
 Vibration     2          0.611              1.927              3.006
 Vibration     3          0.649              1.803              1.921
 Vibration     4          0.670              1.741              1.645
 Vibration     5          0.679              1.715              1.548
 Vibration     6          0.725              1.580              1.177
 Vibration     7          0.729              1.569              1.153
 Vibration     8          0.757              1.494              1.004
 Vibration     9          0.765              1.473              0.968
 Vibration    10          0.852              1.257              0.666

 Optimization completed.
    -- Stationary point found.
 Normal termination of Gaussian 09 at Mon Jan 27 17:17:45 2020.
