 Gaussian 09, Revision D.01,
 Gaussian 09:  ES64L-G09RevD.01 24-Apr-2013

 -----------------------------
 # b3lyp 6-31G(2df,p) opt Freq
 -----------------------------

 -----
 titel
 -----
 Symbolic Z-matrix:
 Charge =  0 Multiplicity = 1

 SCF Done:  E(RB3LYP) =  -423.138899871     A.U. after   14 cycles
 Optimization completed.
    -- Stationary point found.
 Normal termination of Gaussian 09 at Mon Jan 27 12:14:37 2020.

 ----------------------------------------------------------------------
 #N Geom=AllCheck Guess=TCheck SCRF=Check GenChk RB3LYP/6-31G(2df,p) Fr
 eq
 ----------------------------------------------------------------------

 Structure from the checkpoint file:  "/scratch/puck/g09_63ebb7a6-c1d0-45c3-b0b6-7d59789a115f/Gau-45081.chk"
 -----
 titel
 -----
 Charge =  0 Multiplicity = 1

                         Standard orientation:
 ---------------------------------------------------------------------
 Center     Atomic      Atomic             Coordinates (Angstroms)
 Number     Number       Type             X           Y           Z
 ---------------------------------------------------------------------
      1          6           0       -1.732298   -0.890175    0.000016
      2          8           0       -2.525444    0.318277   -0.000044
      3          6           0       -1.352104    1.155992    0.000041
      4          6           0       -0.433127   -0.072333    0.000025
      5          6           0        0.709875   -0.405342   -0.976480
      6          6           0        1.716550    0.746382   -0.782312
      7          6           0        1.716585    0.746356    0.782299
      8          6           0        0.709912   -0.405371    0.976473
      9          8           0        1.175352   -1.392828   -0.000027
     10          1           0       -1.913709   -1.501989    0.892610
     11          1           0       -1.913677   -1.502062   -0.892532
     12          1           0       -1.298859    1.794404   -0.892463
     13          1           0       -1.298921    1.794307    0.892621
     14          1           0        0.539932   -0.807884   -1.975780
     15          1           0        2.690962    0.498053   -1.206966
     16          1           0        1.375785    1.689247   -1.219232
     17          1           0        2.691015    0.498012    1.206903
     18          1           0        1.375839    1.689206    1.219265
     19          1           0        0.540009   -0.807943    1.975768
 ---------------------------------------------------------------------

 SCF Done:  E(RB3LYP) =  -423.138899871     A.U. after    1 cycles

 The electronic state is 1-A.
 Alpha  occ. eigenvalues --  -19.13818 -19.13294 -10.24049 -10.24049 -10.23217
 Alpha  occ. eigenvalues --  -10.22964 -10.20304 -10.18999 -10.18981  -1.05489
 Alpha  occ. eigenvalues --   -1.03527  -0.80209  -0.74094  -0.71268  -0.69364
 Alpha  occ. eigenvalues --   -0.62095  -0.58013  -0.53525  -0.52392  -0.49021
 Alpha  occ. eigenvalues --   -0.48570  -0.46285  -0.42263  -0.41997  -0.40600
 Alpha  occ. eigenvalues --   -0.37351  -0.36051  -0.35641  -0.35547  -0.31975
 Alpha  occ. eigenvalues --   -0.31365  -0.30329  -0.25046  -0.24868
 Alpha virt. eigenvalues --    0.06671   0.08006   0.10646   0.11196   0.11299
 Alpha virt. eigenvalues --    0.11629   0.12960   0.15085   0.15482   0.16973
 Alpha virt. eigenvalues --    0.17259   0.17765   0.19793   0.19826   0.20820

 Mulliken charges:
               1
     1  C   -0.154966
     2  O   -0.277048
     3  C   -0.172598
     4  C    0.358135
     5  C    0.000213
     6  C   -0.227246
     7  C   -0.227245
     8  C    0.000205
     9  O   -0.308702
    10  H    0.105253
    11  H    0.105257
    12  H    0.101579
    13  H    0.101576
    14  H    0.082155
    15  H    0.112886
    16  H    0.102753
    17  H    0.112886
    18  H    0.102752
    19  H    0.082154
 Sum of Mulliken charges =   0.00000

 Dipole moment (field-independent basis, Debye):
    X=              1.1831    Y=              1.1810    Z=              0.0001  Tot=              1.6717
 Quadrupole moment (field-independent basis, Debye-Ang):
   XX=            -60.6980   YY=            -54.2340   ZZ=            -49.6134
   XY=              3.8909   XZ=             -0.0002   YZ=              0.0000

  Exact polarizability:  77.690   3.734  72.665   0.000   0.000  70.510
 Approx polarizability: 104.549   0.332 111.208   0.000   0.000 106.284

                      1                      2                      3
                      A                      A                      A
 Frequencies --     78.2295               165.7632               204.6892
 Red. masses --      3.5605                 3.8521                 2.1635
 Frc consts  --      0.0128                 0.0624                 0.0534
 IR Inten    --      5.9308                 2.9941                 0.0789

                      4                      5                      6
                      A                      A                      A
 Frequencies --    275.7559               362.9292               395.4825
 Red. masses --      1.8665                 1.9301                 4.8369
 Frc consts  --      0.0836                 0.1498                 0.4457
 IR Inten    --      0.3888                 0.2393                 2.6096

                      7                      8                      9
                      A                      A                      A
 Frequencies --    530.3275               582.2902               718.4785
 Red. masses --      3.1330                 4.7332                 3.9183
 Frc consts  --      0.5192                 0.9455                 1.1917
 IR Inten    --      2.7889                 6.2532                 0.1303

                     10                     11                     12
                      A                      A                      A
 Frequencies --    810.0692               832.6021               857.9351
 Red. masses --      3.1314                 1.3769                 4.1733
 Frc consts  --      1.2107                 0.5624                 1.8098
 IR Inten    --     12.7959                 3.7183                13.3111

                     13                     14                     15
                      A                      A                      A
 Frequencies --    872.9683               881.9944               920.8704
 Red. masses --      2.7933                 2.3065                 2.8866
 Frc consts  --      1.2542                 1.0572                 1.4422
 IR Inten    --     32.0622                 1.2359                 2.8091

                     16                     17                     18
                      A                      A                      A
 Frequencies --    940.7183               944.8511               973.1349
 Red. masses --      2.6966                 3.3769                 1.3618
 Frc consts  --      1.4060                 1.7762                 0.7598
 IR Inten    --     21.0750                 5.6690                 0.5010

                     19                     20                     21
                      A                      A                      A
 Frequencies --    982.5239              1011.9503              1032.4870
 Red. masses --      3.7921                 1.5113                 3.9546
 Frc consts  --      2.1568                 0.9118                 2.4838
 IR Inten    --     13.8970                 3.5086                20.5980

                     22                     23                     24
                      A                      A                      A
 Frequencies --   1034.1897              1070.9032              1143.6395
 Red. masses --      7.1473                 1.4589                 1.3818
 Frc consts  --      4.5040                 0.9858                 1.0648
 IR Inten    --     68.9795                 1.0048                 2.6038

                     25                     26                     27
                      A                      A                      A
 Frequencies --   1154.8331              1165.2728              1192.5586
 Red. masses --      1.0705                 1.8908                 1.4866
 Frc consts  --      0.8411                 1.5127                 1.2457
 IR Inten    --      0.0065                 3.9873                 1.4117

                     28                     29                     30
                      A                      A                      A
 Frequencies --   1211.5847              1214.6045              1238.5977
 Red. masses --      1.7844                 2.3297                 1.9447
 Frc consts  --      1.5433                 2.0250                 1.7578
 IR Inten    --      3.5241                21.3762                10.5128

                     31                     32                     33
                      A                      A                      A
 Frequencies --   1241.3046              1253.3228              1301.0715
 Red. masses --      1.3220                 1.3333                 1.5377
 Frc consts  --      1.2002                 1.2340                 1.5337
 IR Inten    --      0.0865                 0.3119                 1.9836

                     34                     35                     36
                      A                      A                      A
 Frequencies --   1305.1578              1320.6080              1356.3073
 Red. masses --      1.3344                 1.4460                 1.6197
 Frc consts  --      1.3393                 1.4858                 1.7555
 IR Inten    --      1.7498                 1.3473                 0.2240

                     37                     38                     39
                      A                      A                      A
 Frequencies --   1397.8926              1480.1746              1499.0832
 Red. masses --      2.3592                 1.0838                 1.1096
 Frc consts  --      2.7162                 1.3990                 1.4692
 IR Inten    --      3.8273                 0.7408                 5.2562

                     40                     41                     42
                      A                      A                      A
 Frequencies --   1506.0583              1531.5886              2994.1917
 Red. masses --      1.0822                 1.1093                 1.0531
 Frc consts  --      1.4462                 1.5332                 5.5628
 IR Inten    --      0.2001                 0.2106                87.6811

                     43                     44                     45
                      A                      A                      A
 Frequencies --   3013.8339              3034.3626              3053.4664
 Red. masses --      1.0567                 1.1097                 1.1111
 Frc consts  --      5.6552                 6.0200                 6.1038
 IR Inten    --     27.6137                34.3948                37.6696

                     46                     47                     48
                      A                      A                      A
 Frequencies --   3062.6849              3071.1485              3110.9257
 Red. masses --      1.0605                 1.0613                 1.1034
 Frc consts  --      5.8608                 5.8976                 6.2914
 IR Inten    --     23.4812                32.5968                 4.9139

                     49                     50                     51
                      A                      A                      A
 Frequencies --   3116.5539              3119.8219              3127.8993
 Red. masses --      1.0900                 1.0942                 1.1045
 Frc consts  --      6.2378                 6.2750                 6.3668
 IR Inten    --     68.1728                 5.7171                35.3157

 - Thermochemistry -
 -------------------
 Temperature   298.150 Kelvin.  Pressure   1.00000 Atm.
 Atom     1 has atomic number  6 and mass  12.00000

 Molecular mass:   126.06808 amu.
 Principal axes and moments of inertia in atomic units:
                           1         2         3
     Eigenvalues --   529.919551255.975441396.04342
           X            0.99931   0.03713   0.00000
           Y           -0.03713   0.99931   0.00000
           Z            0.00000   0.00000   1.00000
 This molecule is an asymmetric top.
 Rotational symmetry number  1.
 Warning -- assumption of classical behavior for rotation
           may cause significant error
 Rotational temperatures (Kelvin)      0.16345     0.06896     0.06204
 Rotational constants (GHZ):           3.40569     1.43692     1.29275
 Zero-point vibrational energy     422878.1 (Joules/Mol)
                                  101.07028 (Kcal/Mol)
 Warning -- explicit consideration of   8 degrees of freedom as
           vibrations may cause significant error
 Vibrational temperatures:    112.55   238.50   294.50   396.75   522.17
          (Kelvin)            569.01   763.02   837.78  1033.73  1165.51
                             1197.93  1234.38  1256.01  1268.99  1324.93
                             1353.48  1359.43  1400.12  1413.63  1455.97
                             1485.52  1487.97  1540.79  1645.44  1661.55
                             1676.57  1715.82  1743.20  1747.54  1782.06
                             1785.96  1803.25  1871.95  1877.83  1900.06
                             1951.42  2011.25  2129.64  2156.84  2166.88
                             2203.61  4307.97  4336.23  4365.77  4393.25
                             4406.51  4418.69  4475.92  4484.02  4488.72
                             4500.34

 Zero-point correction=                           0.161066 (Hartree/Particle)
 Thermal correction to Energy=                    0.168331
 Thermal correction to Enthalpy=                  0.169275
 Thermal correction to Gibbs Free Energy=         0.129116
 Sum of electronic and zero-point Energies=           -422.977834
 Sum of electronic and thermal Energies=              -422.970569
 Sum of electronic and thermal Enthalpies=            -422.969625
 Sum of electronic and thermal Free Energies=         -423.009784

                     E (Thermal)             CV                S
                      KCal/Mol        Cal/Mol-Kelvin    Cal/Mol-Kelvin
 Total                  105.629             28.615             84.521
 Electronic               0.000              0.000              0.000
 Translational            0.889              2.981             40.409
 Rotational               0.889              2.981             28.321
 Vibrational            103.852             22.653             15.792
 Vibration     1          0.600              1.964              3.935
 Vibration     2          0.624              1.885              2.483
 Vibration     3          0.640              1.833              2.091
 Vibration     4          0.677              1.718              1.560
 Vibration     5          0.737              1.549              1.110
 Vibration     6          0.762              1.480              0.979
 Vibration     7          0.885              1.183              0.586
 Vibration     8          0.939              1.070              0.481

 Optimization completed.
    -- Stationary point found.
 Normal termination of Gaussian 09 at Mon Jan 27 13:01:10 2020.
