 Gaussian 09, Revision D.01,
 Gaussian 09:  ES64L-G09RevD.01 24-Apr-2013

 -----------------------------
 # b3lyp 6-31G(2df,p) opt Freq
 -----------------------------

 -----
 titel
 -----
 Symbolic Z-matrix:
 Charge =  0 Multiplicity = 1

 SCF Done:  E(RB3LYP) =  -423.179236639     A.U. after   14 cycles
 Optimization completed.
    -- Stationary point found.
 Normal termination of Gaussian 09 at Tue Jan 28 00:03:56 2020.

 ----------------------------------------------------------------------
 #N Geom=AllCheck Guess=TCheck SCRF=Check GenChk RB3LYP/6-31G(2df,p) Fr
 eq
 ----------------------------------------------------------------------

 Structure from the checkpoint file:  "/scratch/puck/g09_8ef0ebf6-7e38-4d7e-9050-67b41e07a76c/Gau-188093.chk"
 -----
 titel
 -----
 Charge =  0 Multiplicity = 1

                         Standard orientation:
 ---------------------------------------------------------------------
 Center     Atomic      Atomic             Coordinates (Angstroms)
 Number     Number       Type             X           Y           Z
 ---------------------------------------------------------------------
      1          6           0       -2.254648   -1.458312    0.009704
      2          6           0       -0.901382   -0.823851    0.012055
      3          6           0        0.210334   -1.240349   -0.605929
      4          6           0        1.405946   -0.343642   -0.380464
      5          8           0        2.451596   -0.992955    0.342395
      6          6           0        0.797596    0.864114    0.360342
      7          6           0        0.139863    1.976712   -0.486582
      8          8           0       -1.185040    1.626843   -0.028945
      9          6           0       -0.660846    0.491474    0.714480
     10          1           0       -2.995186   -0.762495   -0.402292
     11          1           0       -2.276668   -2.377794   -0.580740
     12          1           0       -2.580697   -1.695175    1.030356
     13          1           0        0.289685   -2.147814   -1.196713
     14          1           0        1.880850   -0.036012   -1.319953
     15          1           0        2.043046   -1.444353    1.089462
     16          1           0        1.447868    1.215105    1.161051
     17          1           0        0.400340    3.004481   -0.210563
     18          1           0        0.248269    1.859687   -1.573291
     19          1           0       -1.011141    0.516396    1.753446
 ---------------------------------------------------------------------

 SCF Done:  E(RB3LYP) =  -423.179236639     A.U. after    1 cycles

 The electronic state is 1-A.
 Alpha  occ. eigenvalues --  -19.13442 -19.13032 -10.23470 -10.23351 -10.22936
 Alpha  occ. eigenvalues --  -10.19576 -10.18759 -10.18701 -10.18273  -1.03520
 Alpha  occ. eigenvalues --   -1.01518  -0.83283  -0.75884  -0.69894  -0.68694
 Alpha  occ. eigenvalues --   -0.64085  -0.56174  -0.53073  -0.51328  -0.49142
 Alpha  occ. eigenvalues --   -0.46814  -0.43120  -0.42791  -0.42539  -0.40933
 Alpha  occ. eigenvalues --   -0.40233  -0.37235  -0.36347  -0.33575  -0.32044
 Alpha  occ. eigenvalues --   -0.30695  -0.26665  -0.25680  -0.24431
 Alpha virt. eigenvalues --    0.00420   0.07761   0.09404   0.10498   0.10957
 Alpha virt. eigenvalues --    0.12726   0.14186   0.14650   0.16714   0.16775
 Alpha virt. eigenvalues --    0.17853   0.18264   0.19634   0.21575   0.22904

 Mulliken charges:
               1
     1  C   -0.499723
     2  C    0.319045
     3  C   -0.226743
     4  C    0.089920
     5  O   -0.433651
     6  C   -0.119880
     7  C   -0.086094
     8  O   -0.295248
     9  C    0.029686
    10  H    0.148013
    11  H    0.125335
    12  H    0.127401
    13  H    0.096107
    14  H    0.089705
    15  H    0.272544
    16  H    0.085784
    17  H    0.105306
    18  H    0.099545
    19  H    0.072948
 Sum of Mulliken charges =   0.00000

 Dipole moment (field-independent basis, Debye):
    X=             -0.4438    Y=             -0.8900    Z=              0.6356  Tot=              1.1803
 Quadrupole moment (field-independent basis, Debye-Ang):
   XX=            -59.8674   YY=            -52.1043   ZZ=            -49.8799
   XY=              5.4926   XZ=             -0.3821   YZ=             -1.0323

  Exact polarizability:  86.032   2.142  79.331  -5.406   1.292  65.470
 Approx polarizability: 129.106  -5.535 109.099 -12.793   2.463 103.128

                      1                      2                      3
                      A                      A                      A
 Frequencies --    101.0968               136.4934               185.9864
 Red. masses --      3.1736                 3.0728                 1.1222
 Frc consts  --      0.0191                 0.0337                 0.0229
 IR Inten    --      4.4079                 0.1192                 1.1035

                      4                      5                      6
                      A                      A                      A
 Frequencies --    229.4544               255.8801               314.4248
 Red. masses --      3.1664                 2.5527                 2.5185
 Frc consts  --      0.0982                 0.0985                 0.1467
 IR Inten    --      2.1947                 1.4429                 2.2047

                      7                      8                      9
                      A                      A                      A
 Frequencies --    335.0136               372.8253               497.4051
 Red. masses --      1.2253                 4.8718                 3.2688
 Frc consts  --      0.0810                 0.3990                 0.4765
 IR Inten    --     75.5717                13.0113                 1.7335

                     10                     11                     12
                      A                      A                      A
 Frequencies --    570.5506               596.1204               724.8507
 Red. masses --      4.0058                 3.9248                 3.8354
 Frc consts  --      0.7683                 0.8217                 1.1873
 IR Inten    --      1.3758                 2.3306                 1.0357

                     13                     14                     15
                      A                      A                      A
 Frequencies --    799.6609               847.5059               881.0257
 Red. masses --      2.4798                 2.2358                 2.5880
 Frc consts  --      0.9343                 0.9462                 1.1836
 IR Inten    --      0.6058                 1.2678                23.9943

                     16                     17                     18
                      A                      A                      A
 Frequencies --    893.6711               932.0414               969.5629
 Red. masses --      1.4137                 2.9615                 2.2047
 Frc consts  --      0.6652                 1.5158                 1.2211
 IR Inten    --     23.1546                 5.2338                 5.2730

                     19                     20                     21
                      A                      A                      A
 Frequencies --    980.3231              1007.2706              1026.5143
 Red. masses --      2.3552                 6.4453                 1.6761
 Frc consts  --      1.3336                 3.8529                 1.0406
 IR Inten    --      9.2982                95.1812                15.9435

                     22                     23                     24
                      A                      A                      A
 Frequencies --   1042.7310              1059.5892              1069.9278
 Red. masses --      4.3088                 1.9239                 2.0122
 Frc consts  --      2.7603                 1.2726                 1.3571
 IR Inten    --     99.2873                14.2670                 5.0822

                     25                     26                     27
                      A                      A                      A
 Frequencies --   1101.2130              1161.5951              1172.4074
 Red. masses --      1.8083                 1.1566                 2.0365
 Frc consts  --      1.2920                 0.9195                 1.6493
 IR Inten    --     21.4371                 1.5954                 1.9261

                     28                     29                     30
                      A                      A                      A
 Frequencies --   1228.4367              1253.8996              1263.7037
 Red. masses --      1.7004                 1.3809                 1.4161
 Frc consts  --      1.5118                 1.2792                 1.3324
 IR Inten    --      0.3486                 9.8302                 6.0284

                     31                     32                     33
                      A                      A                      A
 Frequencies --   1285.4364              1316.2652              1318.2395
 Red. masses --      1.3294                 1.5068                 1.7093
 Frc consts  --      1.2942                 1.5382                 1.7500
 IR Inten    --      0.6073                 6.6922                 7.4936

                     34                     35                     36
                      A                      A                      A
 Frequencies --   1353.7928              1358.3968              1408.9947
 Red. masses --      1.6313                 1.8202                 1.2937
 Frc consts  --      1.7615                 1.9789                 1.5132
 IR Inten    --      1.6254                12.3507                 1.2018

                     37                     38                     39
                      A                      A                      A
 Frequencies --   1426.5182              1477.7126              1488.9198
 Red. masses --      1.2137                 1.0466                 1.0614
 Frc consts  --      1.4552                 1.3466                 1.3864
 IR Inten    --     75.6792                 7.6172                 9.9627

                     40                     41                     42
                      A                      A                      A
 Frequencies --   1520.0202              1704.6937              3008.5455
 Red. masses --      1.0975                 7.1003                 1.0593
 Frc consts  --      1.4940                12.1568                 5.6492
 IR Inten    --      0.8851                 8.7502                65.7082

                     43                     44                     45
                      A                      A                      A
 Frequencies --   3022.8470              3033.7107              3038.7438
 Red. masses --      1.0392                 1.0846                 1.0841
 Frc consts  --      5.5949                 5.8811                 5.8981
 IR Inten    --     17.0472                60.0051                29.0545

                     46                     47                     48
                      A                      A                      A
 Frequencies --   3061.1575              3075.0440              3116.4269
 Red. masses --      1.1062                 1.0974                 1.1005
 Frc consts  --      6.1075                 6.1139                 6.2972
 IR Inten    --     40.6769                12.4105                16.1924

                     49                     50                     51
                      A                      A                      A
 Frequencies --   3120.1276              3182.1912              3798.4678
 Red. masses --      1.0885                 1.0935                 1.0660
 Frc consts  --      6.2433                 6.5239                 9.0622
 IR Inten    --     22.1082                13.3409                13.0215

 - Thermochemistry -
 -------------------
 Temperature   298.150 Kelvin.  Pressure   1.00000 Atm.
 Atom     1 has atomic number  6 and mass  12.00000

 Molecular mass:   126.06808 amu.
 Principal axes and moments of inertia in atomic units:
                           1         2         3
     Eigenvalues --   821.543041044.471931640.92397
           X            0.98302   0.18343  -0.00574
           Y           -0.18344   0.98303  -0.00188
           Z            0.00529   0.00290   0.99998
 This molecule is an asymmetric top.
 Rotational symmetry number  1.
 Warning -- assumption of classical behavior for rotation
           may cause significant error
 Rotational temperatures (Kelvin)      0.10543     0.08293     0.05278
 Rotational constants (GHZ):           2.19677     1.72790     1.09983
 Zero-point vibrational energy     419455.2 (Joules/Mol)
                                  100.25220 (Kcal/Mol)
 Warning -- explicit consideration of  11 degrees of freedom as
           vibrations may cause significant error
 Vibrational temperatures:    145.46   196.38   267.59   330.13   368.15
          (Kelvin)            452.39   482.01   536.41   715.65   820.89
                              857.68  1042.90  1150.53  1219.37  1267.60
                             1285.79  1341.00  1394.98  1410.46  1449.24
                             1476.92  1500.26  1524.51  1539.39  1584.40
                             1671.27  1686.83  1767.44  1804.08  1818.19
                             1849.45  1893.81  1896.65  1947.80  1954.43
                             2027.23  2052.44  2126.10  2142.22  2186.97
                             2452.67  4328.62  4349.20  4364.83  4372.07
                             4404.32  4424.30  4483.84  4489.16  4578.46
                             5465.14

 Zero-point correction=                           0.159762 (Hartree/Particle)
 Thermal correction to Energy=                    0.168087
 Thermal correction to Enthalpy=                  0.169031
 Thermal correction to Gibbs Free Energy=         0.126901
 Sum of electronic and zero-point Energies=           -423.019475
 Sum of electronic and thermal Energies=              -423.011149
 Sum of electronic and thermal Enthalpies=            -423.010205
 Sum of electronic and thermal Free Energies=         -423.052335

                     E (Thermal)             CV                S
                      KCal/Mol        Cal/Mol-Kelvin    Cal/Mol-Kelvin
 Total                  105.476             31.798             88.670
 Electronic               0.000              0.000              0.000
 Translational            0.889              2.981             40.409
 Rotational               0.889              2.981             28.734
 Vibrational            103.699             25.837             19.528
 Vibration     1          0.604              1.948              3.433
 Vibration     2          0.614              1.917              2.852
 Vibration     3          0.632              1.859              2.267
 Vibration     4          0.652              1.796              1.883
 Vibration     5          0.666              1.753              1.690
 Vibration     6          0.702              1.646              1.339
 Vibration     7          0.716              1.606              1.236
 Vibration     8          0.744              1.528              1.068
 Vibration     9          0.853              1.256              0.665
 Vibration    10          0.927              1.095              0.503
 Vibration    11          0.954              1.040              0.456

 Normal termination of Gaussian 09 at Tue Jan 28 00:50:38 2020.
