 Gaussian 09, Revision D.01,
 Gaussian 09:  ES64L-G09RevD.01 24-Apr-2013

 -----------------------------
 # b3lyp 6-31G(2df,p) opt Freq
 -----------------------------

 -----
 titel
 -----
 Symbolic Z-matrix:
 Charge =  0 Multiplicity = 1

 SCF Done:  E(RB3LYP) =  -423.242084734     A.U. after   14 cycles
 Optimization completed.
    -- Stationary point found.
 Normal termination of Gaussian 09 at Tue Jan 28 03:11:44 2020.

 ----------------------------------------------------------------------
 #N Geom=AllCheck Guess=TCheck SCRF=Check GenChk RB3LYP/6-31G(2df,p) Fr
 eq
 ----------------------------------------------------------------------

 Structure from the checkpoint file:  "/scratch/puck/g09_090476b2-8cc0-42ca-835d-3560d8257d14/Gau-44959.chk"
 -----
 titel
 -----
 Charge =  0 Multiplicity = 1

                         Standard orientation:
 ---------------------------------------------------------------------
 Center     Atomic      Atomic             Coordinates (Angstroms)
 Number     Number       Type             X           Y           Z
 ---------------------------------------------------------------------
      1          6           0        2.847651   -0.494696   -0.469025
      2          6           0        1.349055   -0.220383   -0.370399
      3          6           0        0.990199    1.244890   -0.030367
      4          6           0       -0.435041    1.188883    0.498922
      5          8           0       -1.427268    0.983091   -0.572641
      6          6           0       -1.693535   -0.295794   -0.149265
      7          8           0       -2.468476   -1.067642   -0.615926
      8          6           0       -0.678009   -0.258324    0.996444
      9          6           0        0.623428   -1.031345    0.729350
     10          1           0        3.310571    0.108480   -1.256801
     11          1           0        3.353939   -0.257610    0.474161
     12          1           0        3.044611   -1.546964   -0.698352
     13          1           0        0.886774   -0.465139   -1.335027
     14          1           0        1.643209    1.613185    0.772322
     15          1           0        1.091354    1.927522   -0.878667
     16          1           0       -0.743692    2.025906    1.125614
     17          1           0       -1.111140   -0.413137    1.984720
     18          1           0        1.228389   -1.044995    1.644464
     19          1           0        0.439450   -2.070235    0.442143
 ---------------------------------------------------------------------

 SCF Done:  E(RB3LYP) =  -423.242084734     A.U. after    1 cycles

 The electronic state is 1-A.
 Alpha  occ. eigenvalues --  -19.17540 -19.13029 -10.30263 -10.25238 -10.20911
 Alpha  occ. eigenvalues --  -10.20026 -10.19870 -10.19519 -10.18433  -1.10043
 Alpha  occ. eigenvalues --   -1.02783  -0.85009  -0.76084  -0.73569  -0.67417
 Alpha  occ. eigenvalues --   -0.62512  -0.57618  -0.52330  -0.51636  -0.50311
 Alpha  occ. eigenvalues --   -0.47618  -0.45264  -0.42579  -0.42111  -0.41105
 Alpha  occ. eigenvalues --   -0.39623  -0.37991  -0.36232  -0.34938  -0.33584
 Alpha  occ. eigenvalues --   -0.33429  -0.33092  -0.29499  -0.26769
 Alpha virt. eigenvalues --    0.01250   0.07921   0.08654   0.10710   0.11201
 Alpha virt. eigenvalues --    0.13020   0.13405   0.14592   0.16028   0.16646
 Alpha virt. eigenvalues --    0.17011   0.17340   0.18892   0.19568   0.21018

 Mulliken charges:
               1
     1  C   -0.412953
     2  C    0.026236
     3  C   -0.229649
     4  C    0.115297
     5  O   -0.264301
     6  C    0.452642
     7  O   -0.330445
     8  C   -0.228035
     9  C   -0.231381
    10  H    0.119030
    11  H    0.113254
    12  H    0.119719
    13  H    0.099819
    14  H    0.102998
    15  H    0.118674
    16  H    0.095341
    17  H    0.106982
    18  H    0.103589
    19  H    0.123183
 Sum of Mulliken charges =   0.00000

 Dipole moment (field-independent basis, Debye):
    X=              3.3464    Y=              1.0621    Z=              2.2423  Tot=              4.1659
 Quadrupole moment (field-independent basis, Debye-Ang):
   XX=            -60.5906   YY=            -53.6255   ZZ=            -52.1473
   XY=             -2.6619   XZ=             -4.5993   YZ=              0.2997

  Exact polarizability:  83.534   3.818  74.013   0.957   0.954  65.538
 Approx polarizability: 110.645  10.564 114.469   7.245   2.478 102.449

                      1                      2                      3
                      A                      A                      A
 Frequencies --     99.7531               145.9533               211.3202
 Red. masses --      4.7422                 3.4631                 2.3056
 Frc consts  --      0.0278                 0.0435                 0.0607
 IR Inten    --      2.4255                 0.5309                 1.5950

                      4                      5                      6
                      A                      A                      A
 Frequencies --    236.8548               291.1346               349.6993
 Red. masses --      1.1603                 2.6854                 3.0942
 Frc consts  --      0.0384                 0.1341                 0.2229
 IR Inten    --      0.2323                 0.9504                 0.9619

                      7                      8                      9
                      A                      A                      A
 Frequencies --    422.3257               481.8397               561.9425
 Red. masses --      1.7148                 5.0778                 3.6833
 Frc consts  --      0.1802                 0.6946                 0.6853
 IR Inten    --      0.4950                 3.4710                 1.6820

                     10                     11                     12
                      A                      A                      A
 Frequencies --    622.3286               718.5301               790.4556
 Red. masses --      4.5808                 4.7924                 4.2779
 Frc consts  --      1.0453                 1.4578                 1.5748
 IR Inten    --      0.5179                 2.7005                 2.3015

                     13                     14                     15
                      A                      A                      A
 Frequencies --    832.2725               835.1627               862.8436
 Red. masses --      2.3528                 2.8244                 4.4049
 Frc consts  --      0.9602                 1.1607                 1.9322
 IR Inten    --     14.8792                 0.7647                26.5076

                     16                     17                     18
                      A                      A                      A
 Frequencies --    866.7060               926.1373               951.4712
 Red. masses --      2.1443                 1.7098                 1.7297
 Frc consts  --      0.9490                 0.8641                 0.9226
 IR Inten    --      0.8728                 7.3133                18.2247

                     19                     20                     21
                      A                      A                      A
 Frequencies --    962.9374              1020.1686              1042.8550
 Red. masses --      1.8739                 1.7626                 1.7660
 Frc consts  --      1.0238                 1.0808                 1.1316
 IR Inten    --      1.2768                45.0258                 1.6281

                     22                     23                     24
                      A                      A                      A
 Frequencies --   1074.9866              1108.1420              1116.7943
 Red. masses --      1.9922                 2.1160                 2.0849
 Frc consts  --      1.3564                 1.5309                 1.5321
 IR Inten    --      7.2710                64.1638                 2.3179

                     25                     26                     27
                      A                      A                      A
 Frequencies --   1142.6741              1158.2980              1202.5577
 Red. masses --      1.6413                 1.8875                 2.0862
 Frc consts  --      1.2626                 1.4921                 1.7775
 IR Inten    --     17.1588                12.1192                 8.7934

                     28                     29                     30
                      A                      A                      A
 Frequencies --   1252.0704              1266.7555              1294.7673
 Red. masses --      1.7312                 1.4569                 1.4602
 Frc consts  --      1.5990                 1.3774                 1.4422
 IR Inten    --      3.3854                 3.1409                 7.3518

                     31                     32                     33
                      A                      A                      A
 Frequencies --   1303.6099              1336.3558              1340.3566
 Red. masses --      1.7073                 1.4650                 1.3829
 Frc consts  --      1.7095                 1.5415                 1.4638
 IR Inten    --      5.1191                18.4492                 6.6376

                     34                     35                     36
                      A                      A                      A
 Frequencies --   1361.6577              1391.1558              1414.7041
 Red. masses --      1.3572                 1.5386                 1.2415
 Frc consts  --      1.4827                 1.7544                 1.4639
 IR Inten    --      8.5996                 1.2945                 1.6168

                     37                     38                     39
                      A                      A                      A
 Frequencies --   1470.0041              1487.4006              1496.5117
 Red. masses --      1.0946                 1.0927                 1.0525
 Frc consts  --      1.3936                 1.4243                 1.3887
 IR Inten    --      3.4123                 1.5257                 2.9215

                     40                     41                     42
                      A                      A                      A
 Frequencies --   1500.8115              1932.3191              3021.6755
 Red. masses --      1.0444                12.7958                 1.0755
 Frc consts  --      1.3860                28.1498                 5.7856
 IR Inten    --      6.8044               423.3822                 1.9958

                     43                     44                     45
                      A                      A                      A
 Frequencies --   3025.9999              3028.2330              3039.1510
 Red. masses --      1.0432                 1.0638                 1.0679
 Frc consts  --      5.6282                 5.7478                 5.8116
 IR Inten    --     15.6615                14.4964                46.4160

                     46                     47                     48
                      A                      A                      A
 Frequencies --   3092.0762              3096.1325              3100.8105
 Red. masses --      1.0997                 1.0969                 1.0989
 Frc consts  --      6.1950                 6.1950                 6.2254
 IR Inten    --     11.2500                13.8557                37.5635

                     49                     50                     51
                      A                      A                      A
 Frequencies --   3101.9290              3110.9009              3121.8066
 Red. masses --      1.1014                 1.0883                 1.0891
 Frc consts  --      6.2438                 6.2051                 6.2535
 IR Inten    --     24.1249                19.3299                23.1593

 - Thermochemistry -
 -------------------
 Temperature   298.150 Kelvin.  Pressure   1.00000 Atm.
 Atom     1 has atomic number  6 and mass  12.00000

 Molecular mass:   126.06808 amu.
 Principal axes and moments of inertia in atomic units:
                           1         2         3
     Eigenvalues --   559.832531418.737801616.81206
           X            0.99964  -0.01704  -0.02061
           Y            0.01701   0.99985  -0.00170
           Z            0.02063   0.00135   0.99979
 This molecule is an asymmetric top.
 Rotational symmetry number  1.
 Warning -- assumption of classical behavior for rotation
           may cause significant error
 Rotational temperatures (Kelvin)      0.15471     0.06105     0.05357
 Rotational constants (GHZ):           3.22372     1.27208     1.11623
 Zero-point vibrational energy     422421.4 (Joules/Mol)
                                  100.96113 (Kcal/Mol)
 Warning -- explicit consideration of   9 degrees of freedom as
           vibrations may cause significant error
 Vibrational temperatures:    143.52   209.99   304.04   340.78   418.88
          (Kelvin)            503.14   607.63   693.26   808.51   895.39
                             1033.80  1137.29  1197.45  1201.61  1241.44
                             1247.00  1332.50  1368.95  1385.45  1467.79
                             1500.43  1546.66  1594.37  1606.82  1644.05
                             1666.53  1730.21  1801.45  1822.58  1862.88
                             1875.60  1922.72  1928.47  1959.12  2001.56
                             2035.44  2115.01  2140.04  2153.14  2159.33
                             2780.17  4347.51  4353.73  4356.95  4372.65
                             4448.80  4454.64  4461.37  4462.98  4475.89
                             4491.58

 Zero-point correction=                           0.160892 (Hartree/Particle)
 Thermal correction to Energy=                    0.168702
 Thermal correction to Enthalpy=                  0.169647
 Thermal correction to Gibbs Free Energy=         0.128523
 Sum of electronic and zero-point Energies=           -423.081193
 Sum of electronic and thermal Energies=              -423.073382
 Sum of electronic and thermal Enthalpies=            -423.072438
 Sum of electronic and thermal Free Energies=         -423.113561

                     E (Thermal)             CV                S
                      KCal/Mol        Cal/Mol-Kelvin    Cal/Mol-Kelvin
 Total                  105.862             30.342             86.551
 Electronic               0.000              0.000              0.000
 Translational            0.889              2.981             40.409
 Rotational               0.889              2.981             28.642
 Vibrational            104.085             24.380             17.500
 Vibration     1          0.604              1.949              3.459
 Vibration     2          0.617              1.907              2.724
 Vibration     3          0.643              1.824              2.032
 Vibration     4          0.656              1.784              1.826
 Vibration     5          0.687              1.690              1.467
 Vibration     6          0.727              1.576              1.168
 Vibration     7          0.785              1.422              0.884
 Vibration     8          0.838              1.290              0.705
 Vibration     9          0.918              1.114              0.520

 Optimization completed.
    -- Stationary point found.
 Normal termination of Gaussian 09 at Tue Jan 28 05:13:30 2020.
