 Gaussian 09, Revision D.01,
 Gaussian 09:  ES64L-G09RevD.01 24-Apr-2013

 -----------------------------
 # b3lyp 6-31G(2df,p) opt Freq
 -----------------------------

 -----
 titel
 -----
 Symbolic Z-matrix:
 Charge =  0 Multiplicity = 1

 SCF Done:  E(RB3LYP) =  -423.139089955     A.U. after   13 cycles
 Optimization completed.
    -- Stationary point found.
 Normal termination of Gaussian 09 at Tue Jan 28 08:14:29 2020.

 ----------------------------------------------------------------------
 #N Geom=AllCheck Guess=TCheck SCRF=Check GenChk RB3LYP/6-31G(2df,p) Fr
 eq
 ----------------------------------------------------------------------

 Structure from the checkpoint file:  "/scratch/puck/g09_b853cc4f-f3f1-4dd7-a40d-06cf8d449630/Gau-106368.chk"
 -----
 titel
 -----
 Charge =  0 Multiplicity = 1

                         Standard orientation:
 ---------------------------------------------------------------------
 Center     Atomic      Atomic             Coordinates (Angstroms)
 Number     Number       Type             X           Y           Z
 ---------------------------------------------------------------------
      1          8           0       -1.310331    1.611753    0.293729
      2          6           0       -1.112638    0.553193   -0.631201
      3          6           0       -1.708356   -0.747924   -0.032094
      4          6           0       -0.625829   -1.297112    0.953972
      5          6           0        0.684390   -0.828840    0.347279
      6          6           0        0.961187   -1.063613   -1.128699
      7          6           0        0.364769    0.225558   -0.684331
      8          8           0        1.355736    1.153566   -0.202239
      9          6           0        1.661468    0.220777    0.888366
     10          1           0       -0.493379    2.128380    0.293369
     11          1           0       -1.568234    0.803382   -1.600153
     12          1           0       -2.661070   -0.534215    0.458182
     13          1           0       -1.909007   -1.468316   -0.832244
     14          1           0       -0.752893   -0.836228    1.938478
     15          1           0       -0.707646   -2.380417    1.086547
     16          1           0        1.985776   -1.052105   -1.486433
     17          1           0        0.312404   -1.770756   -1.633132
     18          1           0        2.728829   -0.025728    0.912591
     19          1           0        1.352024    0.641219    1.851124
 ---------------------------------------------------------------------

 SCF Done:  E(RB3LYP) =  -423.139089955     A.U. after    1 cycles

 The electronic state is 1-A.
 Alpha  occ. eigenvalues --  -19.15002 -19.12953 -10.24372 -10.23715 -10.23511
 Alpha  occ. eigenvalues --  -10.20169 -10.19369 -10.19116 -10.18546  -1.06033
 Alpha  occ. eigenvalues --   -1.01048  -0.86768  -0.76325  -0.72154  -0.66860
 Alpha  occ. eigenvalues --   -0.63079  -0.57439  -0.53790  -0.50781  -0.48733
 Alpha  occ. eigenvalues --   -0.47480  -0.44467  -0.43813  -0.42842  -0.40054
 Alpha  occ. eigenvalues --   -0.39866  -0.36914  -0.35525  -0.33973  -0.32616
 Alpha  occ. eigenvalues --   -0.31622  -0.27388  -0.26110  -0.23354
 Alpha virt. eigenvalues --    0.05428   0.08610   0.09361   0.11250   0.12588
 Alpha virt. eigenvalues --    0.13429   0.14212   0.15680   0.15901   0.16861
 Alpha virt. eigenvalues --    0.17430   0.18419   0.18688   0.21345   0.22610

 Mulliken charges:
               1
     1  O   -0.449269
     2  C    0.047220
     3  C   -0.238430
     4  C   -0.289653
     5  C    0.168120
     6  C   -0.393266
     7  C    0.370866
     8  O   -0.341765
     9  C   -0.146120
    10  H    0.292085
    11  H    0.067571
    12  H    0.118309
    13  H    0.102505
    14  H    0.115225
    15  H    0.100781
    16  H    0.124012
    17  H    0.126006
    18  H    0.110185
    19  H    0.115619
 Sum of Mulliken charges =   0.00000

 Dipole moment (field-independent basis, Debye):
    X=              0.5071    Y=             -1.7380    Z=              0.0673  Tot=              1.8117
 Quadrupole moment (field-independent basis, Debye-Ang):
   XX=            -54.4031   YY=            -54.7169   ZZ=            -51.3923
   XY=              1.4346   XZ=              2.4196   YZ=              1.2167

  Exact polarizability:  78.566   1.107  70.399   1.852   3.051  70.503
 Approx polarizability: 108.723   0.899 108.831   2.275   2.670 109.429

                      1                      2                      3
                      A                      A                      A
 Frequencies --    145.4130               193.3900               282.7237
 Red. masses --      5.0818                 2.5287                 2.5476
 Frc consts  --      0.0633                 0.0557                 0.1200
 IR Inten    --      6.4595                 1.5791                27.5454

                      4                      5                      6
                      A                      A                      A
 Frequencies --    329.6272               370.7389               430.7037
 Red. masses --      2.0788                 2.1590                 2.2866
 Frc consts  --      0.1331                 0.1748                 0.2499
 IR Inten    --     24.7652                11.0677                10.6206

                      7                      8                      9
                      A                      A                      A
 Frequencies --    444.4288               479.0460               543.3077
 Red. masses --      1.3718                 3.9904                 3.3843
 Frc consts  --      0.1596                 0.5395                 0.5886
 IR Inten    --     50.2585                 8.3909                10.5943

                     10                     11                     12
                      A                      A                      A
 Frequencies --    633.3449               673.7042               749.2605
 Red. masses --      2.8603                 4.2923                 2.1915
 Frc consts  --      0.6760                 1.1478                 0.7249
 IR Inten    --      0.9947                 3.6337                 0.6529

                     13                     14                     15
                      A                      A                      A
 Frequencies --    812.3475               841.8895               857.1893
 Red. masses --      3.0804                 4.4784                 3.0551
 Frc consts  --      1.1977                 1.8702                 1.3226
 IR Inten    --      4.9495                21.7525                 3.4354

                     16                     17                     18
                      A                      A                      A
 Frequencies --    907.2704               914.6775               936.6622
 Red. masses --      2.3180                 1.6253                 2.7056
 Frc consts  --      1.1242                 0.8012                 1.3985
 IR Inten    --      7.5625                 8.6200                 9.7096

                     19                     20                     21
                      A                      A                      A
 Frequencies --    953.5301               969.8631               991.1573
 Red. masses --      2.0470                 2.6028                 2.5257
 Frc consts  --      1.0966                 1.4425                 1.4619
 IR Inten    --     11.6418                28.4333                38.1345

                     22                     23                     24
                      A                      A                      A
 Frequencies --   1007.5608              1057.9608              1064.9375
 Red. masses --      2.1926                 1.8303                 1.3432
 Frc consts  --      1.3114                 1.2070                 0.8975
 IR Inten    --      2.8172                25.0033                 1.3845

                     25                     26                     27
                      A                      A                      A
 Frequencies --   1135.0342              1155.3347              1190.0735
 Red. masses --      3.0244                 1.1611                 1.3123
 Frc consts  --      2.2956                 0.9131                 1.0950
 IR Inten    --     34.6783                 1.7194                17.4942

                     28                     29                     30
                      A                      A                      A
 Frequencies --   1203.1314              1245.9890              1260.0268
 Red. masses --      2.1170                 1.8958                 1.3673
 Frc consts  --      1.8055                 1.7341                 1.2791
 IR Inten    --     10.1544                 2.8538                 5.9162

                     31                     32                     33
                      A                      A                      A
 Frequencies --   1265.3065              1317.7400              1325.6248
 Red. masses --      1.6178                 1.5927                 1.4010
 Frc consts  --      1.5260                 1.6294                 1.4505
 IR Inten    --     16.0838                 5.1040                 1.5611

                     34                     35                     36
                      A                      A                      A
 Frequencies --   1348.3748              1361.6028              1385.3156
 Red. masses --      1.4720                 1.7366                 1.7928
 Frc consts  --      1.5768                 1.8969                 2.0271
 IR Inten    --     13.5671                 5.1577                 2.7161

                     37                     38                     39
                      A                      A                      A
 Frequencies --   1413.6438              1471.6599              1482.9165
 Red. masses --      1.5528                 1.3661                 1.1243
 Frc consts  --      1.8283                 1.7432                 1.4567
 IR Inten    --     77.2652                 2.8933                 7.4528

                     40                     41                     42
                      A                      A                      A
 Frequencies --   1496.0505              1512.4933              2994.7141
 Red. masses --      1.1128                 1.1211                 1.0840
 Frc consts  --      1.4675                 1.5110                 5.7276
 IR Inten    --      2.5117                 0.5692                69.0799

                     43                     44                     45
                      A                      A                      A
 Frequencies --   3028.4691              3048.8127              3055.9553
 Red. masses --      1.0547                 1.0599                 1.0663
 Frc consts  --      5.6996                 5.8048                 5.8669
 IR Inten    --     68.8576                43.7009                23.2629

                     46                     47                     48
                      A                      A                      A
 Frequencies --   3083.7130              3089.8673              3113.3724
 Red. masses --      1.1113                 1.1028                 1.1013
 Frc consts  --      6.2263                 6.2035                 6.2894
 IR Inten    --     28.6457                23.3216                20.0067

                     49                     50                     51
                      A                      A                      A
 Frequencies --   3132.5892              3224.2648              3752.8710
 Red. masses --      1.0557                 1.1163                 1.0656
 Frc consts  --      6.1038                 6.8376                 8.8427
 IR Inten    --     10.3519                 4.2107                52.7396

 - Thermochemistry -
 -------------------
 Temperature   298.150 Kelvin.  Pressure   1.00000 Atm.
 Atom     1 has atomic number  8 and mass  15.99491

 Molecular mass:   126.06808 amu.
 Principal axes and moments of inertia in atomic units:
                           1         2         3
     Eigenvalues --   722.22097 922.264461164.17251
           X            0.99896   0.04234   0.01670
           Y           -0.04276   0.99876   0.02538
           Z           -0.01561  -0.02607   0.99954
 This molecule is an asymmetric top.
 Rotational symmetry number  1.
 Warning -- assumption of classical behavior for rotation
           may cause significant error
 Rotational temperatures (Kelvin)      0.11993     0.09391     0.07440
 Rotational constants (GHZ):           2.49888     1.95686     1.55024
 Zero-point vibrational energy     422794.3 (Joules/Mol)
                                  101.05025 (Kcal/Mol)
 Warning -- explicit consideration of   9 degrees of freedom as
           vibrations may cause significant error
 Vibrational temperatures:    209.22   278.24   406.78   474.26   533.41
          (Kelvin)            619.69   639.43   689.24   781.70   911.24
                              969.31  1078.02  1168.79  1211.29  1233.30
                             1305.36  1316.02  1347.65  1371.92  1395.41
                             1426.05  1449.65  1522.17  1532.21  1633.06
                             1662.27  1712.25  1731.04  1792.70  1812.90
                             1820.49  1895.93  1907.28  1940.01  1959.04
                             1993.16  2033.92  2117.39  2133.58  2152.48
                             2176.14  4308.72  4357.29  4386.56  4396.83
                             4436.77  4445.62  4479.44  4507.09  4638.99
                             5399.54

 Zero-point correction=                           0.161034 (Hartree/Particle)
 Thermal correction to Energy=                    0.168361
 Thermal correction to Enthalpy=                  0.169305
 Thermal correction to Gibbs Free Energy=         0.129774
 Sum of electronic and zero-point Energies=           -422.978056
 Sum of electronic and thermal Energies=              -422.970729
 Sum of electronic and thermal Enthalpies=            -422.969785
 Sum of electronic and thermal Free Energies=         -423.009316

                     E (Thermal)             CV                S
                      KCal/Mol        Cal/Mol-Kelvin    Cal/Mol-Kelvin
 Total                  105.648             30.265             83.202
 Electronic               0.000              0.000              0.000
 Translational            0.889              2.981             40.409
 Rotational               0.889              2.981             28.141
 Vibrational            103.871             24.303             14.652
 Vibration     1          0.617              1.908              2.731
 Vibration     2          0.635              1.849              2.195
 Vibration     3          0.682              1.706              1.517
 Vibration     4          0.712              1.616              1.262
 Vibration     5          0.743              1.532              1.077
 Vibration     6          0.792              1.403              0.856
 Vibration     7          0.804              1.373              0.813
 Vibration     8          0.835              1.297              0.713
 Vibration     9          0.898              1.154              0.558

 Normal termination of Gaussian 09 at Tue Jan 28 09:07:57 2020.
