 Gaussian 09, Revision D.01,
 Gaussian 09:  ES64L-G09RevD.01 24-Apr-2013

 -----------------------------
 # b3lyp 6-31G(2df,p) opt Freq
 -----------------------------

 -----
 titel
 -----
 Symbolic Z-matrix:
 Charge =  0 Multiplicity = 1

 SCF Done:  E(RB3LYP) =  -423.131232311     A.U. after   12 cycles
 Optimization completed.
    -- Stationary point found.
 Normal termination of Gaussian 09 at Tue Jan 28 09:43:50 2020.

 ----------------------------------------------------------------------
 #N Geom=AllCheck Guess=TCheck SCRF=Check GenChk RB3LYP/6-31G(2df,p) Fr
 eq
 ----------------------------------------------------------------------

 Structure from the checkpoint file:  "/scratch/puck/g09_3e31d472-6538-4e38-a33f-8d8e998c0368/Gau-132329.chk"
 -----
 titel
 -----
 Charge =  0 Multiplicity = 1

                         Standard orientation:
 ---------------------------------------------------------------------
 Center     Atomic      Atomic             Coordinates (Angstroms)
 Number     Number       Type             X           Y           Z
 ---------------------------------------------------------------------
      1          6           0        2.712691   -0.617852    0.054847
      2          8           0        1.736795    0.095513   -0.684722
      3          6           0        0.500474    0.154396   -0.056797
      4          6           0        0.288004    1.108295    1.104710
      5          6           0       -0.386073    1.349544   -0.234836
      6          8           0       -1.715983    0.934906   -0.423315
      7          6           0       -1.775424   -0.471812   -0.506655
      8          6           0       -1.561061   -1.284281    0.743016
      9          6           0       -0.414382   -1.050839   -0.221726
     10          1           0        2.428187   -1.670124    0.196871
     11          1           0        3.640220   -0.575761   -0.520332
     12          1           0        2.878566   -0.167017    1.043096
     13          1           0       -0.300622    0.821289    1.967549
     14          1           0        1.120596    1.770472    1.321140
     15          1           0       -0.111126    2.216765   -0.824951
     16          1           0       -2.444468   -0.819139   -1.286320
     17          1           0       -1.567611   -0.786241    1.704806
     18          1           0       -1.991711   -2.280516    0.755010
     19          1           0       -0.003895   -1.877790   -0.787924
 ---------------------------------------------------------------------

 SCF Done:  E(RB3LYP) =  -423.131232311     A.U. after    1 cycles

 The electronic state is 1-A.
 Alpha  occ. eigenvalues --  -19.14986 -19.14733 -10.24199 -10.23466 -10.23130
 Alpha  occ. eigenvalues --  -10.22664 -10.19538 -10.18773 -10.18490  -1.05666
 Alpha  occ. eigenvalues --   -1.03790  -0.85331  -0.83461  -0.69756  -0.64134
 Alpha  occ. eigenvalues --   -0.62703  -0.57708  -0.55667  -0.53450  -0.48566
 Alpha  occ. eigenvalues --   -0.46508  -0.45831  -0.44594  -0.43708  -0.41425
 Alpha  occ. eigenvalues --   -0.39907  -0.37610  -0.36936  -0.34246  -0.30604
 Alpha  occ. eigenvalues --   -0.30038  -0.27369  -0.25069  -0.22863
 Alpha virt. eigenvalues --    0.08022   0.09226   0.10433   0.11431   0.12050
 Alpha virt. eigenvalues --    0.14030   0.14910   0.15736   0.16182   0.17845
 Alpha virt. eigenvalues --    0.17893   0.19024   0.19355   0.20247   0.22163

 Mulliken charges:
               1
     1  C   -0.252962
     2  O   -0.288149
     3  C    0.403254
     4  C   -0.391732
     5  C    0.027301
     6  O   -0.262849
     7  C    0.108213
     8  C   -0.334388
     9  C   -0.142876
    10  H    0.110942
    11  H    0.127623
    12  H    0.111603
    13  H    0.118873
    14  H    0.118814
    15  H    0.112099
    16  H    0.101963
    17  H    0.120739
    18  H    0.113559
    19  H    0.097970
 Sum of Mulliken charges =   0.00000

 Dipole moment (field-independent basis, Debye):
    X=              1.0298    Y=             -1.3850    Z=              0.8917  Tot=              1.9427
 Quadrupole moment (field-independent basis, Debye-Ang):
   XX=            -52.8536   YY=            -51.1501   ZZ=            -53.2761
   XY=              2.5596   XZ=              1.5740   YZ=              1.2119

  Exact polarizability:  82.945   3.614  74.065   1.017   0.751  65.603
 Approx polarizability: 112.079   0.711 107.643   1.422  -0.607 102.458

                      1                      2                      3
                      A                      A                      A
 Frequencies --    114.7223               154.9826               185.2808
 Red. masses --      2.6403                 3.2335                 1.1126
 Frc consts  --      0.0205                 0.0458                 0.0225
 IR Inten    --      1.5318                 0.3032                 0.1370

                      4                      5                      6
                      A                      A                      A
 Frequencies --    254.3688               295.1740               381.4819
 Red. masses --      3.4576                 2.5851                 4.2371
 Frc consts  --      0.1318                 0.1327                 0.3633
 IR Inten    --      3.0724                 1.5870                11.0639

                      7                      8                      9
                      A                      A                      A
 Frequencies --    391.3128               469.1864               484.3252
 Red. masses --      3.9311                 2.1982                 2.6890
 Frc consts  --      0.3547                 0.2851                 0.3716
 IR Inten    --      0.7085                 0.0881                 3.2371

                     10                     11                     12
                      A                      A                      A
 Frequencies --    637.1785               706.5660               715.5559
 Red. masses --      3.3844                 2.5884                 4.9657
 Frc consts  --      0.8096                 0.7613                 1.4980
 IR Inten    --      9.6917                 7.6816                 3.9393

                     13                     14                     15
                      A                      A                      A
 Frequencies --    783.9085               820.0758               842.4344
 Red. masses --      1.5241                 2.6615                 1.9320
 Frc consts  --      0.5518                 1.0546                 0.8078
 IR Inten    --     10.6334                16.8174                 2.7062

                     16                     17                     18
                      A                      A                      A
 Frequencies --    901.8055               953.8963               978.5034
 Red. masses --      1.5968                 2.5830                 1.7100
 Frc consts  --      0.7651                 1.3848                 0.9647
 IR Inten    --      5.2461                17.3542                 8.5112

                     19                     20                     21
                      A                      A                      A
 Frequencies --    979.3421               988.2982              1001.6599
 Red. masses --      3.7582                 2.2536                 1.9224
 Frc consts  --      2.1237                 1.2969                 1.1364
 IR Inten    --     10.1196                 5.0222                 9.1883

                     22                     23                     24
                      A                      A                      A
 Frequencies --   1032.8717              1060.8998              1083.4509
 Red. masses --      1.5406                 1.5970                 1.6085
 Frc consts  --      0.9683                 1.0590                 1.1125
 IR Inten    --      1.1809                 5.6178                 0.6020

                     25                     26                     27
                      A                      A                      A
 Frequencies --   1094.1500              1098.3859              1113.6462
 Red. masses --      1.9551                 2.0071                 1.7032
 Frc consts  --      1.3790                 1.4267                 1.2445
 IR Inten    --     31.5680                36.3653                 0.8472

                     28                     29                     30
                      A                      A                      A
 Frequencies --   1167.1501              1183.6818              1192.8533
 Red. masses --      3.1480                 1.2885                 1.7209
 Frc consts  --      2.5266                 1.0636                 1.4427
 IR Inten    --     92.6486                 1.8512                27.0301

                     31                     32                     33
                      A                      A                      A
 Frequencies --   1212.7580              1244.9714              1272.4135
 Red. masses --      1.8750                 2.2309                 1.6533
 Frc consts  --      1.6248                 2.0372                 1.5771
 IR Inten    --     28.1112                82.2396                15.5562

                     34                     35                     36
                      A                      A                      A
 Frequencies --   1321.3755              1371.3707              1394.0583
 Red. masses --      1.9806                 1.8229                 1.6631
 Frc consts  --      2.0375                 2.0199                 1.9043
 IR Inten    --     24.6122                35.9031                12.5734

                     37                     38                     39
                      A                      A                      A
 Frequencies --   1460.2330              1482.0693              1487.0035
 Red. masses --      1.3258                 1.2030                 1.0870
 Frc consts  --      1.6656                 1.5568                 1.4162
 IR Inten    --     11.7418                 5.7354                 2.5935

                     40                     41                     42
                      A                      A                      A
 Frequencies --   1489.7622              1508.1771              2993.3965
 Red. masses --      1.2586                 1.0561                 1.0350
 Frc consts  --      1.6457                 1.4154                 5.4640
 IR Inten    --     11.1992                 6.1472                47.7803

                     43                     44                     45
                      A                      A                      A
 Frequencies --   3046.4763              3122.4216              3132.4877
 Red. masses --      1.1034                 1.0985                 1.0542
 Frc consts  --      6.0336                 6.3099                 6.0948
 IR Inten    --     42.8431                29.5376                 5.7122

                     46                     47                     48
                      A                      A                      A
 Frequencies --   3137.8296              3168.1998              3174.5161
 Red. masses --      1.0552                 1.0901                 1.0929
 Frc consts  --      6.1211                 6.4467                 6.4890
 IR Inten    --     12.0584                25.0630                13.9421

                     49                     50                     51
                      A                      A                      A
 Frequencies --   3189.3264              3221.9922              3229.2543
 Red. masses --      1.0930                 1.1158                 1.1138
 Frc consts  --      6.5504                 6.8245                 6.8431
 IR Inten    --      5.5984                10.3464                 6.7962

 - Thermochemistry -
 -------------------
 Temperature   298.150 Kelvin.  Pressure   1.00000 Atm.
 Atom     1 has atomic number  6 and mass  12.00000

 Molecular mass:   126.06808 amu.
 Principal axes and moments of inertia in atomic units:
                           1         2         3
     Eigenvalues --   581.098591248.019841475.88838
           X            0.99989   0.01331   0.00669
           Y           -0.01344   0.99970   0.02043
           Z           -0.00642  -0.02051   0.99977
 This molecule is an asymmetric top.
 Rotational symmetry number  1.
 Warning -- assumption of classical behavior for rotation
           may cause significant error
 Rotational temperatures (Kelvin)      0.14905     0.06940     0.05869
 Rotational constants (GHZ):           3.10574     1.44608     1.22282
 Zero-point vibrational energy     417061.5 (Joules/Mol)
                                   99.68010 (Kcal/Mol)
 Warning -- explicit consideration of   9 degrees of freedom as
           vibrations may cause significant error
 Vibrational temperatures:    165.06   222.99   266.58   365.98   424.69
          (Kelvin)            548.87   563.01   675.05   696.83   916.76
                             1016.59  1029.52  1127.87  1179.90  1212.07
                             1297.50  1372.44  1407.85  1409.05  1421.94
                             1441.16  1486.07  1526.40  1558.84  1574.24
                             1580.33  1602.29  1679.27  1703.05  1716.25
                             1744.89  1791.23  1830.72  1901.16  1973.09
                             2005.74  2100.95  2132.36  2139.46  2143.43
                             2169.93  4306.82  4383.19  4492.46  4506.95
                             4514.63  4558.33  4567.41  4588.72  4635.72
                             4646.17

 Zero-point correction=                           0.158850 (Hartree/Particle)
 Thermal correction to Energy=                    0.166789
 Thermal correction to Enthalpy=                  0.167733
 Thermal correction to Gibbs Free Energy=         0.126618
 Sum of electronic and zero-point Energies=           -422.972382
 Sum of electronic and thermal Energies=              -422.964443
 Sum of electronic and thermal Enthalpies=            -422.963499
 Sum of electronic and thermal Free Energies=         -423.004615

                     E (Thermal)             CV                S
                      KCal/Mol        Cal/Mol-Kelvin    Cal/Mol-Kelvin
 Total                  104.662             31.375             86.535
 Electronic               0.000              0.000              0.000
 Translational            0.889              2.981             40.409
 Rotational               0.889              2.981             28.461
 Vibrational            102.884             25.413             17.665
 Vibration     1          0.608              1.937              3.187
 Vibration     2          0.620              1.897              2.610
 Vibration     3          0.631              1.860              2.275
 Vibration     4          0.665              1.755              1.700
 Vibration     5          0.689              1.683              1.444
 Vibration     6          0.751              1.510              1.033
 Vibration     7          0.759              1.489              0.995
 Vibration     8          0.826              1.318              0.740
 Vibration     9          0.840              1.285              0.698

 Optimization completed.
    -- Stationary point found.
 Normal termination of Gaussian 09 at Tue Jan 28 10:27:43 2020.
