 Gaussian 09, Revision D.01,
 Gaussian 09:  ES64L-G09RevD.01 24-Apr-2013

 -----------------------------
 # b3lyp 6-31G(2df,p) opt Freq
 -----------------------------

 -----
 titel
 -----
 Symbolic Z-matrix:
 Charge =  0 Multiplicity = 1

 SCF Done:  E(RB3LYP) =  -423.123133222     A.U. after   14 cycles
 SCF Done:  E(RB3LYP) =  -423.123133357     A.U. after    7 cycles
 SCF Done:  E(RB3LYP) =  -423.123133098     A.U. after    7 cycles
 SCF Done:  E(RB3LYP) =  -423.123133368     A.U. after    7 cycles
 SCF Done:  E(RB3LYP) =  -423.123133509     A.U. after    7 cycles
 Optimization completed.
    -- Stationary point found.
 Normal termination of Gaussian 09 at Tue Jan 28 09:10:28 2020.

 ----------------------------------------------------------------------
 #N Geom=AllCheck Guess=TCheck SCRF=Check GenChk RB3LYP/6-31G(2df,p) Fr
 eq
 ----------------------------------------------------------------------

 Structure from the checkpoint file:  "/scratch/puck/g09_f227ff97-de14-4f7d-86fc-98eea2e6c766/Gau-60222.chk"
 -----
 titel
 -----
 Charge =  0 Multiplicity = 1

                         Standard orientation:
 ---------------------------------------------------------------------
 Center     Atomic      Atomic             Coordinates (Angstroms)
 Number     Number       Type             X           Y           Z
 ---------------------------------------------------------------------
      1          8           0        2.263244   -1.325032   -0.055846
      2          6           0        1.006003   -1.144826   -0.657836
      3          6           0        0.206532    0.000391    0.004002
      4          8           0        0.128789   -0.380210    1.391259
      5          6           0        0.913754    1.280140   -0.119733
      6          6           0        1.457158    2.349297   -0.201311
      7          6           0       -1.184617    0.106651   -0.621054
      8          6           0       -2.352304    0.638974    0.163333
      9          6           0       -2.286259   -0.826049   -0.192025
     10          1           0        2.091829   -1.353882    0.893762
     11          1           0        1.173957   -0.914394   -1.713603
     12          1           0        0.384120   -2.051083   -0.595515
     13          1           0        0.119903    0.424986    1.918178
     14          1           0        1.954795    3.284377   -0.281270
     15          1           0       -1.148626    0.375849   -1.672596
     16          1           0       -2.188377    0.899198    1.203032
     17          1           0       -3.064514    1.274156   -0.350602
     18          1           0       -2.064901   -1.513680    0.615555
     19          1           0       -2.956052   -1.211068   -0.952501
 ---------------------------------------------------------------------

 SCF Done:  E(RB3LYP) =  -423.123133509     A.U. after    1 cycles

 The electronic state is 1-A.
 Alpha  occ. eigenvalues --  -19.15870 -19.12785 -10.26612 -10.22631 -10.19701
 Alpha  occ. eigenvalues --  -10.18846 -10.18653 -10.18631 -10.18273  -1.04483
 Alpha  occ. eigenvalues --   -1.00800  -0.86117  -0.78024  -0.72630  -0.64220
 Alpha  occ. eigenvalues --   -0.60305  -0.58457  -0.56580  -0.51232  -0.50722
 Alpha  occ. eigenvalues --   -0.49480  -0.46566  -0.43979  -0.41714  -0.38625
 Alpha  occ. eigenvalues --   -0.37995  -0.36478  -0.33928  -0.30767  -0.30138
 Alpha  occ. eigenvalues --   -0.29229  -0.28176  -0.27083  -0.25612
 Alpha virt. eigenvalues --    0.02789   0.04726   0.07445   0.09747   0.11537
 Alpha virt. eigenvalues --    0.12387   0.12861   0.13289   0.14961   0.16359
 Alpha virt. eigenvalues --    0.17681   0.18733   0.21361   0.22699   0.23448

 Mulliken charges:
               1
     1  O   -0.422970
     2  C   -0.052670
     3  C    0.089646
     4  O   -0.464011
     5  C    0.328154
     6  C   -0.479669
     7  C    0.007774
     8  C   -0.273266
     9  C   -0.275751
    10  H    0.286021
    11  H    0.112196
    12  H    0.096411
    13  H    0.295251
    14  H    0.202242
    15  H    0.094666
    16  H    0.103652
    17  H    0.113644
    18  H    0.127774
    19  H    0.110906
 Sum of Mulliken charges =   0.00000

 Dipole moment (field-independent basis, Debye):
    X=             -1.4959    Y=              1.3884    Z=              0.4456  Tot=              2.0890
 Quadrupole moment (field-independent basis, Debye-Ang):
   XX=            -57.4920   YY=            -50.5051   ZZ=            -49.3597
   XY=              3.8992   XZ=              2.8382   YZ=              0.7723

  Exact polarizability:  81.873   9.799  85.299  -0.355  -0.175  64.095
 Approx polarizability: 108.502  18.315 131.430  -2.329  -2.890  98.739

                      1                      2                      3
                      A                      A                      A
 Frequencies --     76.3295               116.1688               142.5913
 Red. masses --      2.9410                 4.0162                 2.9913
 Frc consts  --      0.0101                 0.0319                 0.0358
 IR Inten    --      0.1236                 2.1634                 0.8945

                      4                      5                      6
                      A                      A                      A
 Frequencies --    163.0528               197.5332               268.0889
 Red. masses --      3.5983                 3.1491                 4.4844
 Frc consts  --      0.0564                 0.0724                 0.1899
 IR Inten    --      0.4295                 0.3574                 5.3842

                      7                      8                      9
                      A                      A                      A
 Frequencies --    285.2738               327.0181               392.0841
 Red. masses --      1.3747                 2.1943                 3.3736
 Frc consts  --      0.0659                 0.1383                 0.3056
 IR Inten    --     76.7529                 9.6297                 8.7623

                     10                     11                     12
                      A                      A                      A
 Frequencies --    414.2555               463.9168               477.4237
 Red. masses --      3.0015                 1.2683                 4.2138
 Frc consts  --      0.3035                 0.1608                 0.5659
 IR Inten    --     10.6112               108.9922                 1.6146

                     13                     14                     15
                      A                      A                      A
 Frequencies --    554.6256               624.2922               630.5876
 Red. masses --      4.7645                 1.5719                 2.0373
 Frc consts  --      0.8635                 0.3609                 0.4773
 IR Inten    --     14.0359                20.0675                34.8750

                     16                     17                     18
                      A                      A                      A
 Frequencies --    671.5065               728.0988               788.5646
 Red. masses --      1.2440                 3.9543                 1.0882
 Frc consts  --      0.3305                 1.2351                 0.3987
 IR Inten    --     34.7531                15.0078                 0.6733

                     19                     20                     21
                      A                      A                      A
 Frequencies --    826.6970               896.7489               915.6292
 Red. masses --      1.2068                 3.3688                 2.5196
 Frc consts  --      0.4859                 1.5961                 1.2446
 IR Inten    --      7.2774                 0.4550                26.1734

                     22                     23                     24
                      A                      A                      A
 Frequencies --    938.3511              1028.1477              1051.7075
 Red. masses --      3.5168                 2.1404                 3.5548
 Frc consts  --      1.8245                 1.3331                 2.3166
 IR Inten    --     17.8156                26.8543                60.4528

                     25                     26                     27
                      A                      A                      A
 Frequencies --   1064.0458              1086.4725              1094.1070
 Red. masses --      1.3094                 1.5184                 2.2362
 Frc consts  --      0.8735                 1.0560                 1.5772
 IR Inten    --      4.5371                22.3282                86.3072

                     28                     29                     30
                      A                      A                      A
 Frequencies --   1121.7684              1136.7977              1161.8785
 Red. masses --      2.6542                 1.1241                 1.8807
 Frc consts  --      1.9678                 0.8559                 1.4958
 IR Inten    --      9.4928                 1.2056                20.3300

                     31                     32                     33
                      A                      A                      A
 Frequencies --   1198.1507              1228.1001              1246.7736
 Red. masses --      1.3563                 1.7437                 1.5371
 Frc consts  --      1.1472                 1.5495                 1.4078
 IR Inten    --      0.7680                 1.4414                22.2971

                     34                     35                     36
                      A                      A                      A
 Frequencies --   1352.2386              1376.4544              1393.8027
 Red. masses --      1.5780                 1.2544                 1.6973
 Frc consts  --      1.7001                 1.4003                 1.9427
 IR Inten    --     72.8578                12.8806                 6.8797

                     37                     38                     39
                      A                      A                      A
 Frequencies --   1436.3194              1457.9710              1496.3882
 Red. masses --      1.2430                 1.0890                 1.0929
 Frc consts  --      1.5109                 1.3639                 1.4419
 IR Inten    --     70.3851                 2.1484                 1.1194

                     40                     41                     42
                      A                      A                      A
 Frequencies --   1501.0121              2231.4306              2989.9355
 Red. masses --      1.4149                 5.9096                 1.0685
 Frc consts  --      1.8782                17.3369                 5.6282
 IR Inten    --      0.8641                 0.8747                49.3372

                     43                     44                     45
                      A                      A                      A
 Frequencies --   3094.2223              3138.5403              3141.8414
 Red. masses --      1.0942                 1.0515                 1.0575
 Frc consts  --      6.1722                 6.1026                 6.1504
 IR Inten    --     18.0821                17.3352                12.2123

                     46                     47                     48
                      A                      A                      A
 Frequencies --   3153.1013              3219.2534              3235.1036
 Red. masses --      1.0878                 1.1174                 1.1156
 Frc consts  --      6.3720                 6.8231                 6.8794
 IR Inten    --      6.6804                 2.2618                11.8017

                     49                     50                     51
                      A                      A                      A
 Frequencies --   3499.8694              3782.3973              3829.9221
 Red. masses --      1.1623                 1.0648                 1.0666
 Frc consts  --      8.3884                 8.9755                 9.2183
 IR Inten    --     66.2603                29.7809                35.3610

 - Thermochemistry -
 -------------------
 Temperature   298.150 Kelvin.  Pressure   1.00000 Atm.
 Atom     1 has atomic number  8 and mass  15.99491

 Molecular mass:   126.06808 amu.
 Principal axes and moments of inertia in atomic units:
                           1         2         3
     Eigenvalues --   804.975471322.940021729.22623
           X            0.99988   0.01491   0.00495
           Y           -0.01499   0.99978   0.01493
           Z           -0.00473  -0.01500   0.99988
 This molecule is an asymmetric top.
 Rotational symmetry number  1.
 Warning -- assumption of classical behavior for rotation
           may cause significant error
 Rotational temperatures (Kelvin)      0.10760     0.06547     0.05009
 Rotational constants (GHZ):           2.24198     1.36419     1.04367
 Zero-point vibrational energy     410597.8 (Joules/Mol)
                                   98.13523 (Kcal/Mol)
 Warning -- explicit consideration of  13 degrees of freedom as
           vibrations may cause significant error
 Vibrational temperatures:    109.82   167.14   205.16   234.60   284.21
          (Kelvin)            385.72   410.44   470.51   564.12   596.02
                              667.47   686.91   797.98   898.22   907.27
                              966.15  1047.57  1134.57  1189.43  1290.22
                             1317.38  1350.08  1479.27  1513.17  1530.92
                             1563.19  1574.17  1613.97  1635.60  1671.68
                             1723.87  1766.96  1793.83  1945.57  1980.41
                             2005.37  2066.54  2097.69  2152.97  2159.62
                             3210.53  4301.84  4451.89  4515.65  4520.40
                             4536.60  4631.78  4654.59  5035.53  5442.02
                             5510.40

 Zero-point correction=                           0.156388 (Hartree/Particle)
 Thermal correction to Energy=                    0.166252
 Thermal correction to Enthalpy=                  0.167196
 Thermal correction to Gibbs Free Energy=         0.121936
 Sum of electronic and zero-point Energies=           -422.966745
 Sum of electronic and thermal Energies=              -422.956881
 Sum of electronic and thermal Enthalpies=            -422.955937
 Sum of electronic and thermal Free Energies=         -423.001197

                     E (Thermal)             CV                S
                      KCal/Mol        Cal/Mol-Kelvin    Cal/Mol-Kelvin
 Total                  104.325             37.121             95.258
 Electronic               0.000              0.000              0.000
 Translational            0.889              2.981             40.409
 Rotational               0.889              2.981             29.000
 Vibrational            102.547             31.160             25.849
 Vibration     1          0.599              1.965              3.983
 Vibration     2          0.608              1.936              3.163
 Vibration     3          0.616              1.911              2.769
 Vibration     4          0.623              1.888              2.514
 Vibration     5          0.637              1.843              2.156
 Vibration     6          0.673              1.732              1.609
 Vibration     7          0.683              1.701              1.502
 Vibration     8          0.711              1.621              1.275
 Vibration     9          0.760              1.487              0.992
 Vibration    10          0.778              1.439              0.912
 Vibration    11          0.821              1.330              0.755
 Vibration    12          0.834              1.300              0.717
 Vibration    13          0.910              1.130              0.535

 Optimization completed.
    -- Stationary point found.
 Normal termination of Gaussian 09 at Tue Jan 28 11:00:37 2020.
