 Gaussian 09, Revision D.01,
 Gaussian 09:  ES64L-G09RevD.01 24-Apr-2013

 -----------------------------
 # b3lyp 6-31G(2df,p) opt Freq
 -----------------------------

 -----
 titel
 -----
 Symbolic Z-matrix:
 Charge =  0 Multiplicity = 1

 SCF Done:  E(RB3LYP) =  -423.191287765     A.U. after   14 cycles
 Optimization completed.
    -- Stationary point found.
 Normal termination of Gaussian 09 at Mon Jan 27 23:04:20 2020.

 ----------------------------------------------------------------------
 #N Geom=AllCheck Guess=TCheck SCRF=Check GenChk RB3LYP/6-31G(2df,p) Fr
 eq
 ----------------------------------------------------------------------

 Structure from the checkpoint file:  "/scratch/puck/g09_0bd5d659-43dc-4778-909f-355b00a7106c/Gau-182268.chk"
 -----
 titel
 -----
 Charge =  0 Multiplicity = 1

                         Standard orientation:
 ---------------------------------------------------------------------
 Center     Atomic      Atomic             Coordinates (Angstroms)
 Number     Number       Type             X           Y           Z
 ---------------------------------------------------------------------
      1          6           0        0.028482    2.216845   -0.381008
      2          6           0        0.422689    1.031846    0.486188
      3          6           0       -0.613582    0.052199    1.096663
      4          8           0        0.435646   -0.963594    1.150985
      5          6           0        0.924005   -0.331203   -0.091158
      6          6           0        2.362446   -0.613816   -0.417161
      7          6           0       -0.184085   -0.773913   -1.070892
      8          6           0       -1.375858   -0.435467   -0.146924
      9          8           0       -2.554801   -0.523069   -0.344886
     10          1           0       -0.706112    1.956195   -1.148348
     11          1           0       -0.408458    3.011184    0.232707
     12          1           0        0.906130    2.636535   -0.883988
     13          1           0        1.110125    1.331047    1.282797
     14          1           0       -1.160863    0.216053    2.022738
     15          1           0        2.661434   -0.072585   -1.320771
     16          1           0        3.012918   -0.305520    0.406185
     17          1           0        2.514408   -1.682985   -0.596694
     18          1           0       -0.231586   -0.230039   -2.018191
     19          1           0       -0.129348   -1.845522   -1.279486
 ---------------------------------------------------------------------

 SCF Done:  E(RB3LYP) =  -423.191287765     A.U. after    1 cycles

 The electronic state is 1-A.
 Alpha  occ. eigenvalues --  -19.14617 -19.13697 -10.27045 -10.25365 -10.24214
 Alpha  occ. eigenvalues --  -10.20750 -10.19297 -10.19094 -10.18999  -1.06427
 Alpha  occ. eigenvalues --   -1.04082  -0.80991  -0.76509  -0.74359  -0.68391
 Alpha  occ. eigenvalues --   -0.64398  -0.56268  -0.52448  -0.49272  -0.47108
 Alpha  occ. eigenvalues --   -0.46391  -0.45458  -0.42699  -0.41566  -0.41135
 Alpha  occ. eigenvalues --   -0.40854  -0.38754  -0.37724  -0.36230  -0.35831
 Alpha  occ. eigenvalues --   -0.33108  -0.31517  -0.28035  -0.22898
 Alpha virt. eigenvalues --   -0.01714   0.07951   0.09327   0.11007   0.11990
 Alpha virt. eigenvalues --    0.12680   0.13086   0.14706   0.15563   0.16695
 Alpha virt. eigenvalues --    0.17290   0.18433   0.18983   0.19440   0.21191

 Mulliken charges:
               1
     1  C   -0.443177
     2  C   -0.020688
     3  C   -0.055977
     4  O   -0.331776
     5  C    0.391938
     6  C   -0.494998
     7  C   -0.385302
     8  C    0.443999
     9  O   -0.326226
    10  H    0.132074
    11  H    0.131023
    12  H    0.125295
    13  H    0.092394
    14  H    0.094470
    15  H    0.126169
    16  H    0.129611
    17  H    0.133812
    18  H    0.123081
    19  H    0.134278
 Sum of Mulliken charges =   0.00000

 Dipole moment (field-independent basis, Debye):
    X=              2.7013    Y=              1.6959    Z=             -0.7110  Tot=              3.2679
 Quadrupole moment (field-independent basis, Debye-Ang):
   XX=            -60.0364   YY=            -52.2979   ZZ=            -52.4636
   XY=             -1.2932   XZ=             -3.2016   YZ=              2.3374

  Exact polarizability:  83.355  -0.473  71.643  -1.625   3.003  69.626
 Approx polarizability: 123.161  -0.605 102.824   0.718   1.121 107.636

                      1                      2                      3
                      A                      A                      A
 Frequencies --    116.3089               173.7623               189.2869
 Red. masses --      5.4945                 1.0803                 1.1535
 Frc consts  --      0.0438                 0.0192                 0.0243
 IR Inten    --      4.1091                 0.0312                 0.1475

                      4                      5                      6
                      A                      A                      A
 Frequencies --    206.2225               247.5936               282.4657
 Red. masses --      1.9866                 2.5429                 2.7214
 Frc consts  --      0.0498                 0.0918                 0.1279
 IR Inten    --      0.1925                 0.5276                 0.2752

                      7                      8                      9
                      A                      A                      A
 Frequencies --    365.6980               457.0604               463.3053
 Red. masses --      3.1560                 2.2857                 3.4929
 Frc consts  --      0.2487                 0.2813                 0.4417
 IR Inten    --      3.1959                 1.2400                 9.1514

                     10                     11                     12
                      A                      A                      A
 Frequencies --    547.3682               577.8707               646.3765
 Red. masses --      5.8600                 4.3208                 2.8152
 Frc consts  --      1.0345                 0.8501                 0.6930
 IR Inten    --      1.9740                10.0576                 3.5237

                     13                     14                     15
                      A                      A                      A
 Frequencies --    676.7051               734.1577               789.8426
 Red. masses --      3.5889                 2.7605                 3.1274
 Frc consts  --      0.9683                 0.8766                 1.1495
 IR Inten    --      1.0836                 6.3068                 0.1623

                     16                     17                     18
                      A                      A                      A
 Frequencies --    808.9571               861.3627               893.1620
 Red. masses --      3.8488                 2.9137                 1.9470
 Frc consts  --      1.4840                 1.2737                 0.9151
 IR Inten    --     22.4970                18.5902                 3.0457

                     19                     20                     21
                      A                      A                      A
 Frequencies --    952.2850               967.2604              1006.0033
 Red. masses --      1.7314                 3.5190                 1.5013
 Frc consts  --      0.9251                 1.9398                 0.8952
 IR Inten    --      1.2170                35.1800                 1.3315

                     22                     23                     24
                      A                      A                      A
 Frequencies --   1053.8644              1072.0612              1110.2056
 Red. masses --      1.3431                 1.7400                 2.1161
 Frc consts  --      0.8789                 1.1783                 1.5367
 IR Inten    --     13.3840                 6.2821                 6.8030

                     25                     26                     27
                      A                      A                      A
 Frequencies --   1138.8680              1161.2523              1176.5703
 Red. masses --      2.5838                 2.1077                 1.7491
 Frc consts  --      1.9745                 1.6746                 1.4266
 IR Inten    --     10.7053                 6.7146                 1.2588

                     28                     29                     30
                      A                      A                      A
 Frequencies --   1189.5253              1245.3639              1260.3139
 Red. masses --      1.5860                 1.5785                 1.9881
 Frc consts  --      1.3222                 1.4424                 1.8605
 IR Inten    --      3.5505                 7.8625                 5.1431

                     31                     32                     33
                      A                      A                      A
 Frequencies --   1268.8380              1327.1330              1386.4564
 Red. masses --      1.9408                 1.9593                 1.5386
 Frc consts  --      1.8410                 2.0332                 1.7426
 IR Inten    --     10.5159                21.6493                 7.4132

                     34                     35                     36
                      A                      A                      A
 Frequencies --   1413.8865              1421.5373              1451.9095
 Red. masses --      1.3154                 1.4811                 1.1526
 Frc consts  --      1.5493                 1.7634                 1.4316
 IR Inten    --     13.1236                17.5285                 7.2862

                     37                     38                     39
                      A                      A                      A
 Frequencies --   1479.7786              1492.8970              1494.9004
 Red. masses --      1.0516                 1.0492                 1.0543
 Frc consts  --      1.3567                 1.3777                 1.3881
 IR Inten    --      4.3782                 4.4853                 2.9807

                     40                     41                     42
                      A                      A                      A
 Frequencies --   1499.9311              1880.6103              3037.6803
 Red. masses --      1.0487                12.5642                 1.0360
 Frc consts  --      1.3901                26.1808                 5.6323
 IR Inten    --      4.4469               247.4712                17.8766

                     43                     44                     45
                      A                      A                      A
 Frequencies --   3038.5501              3067.6269              3070.5498
 Red. masses --      1.0355                 1.0595                 1.0848
 Frc consts  --      5.6327                 5.8741                 6.0258
 IR Inten    --     12.3279                 9.4776                 7.6709

                     46                     47                     48
                      A                      A                      A
 Frequencies --   3101.5554              3108.5698              3112.1958
 Red. masses --      1.1007                 1.1010                 1.1009
 Frc consts  --      6.2387                 6.2682                 6.2822
 IR Inten    --     14.9753                 7.3956                25.9881

                     49                     50                     51
                      A                      A                      A
 Frequencies --   3117.4510              3119.1670              3151.6273
 Red. masses --      1.1018                 1.1041                 1.0921
 Frc consts  --      6.3091                 6.3289                 6.3914
 IR Inten    --     16.8572                11.5779                24.5523

 - Thermochemistry -
 -------------------
 Temperature   298.150 Kelvin.  Pressure   1.00000 Atm.
 Atom     1 has atomic number  6 and mass  12.00000

 Molecular mass:   126.06808 amu.
 Principal axes and moments of inertia in atomic units:
                           1         2         3
     Eigenvalues --   744.091741125.264681340.56709
           X            0.99908  -0.03347  -0.02664
           Y            0.03435   0.99885   0.03342
           Z            0.02549  -0.03431   0.99909
 This molecule is an asymmetric top.
 Rotational symmetry number  1.
 Warning -- assumption of classical behavior for rotation
           may cause significant error
 Rotational temperatures (Kelvin)      0.11640     0.07697     0.06461
 Rotational constants (GHZ):           2.42543     1.60384     1.34625
 Zero-point vibrational energy     415187.5 (Joules/Mol)
                                   99.23220 (Kcal/Mol)
 Warning -- explicit consideration of  11 degrees of freedom as
           vibrations may cause significant error
 Vibrational temperatures:    167.34   250.00   272.34   296.71   356.23
          (Kelvin)            406.40   526.16   657.61   666.59   787.54
                              831.43   929.99   973.63  1056.29  1136.41
                             1163.91  1239.31  1285.06  1370.12  1391.67
                             1447.41  1516.27  1542.46  1597.34  1638.58
                             1670.78  1692.82  1711.46  1791.80  1813.31
                             1825.57  1909.45  1994.80  2034.26  2045.27
                             2088.97  2129.07  2147.94  2150.83  2158.06
                             2705.78  4370.54  4371.79  4413.63  4417.83
                             4462.44  4472.53  4477.75  4485.31  4487.78
                             4534.48

 Zero-point correction=                           0.158137 (Hartree/Particle)
 Thermal correction to Energy=                    0.166569
 Thermal correction to Enthalpy=                  0.167513
 Thermal correction to Gibbs Free Energy=         0.125527
 Sum of electronic and zero-point Energies=           -423.033151
 Sum of electronic and thermal Energies=              -423.024719
 Sum of electronic and thermal Enthalpies=            -423.023775
 Sum of electronic and thermal Free Energies=         -423.065761

                     E (Thermal)             CV                S
                      KCal/Mol        Cal/Mol-Kelvin    Cal/Mol-Kelvin
 Total                  104.523             32.718             88.366
 Electronic               0.000              0.000              0.000
 Translational            0.889              2.981             40.409
 Rotational               0.889              2.981             28.508
 Vibrational            102.746             26.757             19.449
 Vibration     1          0.608              1.936              3.161
 Vibration     2          0.627              1.875              2.394
 Vibration     3          0.633              1.855              2.235
 Vibration     4          0.641              1.831              2.077
 Vibration     5          0.661              1.767              1.748
 Vibration     6          0.682              1.706              1.519
 Vibration     7          0.739              1.543              1.098
 Vibration     8          0.815              1.345              0.775
 Vibration     9          0.821              1.331              0.757
 Vibration    10          0.903              1.145              0.550
 Vibration    11          0.934              1.079              0.489

 Optimization completed.
    -- Stationary point found.
 Normal termination of Gaussian 09 at Mon Jan 27 23:52:37 2020.
