 Gaussian 09, Revision D.01,
 Gaussian 09:  ES64L-G09RevD.01 24-Apr-2013

 -----------------------------
 # b3lyp 6-31G(2df,p) opt Freq
 -----------------------------

 -----
 titel
 -----
 Symbolic Z-matrix:
 Charge =  0 Multiplicity = 1

 SCF Done:  E(RB3LYP) =  -423.225134663     A.U. after   14 cycles
 Optimization completed.
    -- Stationary point found.
 Normal termination of Gaussian 09 at Mon Jan 27 22:08:55 2020.

 ----------------------------------------------------------------------
 #N Geom=AllCheck Guess=TCheck SCRF=Check GenChk RB3LYP/6-31G(2df,p) Fr
 eq
 ----------------------------------------------------------------------

 Structure from the checkpoint file:  "/scratch/puck/g09_ad82eef7-d2ab-4b32-a31f-90367bbe0c1c/Gau-51381.chk"
 -----
 titel
 -----
 Charge =  0 Multiplicity = 1

                         Standard orientation:
 ---------------------------------------------------------------------
 Center     Atomic      Atomic             Coordinates (Angstroms)
 Number     Number       Type             X           Y           Z
 ---------------------------------------------------------------------
      1          6           0       -0.562669    2.093263   -0.134977
      2          6           0       -0.302173    0.721879    0.504634
      3          6           0       -1.368516   -0.277891    0.024041
      4          8           0       -2.555384   -0.185697    0.136826
      5          8           0       -0.777588   -1.341891   -0.595890
      6          6           0        0.631399   -1.220813   -0.556082
      7          6           0        1.255964   -1.298958    0.805770
      8          6           0        1.024101    0.053368    0.144482
      9          6           0        2.218529    0.876956   -0.277110
     10          1           0        0.131040    2.845492    0.249624
     11          1           0       -0.459120    2.055609   -1.223995
     12          1           0       -1.582816    2.409706    0.094930
     13          1           0       -0.422323    0.818395    1.590015
     14          1           0        1.105579   -1.609395   -1.448693
     15          1           0        0.618020   -1.605869    1.629250
     16          1           0        2.281806   -1.645614    0.871893
     17          1           0        3.039230    0.229133   -0.600417
     18          1           0        1.980518    1.548634   -1.107313
     19          1           0        2.592031    1.487801    0.552668
 ---------------------------------------------------------------------

 SCF Done:  E(RB3LYP) =  -423.225134663     A.U. after    1 cycles

 The electronic state is 1-A.
 Alpha  occ. eigenvalues --  -19.18362 -19.12251 -10.30158 -10.25150 -10.21476
 Alpha  occ. eigenvalues --  -10.21103 -10.19927 -10.19434 -10.18939  -1.10327
 Alpha  occ. eigenvalues --   -1.02393  -0.87815  -0.78759  -0.72542  -0.67801
 Alpha  occ. eigenvalues --   -0.63664  -0.57860  -0.55171  -0.51464  -0.48879
 Alpha  occ. eigenvalues --   -0.46204  -0.44331  -0.42464  -0.42453  -0.41390
 Alpha  occ. eigenvalues --   -0.40747  -0.39861  -0.38761  -0.36276  -0.35219
 Alpha  occ. eigenvalues --   -0.33713  -0.28903  -0.26778  -0.26538
 Alpha virt. eigenvalues --    0.01021   0.08166   0.09415   0.10624   0.11097
 Alpha virt. eigenvalues --    0.12931   0.14223   0.14578   0.14907   0.17015
 Alpha virt. eigenvalues --    0.17224   0.17808   0.19128   0.20825   0.22493

 Mulliken charges:
               1
     1  C   -0.412480
     2  C   -0.224594
     3  C    0.433167
     4  O   -0.339928
     5  O   -0.217866
     6  C    0.059279
     7  C   -0.363811
     8  C    0.313704
     9  C   -0.484987
    10  H    0.121903
    11  H    0.125816
    12  H    0.146513
    13  H    0.112938
    14  H    0.112963
    15  H    0.125223
    16  H    0.119994
    17  H    0.119192
    18  H    0.127094
    19  H    0.125883
 Sum of Mulliken charges =   0.00000

 Dipole moment (field-independent basis, Debye):
    X=              4.0744    Y=              1.0892    Z=              0.2497  Tot=              4.2249
 Quadrupole moment (field-independent basis, Debye-Ang):
   XX=            -60.8702   YY=            -52.7463   ZZ=            -51.4039
   XY=             -3.1066   XZ=             -0.8932   YZ=             -0.4721

  Exact polarizability:  84.649  -3.676  76.443  -1.076  -0.319  62.356
 Approx polarizability: 121.829  -5.470 107.877  -1.798   3.046  98.367

                      1                      2                      3
                      A                      A                      A
 Frequencies --     77.7720               199.3661               211.3605
 Red. masses --      4.2922                 2.0652                 1.3786
 Frc consts  --      0.0153                 0.0484                 0.0363
 IR Inten    --      1.1994                 0.2853                 0.1939

                      4                      5                      6
                      A                      A                      A
 Frequencies --    257.5789               265.6524               281.2349
 Red. masses --      1.5032                 1.6574                 2.4276
 Frc consts  --      0.0588                 0.0689                 0.1131
 IR Inten    --      1.3736                 1.9749                 0.7400

                      7                      8                      9
                      A                      A                      A
 Frequencies --    311.2597               416.9021               466.3105
 Red. masses --      2.7072                 3.2187                 2.6777
 Frc consts  --      0.1545                 0.3296                 0.3431
 IR Inten    --      1.8447                 2.8106                 0.5100

                     10                     11                     12
                      A                      A                      A
 Frequencies --    496.3231               576.5717               669.4870
 Red. masses --      4.2281                 3.9842                 5.0299
 Frc consts  --      0.6137                 0.7804                 1.3283
 IR Inten    --      1.6675                 4.8420                 3.9408

                     13                     14                     15
                      A                      A                      A
 Frequencies --    706.6650               759.2077               791.6371
 Red. masses --      5.1342                 2.8189                 2.6859
 Frc consts  --      1.5106                 0.9573                 0.9917
 IR Inten    --      3.4389                 2.9499                 4.3869

                     16                     17                     18
                      A                      A                      A
 Frequencies --    853.0000               890.1209               918.3622
 Red. masses --      2.0772                 2.1906                 1.7903
 Frc consts  --      0.8905                 1.0226                 0.8896
 IR Inten    --      7.8982                15.3541                 6.3008

                     19                     20                     21
                      A                      A                      A
 Frequencies --    964.7643              1019.2592              1040.6081
 Red. masses --      1.5036                 1.6894                 1.4234
 Frc consts  --      0.8246                 1.0341                 0.9082
 IR Inten    --      3.2502                39.1398                 1.1743

                     22                     23                     24
                      A                      A                      A
 Frequencies --   1053.6663              1067.7530              1091.3409
 Red. masses --      1.8065                 1.4661                 2.4338
 Frc consts  --      1.1817                 0.9848                 1.7079
 IR Inten    --     21.0637                10.7771                 6.0917

                     25                     26                     27
                      A                      A                      A
 Frequencies --   1111.5294              1130.3576              1143.3368
 Red. masses --      2.1248                 1.9354                 2.9911
 Frc consts  --      1.5467                 1.4570                 2.3037
 IR Inten    --      4.9890                 3.9743                63.0915

                     28                     29                     30
                      A                      A                      A
 Frequencies --   1167.7938              1258.5452              1298.6416
 Red. masses --      2.7961                 1.5408                 1.8119
 Frc consts  --      2.2466                 1.4379                 1.8004
 IR Inten    --    136.3063                 0.8645                10.2724

                     31                     32                     33
                      A                      A                      A
 Frequencies --   1312.4331              1339.8558              1394.6338
 Red. masses --      2.3755                 1.8115                 1.5781
 Frc consts  --      2.4108                 1.9161                 1.8084
 IR Inten    --     33.8535                 0.3416                 9.9313

                     34                     35                     36
                      A                      A                      A
 Frequencies --   1409.1616              1424.2659              1477.3554
 Red. masses --      1.3310                 1.3259                 1.3046
 Frc consts  --      1.5573                 1.5847                 1.6777
 IR Inten    --      4.9266                 1.2445                 9.7921

                     37                     38                     39
                      A                      A                      A
 Frequencies --   1489.1350              1493.5698              1505.4503
 Red. masses --      1.0575                 1.0673                 1.0523
 Frc consts  --      1.3816                 1.4028                 1.4051
 IR Inten    --      4.0132                 9.1942                 3.3637

                     40                     41                     42
                      A                      A                      A
 Frequencies --   1507.2880              1879.2822              3031.4742
 Red. masses --      1.0601                12.8339                 1.0368
 Frc consts  --      1.4190                26.7051                 5.6139
 IR Inten    --      2.8867               341.5611                23.7933

                     43                     44                     45
                      A                      A                      A
 Frequencies --   3040.9575              3045.3976              3094.1756
 Red. masses --      1.0744                 1.0432                 1.0998
 Frc consts  --      5.8540                 5.7005                 6.2035
 IR Inten    --      6.3279                21.3615                16.1600

                     46                     47                     48
                      A                      A                      A
 Frequencies --   3106.8311              3115.4313              3123.8888
 Red. masses --      1.1008                 1.1016                 1.0547
 Frc consts  --      6.2602                 6.2998                 6.0642
 IR Inten    --     20.4483                22.0104                 8.1854

                     49                     50                     51
                      A                      A                      A
 Frequencies --   3130.9340              3192.8898              3215.5860
 Red. masses --      1.1019                 1.0936                 1.1158
 Frc consts  --      6.3644                 6.5685                 6.7976
 IR Inten    --     10.2451                 9.6819                 8.2146

 - Thermochemistry -
 -------------------
 Temperature   298.150 Kelvin.  Pressure   1.00000 Atm.
 Atom     1 has atomic number  6 and mass  12.00000

 Molecular mass:   126.06808 amu.
 Principal axes and moments of inertia in atomic units:
                           1         2         3
     Eigenvalues --   718.418751069.783531549.28525
           X            0.99947  -0.03211  -0.00556
           Y            0.03199   0.99925  -0.02196
           Z            0.00626   0.02177   0.99974
 This molecule is an asymmetric top.
 Rotational symmetry number  1.
 Warning -- assumption of classical behavior for rotation
           may cause significant error
 Rotational temperatures (Kelvin)      0.12056     0.08096     0.05591
 Rotational constants (GHZ):           2.51210     1.68702     1.16489
 Zero-point vibrational energy     417654.6 (Joules/Mol)
                                   99.82186 (Kcal/Mol)
 Warning -- explicit consideration of  11 degrees of freedom as
           vibrations may cause significant error
 Vibrational temperatures:    111.90   286.84   304.10   370.60   382.21
          (Kelvin)            404.63   447.83   599.83   670.92   714.10
                              829.56   963.24  1016.73  1092.33  1138.99
                             1227.28  1280.68  1321.32  1388.08  1466.48
                             1497.20  1515.99  1536.26  1570.19  1599.24
                             1626.33  1645.00  1680.19  1810.76  1868.45
                             1888.30  1927.75  2006.56  2027.47  2049.20
                             2125.58  2142.53  2148.91  2166.00  2168.65
                             2703.86  4361.61  4375.25  4381.64  4451.82
                             4470.03  4482.41  4494.57  4504.71  4593.85
                             4626.51

 Zero-point correction=                           0.159076 (Hartree/Particle)
 Thermal correction to Energy=                    0.167475
 Thermal correction to Enthalpy=                  0.168419
 Thermal correction to Gibbs Free Energy=         0.126345
 Sum of electronic and zero-point Energies=           -423.066058
 Sum of electronic and thermal Energies=              -423.057660
 Sum of electronic and thermal Enthalpies=            -423.056715
 Sum of electronic and thermal Free Energies=         -423.098789

                     E (Thermal)             CV                S
                      KCal/Mol        Cal/Mol-Kelvin    Cal/Mol-Kelvin
 Total                  105.092             32.506             88.552
 Electronic               0.000              0.000              0.000
 Translational            0.889              2.981             40.409
 Rotational               0.889              2.981             28.567
 Vibrational            103.315             26.544             19.577
 Vibration     1          0.599              1.964              3.946
 Vibration     2          0.637              1.841              2.139
 Vibration     3          0.643              1.824              2.032
 Vibration     4          0.667              1.750              1.678
 Vibration     5          0.671              1.736              1.624
 Vibration     6          0.681              1.708              1.526
 Vibration     7          0.700              1.652              1.356
 Vibration     8          0.780              1.434              0.903
 Vibration     9          0.824              1.325              0.748
 Vibration    10          0.852              1.258              0.667
 Vibration    11          0.933              1.082              0.492

 Optimization completed.
    -- Stationary point found.
 Normal termination of Gaussian 09 at Mon Jan 27 23:52:10 2020.
