 Gaussian 09, Revision D.01,
 Gaussian 09:  ES64L-G09RevD.01 24-Apr-2013

 -----------------------------
 # b3lyp 6-31G(2df,p) opt Freq
 -----------------------------

 -----
 titel
 -----
 Symbolic Z-matrix:
 Charge =  0 Multiplicity = 1

 SCF Done:  E(RB3LYP) =  -423.174618151     A.U. after   14 cycles
 SCF Done:  E(RB3LYP) =  -423.174618367     A.U. after    6 cycles
 Optimization completed.
    -- Stationary point found.
 Normal termination of Gaussian 09 at Tue Jan 28 12:44:42 2020.

 ----------------------------------------------------------------------
 #N Geom=AllCheck Guess=TCheck SCRF=Check GenChk RB3LYP/6-31G(2df,p) Fr
 eq
 ----------------------------------------------------------------------

 Structure from the checkpoint file:  "/scratch/puck/g09_12ef939a-5bb2-4110-87c2-fe0f178fc5fd/Gau-29027.chk"
 -----
 titel
 -----
 Charge =  0 Multiplicity = 1

                         Standard orientation:
 ---------------------------------------------------------------------
 Center     Atomic      Atomic             Coordinates (Angstroms)
 Number     Number       Type             X           Y           Z
 ---------------------------------------------------------------------
      1          8           0       -2.608624    0.073652    0.664966
      2          6           0       -1.975847   -0.812955   -0.249084
      3          6           0       -0.486678   -0.628341   -0.292316
      4          6           0        0.472639   -1.505369    0.014868
      5          6           0        1.838135   -0.901750   -0.070296
      6          6           0        2.083391    0.216098    0.924165
      7          6           0        1.610773    0.535673   -0.479137
      8          6           0        0.112787    0.714204   -0.708995
      9          8           0       -0.472073    1.836495   -0.027658
     10          1           0       -2.250561    0.951513    0.472421
     11          1           0       -2.224093   -1.830504    0.069875
     12          1           0       -2.388005   -0.681637   -1.265816
     13          1           0        0.302807   -2.527230    0.337978
     14          1           0        2.677933   -1.480552   -0.436713
     15          1           0        1.397941    0.294583    1.763155
     16          1           0        3.109958    0.480052    1.155763
     17          1           0        2.301699    1.052991   -1.132891
     18          1           0       -0.096456    0.918501   -1.766979
     19          1           0       -0.116843    1.835748    0.869508
 ---------------------------------------------------------------------

 SCF Done:  E(RB3LYP) =  -423.174618367     A.U. after    1 cycles

 The electronic state is 1-A.
 Alpha  occ. eigenvalues --  -19.15150 -19.11581 -10.24306 -10.22368 -10.20236
 Alpha  occ. eigenvalues --  -10.20031 -10.19856 -10.18959 -10.18366  -1.03076
 Alpha  occ. eigenvalues --   -0.99731  -0.89217  -0.78235  -0.70140  -0.67816
 Alpha  occ. eigenvalues --   -0.60456  -0.58106  -0.54855  -0.52831  -0.48888
 Alpha  occ. eigenvalues --   -0.47335  -0.45116  -0.42909  -0.42678  -0.41621
 Alpha  occ. eigenvalues --   -0.38355  -0.37080  -0.35119  -0.33856  -0.32198
 Alpha  occ. eigenvalues --   -0.30008  -0.27136  -0.25376  -0.23819
 Alpha virt. eigenvalues --    0.00083   0.07508   0.08865   0.11504   0.12620
 Alpha virt. eigenvalues --    0.13960   0.14514   0.14793   0.15758   0.16928
 Alpha virt. eigenvalues --    0.17971   0.18286   0.21197   0.21810   0.22608

 Mulliken charges:
               1
     1  O   -0.428584
     2  C   -0.163389
     3  C    0.252439
     4  C   -0.194648
     5  C   -0.066902
     6  C   -0.297520
     7  C   -0.068708
     8  C    0.021051
     9  O   -0.432057
    10  H    0.286252
    11  H    0.106616
    12  H    0.085818
    13  H    0.100170
    14  H    0.094096
    15  H    0.112960
    16  H    0.117785
    17  H    0.093524
    18  H    0.096517
    19  H    0.284581
 Sum of Mulliken charges =   0.00000

 Dipole moment (field-independent basis, Debye):
    X=              2.8031    Y=             -0.4573    Z=             -0.4390  Tot=              2.8739
 Quadrupole moment (field-independent basis, Debye-Ang):
   XX=            -56.7773   YY=            -52.6321   ZZ=            -52.2965
   XY=              0.8144   XZ=              2.6597   YZ=              1.7286

  Exact polarizability:  90.932  -2.340  75.815   4.387  -1.125  63.209
 Approx polarizability: 125.304 -12.321 119.279   6.822  -3.345 100.508

                      1                      2                      3
                      A                      A                      A
 Frequencies --     88.4090               148.5340               201.5032
 Red. masses --      4.5974                 3.0276                 4.5980
 Frc consts  --      0.0212                 0.0394                 0.1100
 IR Inten    --      2.0346                 0.4626                 4.7183

                      4                      5                      6
                      A                      A                      A
 Frequencies --    253.6685               285.6681               342.8385
 Red. masses --      2.7363                 1.3111                 2.3308
 Frc consts  --      0.1037                 0.0630                 0.1614
 IR Inten    --      8.0058                87.0766                21.6235

                      7                      8                      9
                      A                      A                      A
 Frequencies --    375.5738               437.6045               471.5301
 Red. masses --      4.2649                 2.8205                 3.3398
 Frc consts  --      0.3544                 0.3182                 0.4375
 IR Inten    --     40.1968                 1.6431                12.4843

                     10                     11                     12
                      A                      A                      A
 Frequencies --    599.6821               630.7139               654.0448
 Red. masses --      1.0853                 4.2788                 3.0656
 Frc consts  --      0.2300                 1.0029                 0.7726
 IR Inten    --     72.8225                 1.8351                 3.5126

                     13                     14                     15
                      A                      A                      A
 Frequencies --    717.8984               783.3342               824.2046
 Red. masses --      4.2591                 2.1589                 1.6209
 Frc consts  --      1.2933                 0.7805                 0.6487
 IR Inten    --      8.8223                16.1854                 8.4806

                     16                     17                     18
                      A                      A                      A
 Frequencies --    863.5285               884.2248               934.9345
 Red. masses --      2.9002                 1.4973                 2.0950
 Frc consts  --      1.2742                 0.6897                 1.0789
 IR Inten    --      5.9288                22.4142                 9.5162

                     19                     20                     21
                      A                      A                      A
 Frequencies --    946.9123               982.6990              1020.4179
 Red. masses --      2.5569                 2.2000                 2.1475
 Frc consts  --      1.3508                 1.2517                 1.3175
 IR Inten    --      4.0880                 5.7637                 9.0838

                     22                     23                     24
                      A                      A                      A
 Frequencies --   1037.2060              1048.9734              1065.2379
 Red. masses --      2.5223                 2.0314                 2.7014
 Frc consts  --      1.5987                 1.3169                 1.8060
 IR Inten    --      7.2113                 4.9324               137.3313

                     25                     26                     27
                      A                      A                      A
 Frequencies --   1079.5289              1092.2996              1106.5651
 Red. masses --      1.3903                 1.4054                 1.2096
 Frc consts  --      0.9546                 0.9879                 0.8727
 IR Inten    --     27.7353                21.1216                 4.4712

                     28                     29                     30
                      A                      A                      A
 Frequencies --   1177.2614              1201.2855              1223.7742
 Red. masses --      2.0719                 1.5209                 1.3204
 Frc consts  --      1.6918                 1.2931                 1.1651
 IR Inten    --      1.8281                 3.0011                10.6740

                     31                     32                     33
                      A                      A                      A
 Frequencies --   1252.5888              1291.6391              1323.7749
 Red. masses --      1.2887                 1.2872                 2.1124
 Frc consts  --      1.1913                 1.2652                 2.1810
 IR Inten    --     14.2895                 1.6417                 2.7746

                     34                     35                     36
                      A                      A                      A
 Frequencies --   1351.6680              1365.7586              1381.9556
 Red. masses --      2.1543                 1.4369                 1.5450
 Frc consts  --      2.3190                 1.5792                 1.7385
 IR Inten    --      3.5435                 1.4972                 3.6885

                     37                     38                     39
                      A                      A                      A
 Frequencies --   1420.2143              1465.3887              1478.0441
 Red. masses --      1.2296                 1.1859                 1.2220
 Frc consts  --      1.4613                 1.5004                 1.5728
 IR Inten    --     58.0859                91.6114                12.7854

                     40                     41                     42
                      A                      A                      A
 Frequencies --   1504.1370              1709.0692              2938.9275
 Red. masses --      1.1095                 7.8478                 1.0717
 Frc consts  --      1.4790                13.5057                 5.4539
 IR Inten    --      3.3800                 2.1032                71.4956

                     43                     44                     45
                      A                      A                      A
 Frequencies --   3026.8978              3069.6048              3119.5108
 Red. masses --      1.0841                 1.0892                 1.0540
 Frc consts  --      5.8519                 6.0470                 6.0433
 IR Inten    --     33.6223                34.0447                15.0406

                     46                     47                     48
                      A                      A                      A
 Frequencies --   3175.4502              3186.1702              3189.8503
 Red. masses --      1.0894                 1.0919                 1.0973
 Frc consts  --      6.4719                 6.5310                 6.5785
 IR Inten    --      8.5011                21.7083                 5.6491

                     49                     50                     51
                      A                      A                      A
 Frequencies --   3210.1601              3733.9805              3788.6245
 Red. masses --      1.1134                 1.0659                 1.0655
 Frc consts  --      6.7604                 8.7563                 9.0109
 IR Inten    --     16.9979                98.1093                13.4695

 - Thermochemistry -
 -------------------
 Temperature   298.150 Kelvin.  Pressure   1.00000 Atm.
 Atom     1 has atomic number  8 and mass  15.99491

 Molecular mass:   126.06808 amu.
 Principal axes and moments of inertia in atomic units:
                           1         2         3
     Eigenvalues --   616.160711316.634671649.13538
           X            0.99979   0.01410   0.01467
           Y           -0.01424   0.99986   0.00929
           Z           -0.01454  -0.00950   0.99985
 This molecule is an asymmetric top.
 Rotational symmetry number  1.
 Warning -- assumption of classical behavior for rotation
           may cause significant error
 Rotational temperatures (Kelvin)      0.14057     0.06578     0.05252
 Rotational constants (GHZ):           2.92901     1.37072     1.09436
 Zero-point vibrational energy     421465.2 (Joules/Mol)
                                  100.73259 (Kcal/Mol)
 Warning -- explicit consideration of  10 degrees of freedom as
           vibrations may cause significant error
 Vibrational temperatures:    127.20   213.71   289.92   364.97   411.01
          (Kelvin)            493.27   540.37   629.61   678.43   862.81
                              907.46   941.02  1032.89  1127.04  1185.85
                             1242.42  1272.20  1345.16  1362.39  1413.88
                             1468.15  1492.31  1509.24  1532.64  1553.20
                             1571.57  1592.10  1693.81  1728.38  1760.74
                             1802.19  1858.38  1904.61  1944.75  1965.02
                             1988.32  2043.37  2108.36  2126.57  2164.11
                             2458.97  4228.46  4355.03  4416.47  4488.27
                             4568.76  4584.18  4589.48  4618.70  5372.36
                             5450.98

 Zero-point correction=                           0.160528 (Hartree/Particle)
 Thermal correction to Energy=                    0.168751
 Thermal correction to Enthalpy=                  0.169695
 Thermal correction to Gibbs Free Energy=         0.127873
 Sum of electronic and zero-point Energies=           -423.014091
 Sum of electronic and thermal Energies=              -423.005867
 Sum of electronic and thermal Enthalpies=            -423.004923
 Sum of electronic and thermal Free Energies=         -423.046745

                     E (Thermal)             CV                S
                      KCal/Mol        Cal/Mol-Kelvin    Cal/Mol-Kelvin
 Total                  105.893             32.297             88.023
 Electronic               0.000              0.000              0.000
 Translational            0.889              2.981             40.409
 Rotational               0.889              2.981             28.683
 Vibrational            104.116             26.335             18.931
 Vibration     1          0.601              1.957              3.695
 Vibration     2          0.618              1.904              2.691
 Vibration     3          0.638              1.838              2.119
 Vibration     4          0.665              1.757              1.705
 Vibration     5          0.683              1.700              1.499
 Vibration     6          0.722              1.590              1.199
 Vibration     7          0.746              1.522              1.057
 Vibration     8          0.798              1.388              0.834
 Vibration     9          0.828              1.313              0.733
 Vibration    10          0.958              1.032              0.450

 Normal termination of Gaussian 09 at Tue Jan 28 13:27:32 2020.
