 Gaussian 09, Revision D.01,
 Gaussian 09:  ES64L-G09RevD.01 24-Apr-2013

 -----------------------------
 # b3lyp 6-31G(2df,p) opt Freq
 -----------------------------

 -----
 titel
 -----
 Symbolic Z-matrix:
 Charge =  0 Multiplicity = 1

 SCF Done:  E(RB3LYP) =  -423.150959816     A.U. after   13 cycles
 Optimization completed.
    -- Stationary point found.
 Normal termination of Gaussian 09 at Mon Jan 27 23:03:21 2020.

 ----------------------------------------------------------------------
 #N Geom=AllCheck Guess=TCheck SCRF=Check GenChk RB3LYP/6-31G(2df,p) Fr
 eq
 ----------------------------------------------------------------------

 Structure from the checkpoint file:  "/scratch/puck/g09_c4fd2086-1b2b-4300-886f-ab4ded968c06/Gau-101803.chk"
 -----
 titel
 -----
 Charge =  0 Multiplicity = 1

                         Standard orientation:
 ---------------------------------------------------------------------
 Center     Atomic      Atomic             Coordinates (Angstroms)
 Number     Number       Type             X           Y           Z
 ---------------------------------------------------------------------
      1          6           0       -1.988409   -1.679128   -0.214783
      2          6           0       -0.914825   -0.672573    0.016883
      3          6           0       -0.914824    0.672575    0.016899
      4          6           0       -1.988400    1.679137   -0.214779
      5          6           0        0.556278    0.974108    0.293752
      6          8           0        0.901132   -0.000014    1.345833
      7          6           0        0.556278   -0.974114    0.293735
      8          6           0        1.274181    0.000005   -0.713494
      9          8           0        2.663244    0.000005   -0.681950
     10          1           0       -2.118462   -2.333178    0.656680
     11          1           0       -2.950406   -1.202099   -0.422557
     12          1           0       -1.750162   -2.332096   -1.064054
     13          1           0       -2.950496    1.202108   -0.422098
     14          1           0       -2.118133    2.333486    0.656504
     15          1           0       -1.750370    2.331804   -1.064344
     16          1           0        0.893866    1.991916    0.490220
     17          1           0        0.893859   -1.991928    0.490184
     18          1           0        0.952243    0.000013   -1.756927
     19          1           0        2.901378   -0.000012    0.256047
 ---------------------------------------------------------------------

 SCF Done:  E(RB3LYP) =  -423.150959816     A.U. after    1 cycles

 The electronic state is 1-A.
 Alpha  occ. eigenvalues --  -19.14002 -19.13453 -10.23977 -10.23500 -10.23500
 Alpha  occ. eigenvalues --  -10.18886 -10.18885 -10.18622 -10.18541  -1.05899
 Alpha  occ. eigenvalues --   -1.01096  -0.82260  -0.74308  -0.72700  -0.67141
 Alpha  occ. eigenvalues --   -0.65708  -0.57110  -0.52582  -0.50040  -0.48402
 Alpha  occ. eigenvalues --   -0.45514  -0.42637  -0.42347  -0.41939  -0.40488
 Alpha  occ. eigenvalues --   -0.40028  -0.38448  -0.36465  -0.35323  -0.34653
 Alpha  occ. eigenvalues --   -0.32876  -0.25779  -0.25171  -0.22526
 Alpha virt. eigenvalues --    0.01283   0.08527   0.09788   0.10945   0.11994
 Alpha virt. eigenvalues --    0.13177   0.14289   0.14897   0.15109   0.15977
 Alpha virt. eigenvalues --    0.17361   0.18298   0.19417   0.21691   0.23126

 Mulliken charges:
               1
     1  C   -0.519336
     2  C    0.239125
     3  C    0.239127
     4  C   -0.519335
     5  C   -0.094542
     6  O   -0.313670
     7  C   -0.094543
     8  C    0.198343
     9  O   -0.447831
    10  H    0.133577
    11  H    0.126913
    12  H    0.130426
    13  H    0.126915
    14  H    0.133572
    15  H    0.130428
    16  H    0.078058
    17  H    0.078058
    18  H    0.088715
    19  H    0.286000
 Sum of Mulliken charges =   0.00000

 Dipole moment (field-independent basis, Debye):
    X=             -1.7696    Y=              0.0000    Z=             -0.5615  Tot=              1.8566
 Quadrupole moment (field-independent basis, Debye-Ang):
   XX=            -54.4767   YY=            -48.6291   ZZ=            -56.7607
   XY=              0.0000   XZ=              3.0905   YZ=              0.0000

  Exact polarizability:  86.618   0.000  87.363   1.765   0.000  59.876
 Approx polarizability: 116.129   0.000 136.931   2.399  -0.001  97.194

                      1                      2                      3
                      A                      A                      A
 Frequencies --    140.5822               155.1885               167.9496
 Red. masses --      1.0156                 3.5501                 1.0225
 Frc consts  --      0.0118                 0.0504                 0.0170
 IR Inten    --      0.2935                 2.9096                 0.0104

                      4                      5                      6
                      A                      A                      A
 Frequencies --    176.8129               234.5968               274.2208
 Red. masses --      3.3459                 2.4948                 3.0150
 Frc consts  --      0.0616                 0.0809                 0.1336
 IR Inten    --      0.0987                 0.0231                 0.2355

                      7                      8                      9
                      A                      A                      A
 Frequencies --    314.8294               417.6731               498.2853
 Red. masses --      4.8180                 3.0160                 5.0782
 Frc consts  --      0.2814                 0.3100                 0.7429
 IR Inten    --     11.8610                 0.0082                 0.2068

                     10                     11                     12
                      A                      A                      A
 Frequencies --    568.1103               582.5173               596.0604
 Red. masses --      1.1865                 6.3638                 3.2088
 Frc consts  --      0.2256                 1.2723                 0.6717
 IR Inten    --     68.5590                 9.0613                 5.0514

                     13                     14                     15
                      A                      A                      A
 Frequencies --    616.2532               757.6195               832.3104
 Red. masses --      3.7443                 2.9051                 2.8602
 Frc consts  --      0.8378                 0.9825                 1.1674
 IR Inten    --      2.9552                 7.7451                18.7603

                     16                     17                     18
                      A                      A                      A
 Frequencies --    835.4336               862.4412               917.7350
 Red. masses --      2.6885                 7.9661                 4.9513
 Frc consts  --      1.1056                 3.4910                 2.4570
 IR Inten    --      1.4948                20.6281                60.2791

                     19                     20                     21
                      A                      A                      A
 Frequencies --    928.9706               948.9901              1036.1960
 Red. masses --      2.2821                 1.8730                 2.6024
 Frc consts  --      1.1603                 0.9938                 1.6463
 IR Inten    --     11.3644                 2.3927                 8.1085

                     22                     23                     24
                      A                      A                      A
 Frequencies --   1041.1157              1068.1101              1112.0848
 Red. masses --      1.4769                 1.5351                 1.6474
 Frc consts  --      0.9432                 1.0318                 1.2004
 IR Inten    --      1.8989                 0.8563                 4.9273

                     25                     26                     27
                      A                      A                      A
 Frequencies --   1120.6345              1158.6783              1180.1774
 Red. masses --      3.3445                 1.9686                 1.4050
 Frc consts  --      2.4746                 1.5572                 1.1530
 IR Inten    --    138.8290                 0.4065                 0.9780

                     28                     29                     30
                      A                      A                      A
 Frequencies --   1204.6090              1205.8479              1213.5671
 Red. masses --      1.9440                 1.7987                 1.3619
 Frc consts  --      1.6620                 1.5410                 1.1817
 IR Inten    --     35.8277                27.6696                 0.0236

                     31                     32                     33
                      A                      A                      A
 Frequencies --   1296.3764              1299.0115              1341.6244
 Red. masses --      1.6730                 1.4786                 2.6851
 Frc consts  --      1.6566                 1.4700                 2.8475
 IR Inten    --      0.0413                15.0279                 2.4696

                     34                     35                     36
                      A                      A                      A
 Frequencies --   1413.0107              1420.5569              1433.9915
 Red. masses --      1.4530                 1.2342                 1.2791
 Frc consts  --      1.7092                 1.4674                 1.5497
 IR Inten    --      0.0665                 0.4695               127.1740

                     37                     38                     39
                      A                      A                      A
 Frequencies --   1478.4419              1479.2071              1487.2227
 Red. masses --      1.0435                 1.0440                 1.0444
 Frc consts  --      1.3439                 1.3458                 1.3611
 IR Inten    --      0.0100                10.4152                 4.8054

                     40                     41                     42
                      A                      A                      A
 Frequencies --   1489.8444              1719.9653              3016.2474
 Red. masses --      1.0645                 7.8857                 1.0379
 Frc consts  --      1.3921                13.7445                 5.5632
 IR Inten    --      4.1662                 3.0002                41.8873

                     43                     44                     45
                      A                      A                      A
 Frequencies --   3017.5215              3062.1015              3062.3289
 Red. masses --      1.0381                 1.0989                 1.0988
 Frc consts  --      5.5691                 6.0709                 6.0713
 IR Inten    --     20.6962                 0.0145                32.4560

                     46                     47                     48
                      A                      A                      A
 Frequencies --   3102.4562              3104.5041              3107.0823
 Red. masses --      1.0874                 1.0985                 1.0978
 Frc consts  --      6.1668                 6.2381                 6.2445
 IR Inten    --     34.6501                 8.7919                29.8828

                     49                     50                     51
                      A                      A                      A
 Frequencies --   3123.6265              3127.5424              3748.7713
 Red. masses --      1.0890                 1.0947                 1.0639
 Frc consts  --      6.2601                 6.3087                 8.8093
 IR Inten    --     64.2814                 5.9343                28.2897

 - Thermochemistry -
 -------------------
 Temperature   298.150 Kelvin.  Pressure   1.00000 Atm.
 Atom     1 has atomic number  6 and mass  12.00000

 Molecular mass:   126.06808 amu.
 Principal axes and moments of inertia in atomic units:
                           1         2         3
     Eigenvalues --   667.557081301.436071591.94623
           X            0.99991   0.00000   0.01348
           Y            0.00000   1.00000   0.00000
           Z           -0.01348   0.00000   0.99991
 This molecule is an asymmetric top.
 Rotational symmetry number  1.
 Warning -- assumption of classical behavior for rotation
           may cause significant error
 Rotational temperatures (Kelvin)      0.12975     0.06655     0.05441
 Rotational constants (GHZ):           2.70350     1.38673     1.13367
 Zero-point vibrational energy     415696.5 (Joules/Mol)
                                   99.35386 (Kcal/Mol)
 Warning -- explicit consideration of  13 degrees of freedom as
           vibrations may cause significant error
 Vibrational temperatures:    202.27   223.28   241.64   254.39   337.53
          (Kelvin)            394.54   452.97   600.94   716.92   817.38
                              838.11   857.60   886.65  1090.04  1197.51
                             1202.00  1240.86  1320.41  1336.58  1365.38
                             1490.85  1497.93  1536.77  1600.04  1612.34
                             1667.08  1698.01  1733.16  1734.94  1746.05
                             1865.19  1868.99  1930.30  2033.00  2043.86
                             2063.19  2127.15  2128.25  2139.78  2143.55
                             2474.64  4339.70  4341.53  4405.68  4406.00
                             4463.74  4466.68  4470.39  4494.20  4499.83
                             5393.64

 Zero-point correction=                           0.158330 (Hartree/Particle)
 Thermal correction to Energy=                    0.166947
 Thermal correction to Enthalpy=                  0.167892
 Thermal correction to Gibbs Free Energy=         0.125410
 Sum of electronic and zero-point Energies=           -422.992629
 Sum of electronic and thermal Energies=              -422.984012
 Sum of electronic and thermal Enthalpies=            -422.983068
 Sum of electronic and thermal Free Energies=         -423.025550

                     E (Thermal)             CV                S
                      KCal/Mol        Cal/Mol-Kelvin    Cal/Mol-Kelvin
 Total                  104.761             33.054             89.411
 Electronic               0.000              0.000              0.000
 Translational            0.889              2.981             40.409
 Rotational               0.889              2.981             28.716
 Vibrational            102.984             27.093             20.286
 Vibration     1          0.615              1.913              2.796
 Vibration     2          0.620              1.897              2.608
 Vibration     3          0.625              1.882              2.458
 Vibration     4          0.628              1.871              2.362
 Vibration     5          0.654              1.788              1.843
 Vibration     6          0.677              1.721              1.569
 Vibration     7          0.702              1.645              1.337
 Vibration     8          0.781              1.432              0.900
 Vibration     9          0.854              1.254              0.662
 Vibration    10          0.924              1.100              0.508
 Vibration    11          0.939              1.069              0.481
 Vibration    12          0.954              1.040              0.456
 Vibration    13          0.976              0.998              0.423

 Normal termination of Gaussian 09 at Mon Jan 27 23:48:51 2020.
