 Gaussian 09, Revision D.01,
 Gaussian 09:  ES64L-G09RevD.01 24-Apr-2013

 -----------------------------
 # b3lyp 6-31G(2df,p) opt Freq
 -----------------------------

 -----
 titel
 -----
 Symbolic Z-matrix:
 Charge =  0 Multiplicity = 1

 SCF Done:  E(RB3LYP) =  -423.218188243     A.U. after   14 cycles
 Optimization completed.
    -- Stationary point found.
 Normal termination of Gaussian 09 at Mon Jan 27 12:54:30 2020.

 ----------------------------------------------------------------------
 #N Geom=AllCheck Guess=TCheck SCRF=Check GenChk RB3LYP/6-31G(2df,p) Fr
 eq
 ----------------------------------------------------------------------

 Structure from the checkpoint file:  "/scratch/puck/g09_07402c3b-d256-4852-bee5-68a7619d60e3/Gau-167054.chk"
 -----
 titel
 -----
 Charge =  0 Multiplicity = 1

                         Standard orientation:
 ---------------------------------------------------------------------
 Center     Atomic      Atomic             Coordinates (Angstroms)
 Number     Number       Type             X           Y           Z
 ---------------------------------------------------------------------
      1          8           0        2.118571   -1.098658   -0.218306
      2          6           0        1.118606   -0.447994   -0.074096
      3          6           0        0.318358   -0.183681    1.199027
      4          6           0        0.090088    1.346369    1.111814
      5          6           0        0.110051    1.686076   -0.419834
      6          6           0        0.332772    0.341400   -1.133183
      7          8           0       -0.876542   -0.392281   -1.375811
      8          6           0       -1.736335   -0.499699   -0.246578
      9          6           0       -1.003810   -0.974664    1.015366
     10          1           0        0.846598   -0.505640    2.097587
     11          1           0       -0.850417    1.642340    1.585192
     12          1           0        0.892009    1.874797    1.633515
     13          1           0       -0.808869    2.167898   -0.762708
     14          1           0        0.937742    2.360155   -0.657299
     15          1           0        0.841640    0.409582   -2.094410
     16          1           0       -2.231689    0.463255   -0.051436
     17          1           0       -2.515232   -1.209516   -0.538214
     18          1           0       -1.652264   -0.839344    1.889378
     19          1           0       -0.774140   -2.042863    0.936223
 ---------------------------------------------------------------------

 SCF Done:  E(RB3LYP) =  -423.218188243     A.U. after    1 cycles

 The electronic state is 1-A.
 Alpha  occ. eigenvalues --  -19.14902 -19.13403 -10.26149 -10.23682 -10.23569
 Alpha  occ. eigenvalues --  -10.19873 -10.19833 -10.19742 -10.19438  -1.04956
 Alpha  occ. eigenvalues --   -1.03227  -0.84182  -0.78534  -0.70478  -0.68632
 Alpha  occ. eigenvalues --   -0.61951  -0.58419  -0.53288  -0.51682  -0.47412
 Alpha  occ. eigenvalues --   -0.45740  -0.44868  -0.43118  -0.42373  -0.41121
 Alpha  occ. eigenvalues --   -0.40324  -0.37667  -0.36989  -0.35877  -0.34877
 Alpha  occ. eigenvalues --   -0.32986  -0.31011  -0.27966  -0.22305
 Alpha virt. eigenvalues --   -0.01740   0.07185   0.09269   0.11948   0.12665
 Alpha virt. eigenvalues --    0.14273   0.14566   0.15280   0.15682   0.16290
 Alpha virt. eigenvalues --    0.16817   0.19101   0.19604   0.21580   0.21870

 Mulliken charges:
               1
     1  O   -0.329348
     2  C    0.416704
     3  C   -0.110867
     4  C   -0.236034
     5  C   -0.257216
     6  C    0.023298
     7  O   -0.273566
     8  C   -0.071068
     9  C   -0.235762
    10  H    0.086442
    11  H    0.106284
    12  H    0.113015
    13  H    0.118545
    14  H    0.115464
    15  H    0.096359
    16  H    0.095313
    17  H    0.116857
    18  H    0.104153
    19  H    0.121429
 Sum of Mulliken charges =   0.00000

 Dipole moment (field-independent basis, Debye):
    X=             -2.1390    Y=              1.9281    Z=              1.6480  Tot=              3.3180
 Quadrupole moment (field-independent basis, Debye-Ang):
   XX=            -56.9215   YY=            -52.9650   ZZ=            -53.6669
   XY=              4.6945   XZ=             -1.2360   YZ=             -1.8560

  Exact polarizability:  78.054   0.058  72.151  -2.567  -1.319  70.962
 Approx polarizability: 119.150  -5.424 105.205  -4.199   1.063 104.177

                      1                      2                      3
                      A                      A                      A
 Frequencies --    132.1366               179.3858               281.6014
 Red. masses --      6.2520                 2.1061                 2.9533
 Frc consts  --      0.0643                 0.0399                 0.1380
 IR Inten    --      2.5195                 1.1561                 3.5576

                      4                      5                      6
                      A                      A                      A
 Frequencies --    291.6652               386.0127               396.7425
 Red. masses --      2.0399                 2.9502                 4.3441
 Frc consts  --      0.1022                 0.2590                 0.4029
 IR Inten    --      1.4878                 3.4452                 2.6979

                      7                      8                      9
                      A                      A                      A
 Frequencies --    460.0711               509.8400               662.0116
 Red. masses --      3.8623                 4.0927                 2.8037
 Frc consts  --      0.4817                 0.6268                 0.7240
 IR Inten    --      9.7751                 1.6732                 2.5735

                     10                     11                     12
                      A                      A                      A
 Frequencies --    709.9965               757.3850               785.4851
 Red. masses --      4.2718                 2.0700                 3.1322
 Frc consts  --      1.2687                 0.6996                 1.1386
 IR Inten    --      3.6944                 2.4192                 1.6438

                     13                     14                     15
                      A                      A                      A
 Frequencies --    806.7841               834.1523               860.2992
 Red. masses --      2.4877                 2.5553                 1.9599
 Frc consts  --      0.9540                 1.0475                 0.8547
 IR Inten    --      0.4937                13.5712                 6.4547

                     16                     17                     18
                      A                      A                      A
 Frequencies --    882.8126               962.8942               984.4036
 Red. masses --      3.0302                 2.2973                 2.2152
 Frc consts  --      1.3914                 1.2550                 1.2648
 IR Inten    --      4.5404                 8.0994                18.7303

                     19                     20                     21
                      A                      A                      A
 Frequencies --    999.6952              1011.6389              1046.4386
 Red. masses --      2.3854                 1.9304                 2.0550
 Frc consts  --      1.4046                 1.1640                 1.3258
 IR Inten    --      4.4992                 4.5438                14.1462

                     22                     23                     24
                      A                      A                      A
 Frequencies --   1086.7545              1118.4148              1151.3686
 Red. masses --      1.8056                 4.5972                 1.4238
 Frc consts  --      1.2564                 3.3881                 1.1120
 IR Inten    --     16.2013                41.8132                11.6106

                     25                     26                     27
                      A                      A                      A
 Frequencies --   1173.8174              1212.0880              1217.7953
 Red. masses --      2.1382                 1.5455                 1.4780
 Frc consts  --      1.7358                 1.3378                 1.2914
 IR Inten    --     11.2347                12.8508                 7.2760

                     28                     29                     30
                      A                      A                      A
 Frequencies --   1245.7188              1257.8078              1273.9688
 Red. masses --      1.3279                 1.4943                 1.2508
 Frc consts  --      1.2141                 1.3929                 1.1961
 IR Inten    --      0.8024                 6.6410                 1.1633

                     31                     32                     33
                      A                      A                      A
 Frequencies --   1314.7371              1322.1081              1332.3488
 Red. masses --      1.2844                 1.4609                 1.4031
 Frc consts  --      1.3080                 1.5046                 1.4674
 IR Inten    --      2.9564                 3.4804                 1.3844

                     34                     35                     36
                      A                      A                      A
 Frequencies --   1358.2162              1371.5485              1406.1684
 Red. masses --      1.3066                 1.4250                 1.2964
 Frc consts  --      1.4201                 1.5794                 1.5103
 IR Inten    --      3.1850                 0.6573                 6.6807

                     37                     38                     39
                      A                      A                      A
 Frequencies --   1476.5703              1482.9371              1498.5129
 Red. masses --      1.0790                 1.0900                 1.0897
 Frc consts  --      1.3861                 1.4123                 1.4417
 IR Inten    --      1.4789                 5.1838                 2.4903

                     40                     41                     42
                      A                      A                      A
 Frequencies --   1517.3427              1865.1457              2992.9866
 Red. masses --      1.0856                12.0415                 1.0709
 Frc consts  --      1.4725                24.6806                 5.6522
 IR Inten    --      3.3225               223.2695                43.0685

                     43                     44                     45
                      A                      A                      A
 Frequencies --   3031.4238              3054.8805              3065.4620
 Red. masses --      1.0601                 1.0598                 1.0619
 Frc consts  --      5.7399                 5.8274                 5.8795
 IR Inten    --     26.1266                22.6209                23.3222

                     46                     47                     48
                      A                      A                      A
 Frequencies --   3077.5292              3091.2943              3091.9263
 Red. masses --      1.1004                 1.1033                 1.0961
 Frc consts  --      6.1406                 6.2119                 6.1739
 IR Inten    --     23.7305                12.7417                29.3031

                     49                     50                     51
                      A                      A                      A
 Frequencies --   3104.4534              3113.7799              3125.6489
 Red. masses --      1.0894                 1.1036                 1.0901
 Frc consts  --      6.1862                 6.3044                 6.2748
 IR Inten    --     14.7620                27.0145                24.4943

 - Thermochemistry -
 -------------------
 Temperature   298.150 Kelvin.  Pressure   1.00000 Atm.
 Atom     1 has atomic number  8 and mass  15.99491

 Molecular mass:   126.06808 amu.
 Principal axes and moments of inertia in atomic units:
                           1         2         3
     Eigenvalues --   830.774121008.661431035.28053
           X            0.99370   0.08579  -0.07212
           Y           -0.10532   0.93479  -0.33923
           Z            0.03832   0.34469   0.93793
 This molecule is an asymmetric top.
 Rotational symmetry number  1.
 Warning -- assumption of classical behavior for rotation
           may cause significant error
 Rotational temperatures (Kelvin)      0.10426     0.08587     0.08366
 Rotational constants (GHZ):           2.17236     1.78924     1.74324
 Zero-point vibrational energy     426912.6 (Joules/Mol)
                                  102.03455 (Kcal/Mol)
 Warning -- explicit consideration of   8 degrees of freedom as
           vibrations may cause significant error
 Vibrational temperatures:    190.11   258.10   405.16   419.64   555.39
          (Kelvin)            570.82   661.94   733.55   952.49  1021.53
                             1089.71  1130.14  1160.78  1200.16  1237.78
                             1270.17  1385.39  1416.34  1438.34  1455.52
                             1505.59  1563.60  1609.15  1656.56  1688.86
                             1743.92  1752.13  1792.31  1809.70  1832.95
                             1891.61  1902.22  1916.95  1954.17  1973.35
                             2023.16  2124.45  2133.61  2156.02  2183.11
                             2683.53  4306.23  4361.54  4395.29  4410.51
                             4427.87  4447.68  4448.59  4466.61  4480.03
                             4497.11

 Zero-point correction=                           0.162602 (Hartree/Particle)
 Thermal correction to Energy=                    0.169784
 Thermal correction to Enthalpy=                  0.170728
 Thermal correction to Gibbs Free Energy=         0.131223
 Sum of electronic and zero-point Energies=           -423.055586
 Sum of electronic and thermal Energies=              -423.048404
 Sum of electronic and thermal Enthalpies=            -423.047460
 Sum of electronic and thermal Free Energies=         -423.086965

                     E (Thermal)             CV                S
                      KCal/Mol        Cal/Mol-Kelvin    Cal/Mol-Kelvin
 Total                  106.541             29.003             83.147
 Electronic               0.000              0.000              0.000
 Translational            0.889              2.981             40.409
 Rotational               0.889              2.981             28.252
 Vibrational            104.764             23.042             14.486
 Vibration     1          0.612              1.921              2.915
 Vibration     2          0.629              1.868              2.335
 Vibration     3          0.681              1.708              1.524
 Vibration     4          0.687              1.689              1.464
 Vibration     5          0.755              1.500              1.016
 Vibration     6          0.763              1.477              0.975
 Vibration     7          0.818              1.339              0.766
 Vibration     8          0.865              1.228              0.634

 Optimization completed.
    -- Stationary point found.
 Normal termination of Gaussian 09 at Mon Jan 27 13:39:06 2020.
