 Gaussian 09, Revision D.01,
 Gaussian 09:  ES64L-G09RevD.01 24-Apr-2013

 -----------------------------
 # b3lyp 6-31G(2df,p) opt Freq
 -----------------------------

 -----
 titel
 -----
 Symbolic Z-matrix:
 Charge =  0 Multiplicity = 1

 SCF Done:  E(RB3LYP) =  -423.186195009     A.U. after   14 cycles
 Optimization completed.
    -- Stationary point found.
 Normal termination of Gaussian 09 at Mon Jan 27 17:22:58 2020.

 ----------------------------------------------------------------------
 #N Geom=AllCheck Guess=TCheck SCRF=Check GenChk RB3LYP/6-31G(2df,p) Fr
 eq
 ----------------------------------------------------------------------

 Structure from the checkpoint file:  "/scratch/puck/g09_d7493b98-a623-4e2c-be02-8db8508c8e1d/Gau-147197.chk"
 -----
 titel
 -----
 Charge =  0 Multiplicity = 1

                         Standard orientation:
 ---------------------------------------------------------------------
 Center     Atomic      Atomic             Coordinates (Angstroms)
 Number     Number       Type             X           Y           Z
 ---------------------------------------------------------------------
      1          6           0        2.259333   -1.334819   -0.270728
      2          6           0        1.397902   -0.178690    0.145528
      3          6           0        0.467752   -0.226604    1.345935
      4          6           0       -0.092411    0.071709   -0.008337
      5          6           0        0.123967    1.524465   -0.408151
      6          6           0        1.661840    1.298830   -0.201958
      7          8           0       -1.026402   -0.789152   -0.618816
      8          6           0       -2.320166   -0.563599   -0.318554
      9          8           0       -2.740373    0.298055    0.399897
     10          1           0        2.526689   -1.269392   -1.331452
     11          1           0        3.191293   -1.360506    0.306188
     12          1           0        1.744912   -2.288025   -0.113324
     13          1           0        0.255413   -1.229303    1.704133
     14          1           0        0.491438    0.536691    2.120977
     15          1           0       -0.122168    1.708032   -1.456382
     16          1           0       -0.373765    2.272241    0.213896
     17          1           0        2.229017    1.424147   -1.127461
     18          1           0        2.136845    1.891224    0.586145
     19          1           0       -2.934771   -1.304091   -0.853777
 ---------------------------------------------------------------------

 SCF Done:  E(RB3LYP) =  -423.186195009     A.U. after    1 cycles

 The electronic state is 1-A.
 Alpha  occ. eigenvalues --  -19.19280 -19.13421 -10.30873 -10.24687 -10.20309
 Alpha  occ. eigenvalues --  -10.18967 -10.18854 -10.18847 -10.18397  -1.10812
 Alpha  occ. eigenvalues --   -1.02476  -0.90278  -0.74349  -0.72478  -0.67934
 Alpha  occ. eigenvalues --   -0.62549  -0.57929  -0.52365  -0.49920  -0.48085
 Alpha  occ. eigenvalues --   -0.47631  -0.45653  -0.43868  -0.42216  -0.41078
 Alpha  occ. eigenvalues --   -0.39906  -0.38703  -0.36828  -0.34797  -0.32794
 Alpha  occ. eigenvalues --   -0.32201  -0.28514  -0.27119  -0.25391
 Alpha virt. eigenvalues --    0.00693   0.08957   0.10698   0.11452   0.12114
 Alpha virt. eigenvalues --    0.13101   0.13811   0.14463   0.15184   0.17095
 Alpha virt. eigenvalues --    0.17433   0.18068   0.19192   0.20665   0.22156

 Mulliken charges:
               1
     1  C   -0.493627
     2  C    0.246916
     3  C   -0.371636
     4  C    0.455051
     5  C   -0.288610
     6  C   -0.274855
     7  O   -0.258374
     8  C    0.148204
     9  O   -0.294076
    10  H    0.119310
    11  H    0.123316
    12  H    0.124499
    13  H    0.116259
    14  H    0.110102
    15  H    0.110161
    16  H    0.114337
    17  H    0.105083
    18  H    0.100457
    19  H    0.107486
 Sum of Mulliken charges =   0.00000

 Dipole moment (field-independent basis, Debye):
    X=              1.7589    Y=             -0.7993    Z=             -0.7740  Tot=              2.0813
 Quadrupole moment (field-independent basis, Debye-Ang):
   XX=            -56.4267   YY=            -51.6873   ZZ=            -52.4037
   XY=              3.7526   XZ=              3.0321   YZ=             -0.9279

  Exact polarizability:  89.068  -0.119  73.943  -0.905   1.558  67.372
 Approx polarizability: 118.681  -3.327 106.882  -4.414   6.698 105.132

                      1                      2                      3
                      A                      A                      A
 Frequencies --     43.3491               123.2272               180.4948
 Red. masses --      6.6772                 3.9061                 1.5540
 Frc consts  --      0.0074                 0.0349                 0.0298
 IR Inten    --      1.0836                 0.8759                 1.4964

                      4                      5                      6
                      A                      A                      A
 Frequencies --    194.7565               206.9010               246.4987
 Red. masses --      1.4315                 3.5545                 2.1686
 Frc consts  --      0.0320                 0.0897                 0.0776
 IR Inten    --      0.2012                 5.9696                 6.9332

                      7                      8                      9
                      A                      A                      A
 Frequencies --    332.5629               402.6717               463.8041
 Red. masses --      2.1723                 2.2760                 3.0979
 Frc consts  --      0.1415                 0.2174                 0.3926
 IR Inten    --      0.8480                 2.6339                10.0544

                     10                     11                     12
                      A                      A                      A
 Frequencies --    492.6226               551.0216               676.4220
 Red. masses --      2.9870                 3.8236                 4.2723
 Frc consts  --      0.4271                 0.6840                 1.1517
 IR Inten    --      2.0077                 1.6390                 0.8440

                     13                     14                     15
                      A                      A                      A
 Frequencies --    706.9446               788.6225               820.4130
 Red. masses --      3.2143                 1.5089                 2.9923
 Frc consts  --      0.9465                 0.5529                 1.1866
 IR Inten    --      1.8394                 3.4825                12.5382

                     16                     17                     18
                      A                      A                      A
 Frequencies --    895.0544               929.0112               946.8219
 Red. masses --      2.2634                 2.2841                 2.1338
 Frc consts  --      1.0683                 1.1615                 1.1270
 IR Inten    --      1.3217                 1.6126                11.4044

                     19                     20                     21
                      A                      A                      A
 Frequencies --    964.1346               987.6920              1019.9523
 Red. masses --      1.4306                 1.7182                 1.6709
 Frc consts  --      0.7835                 0.9876                 1.0241
 IR Inten    --      3.6583                 1.5155                 1.7730

                     22                     23                     24
                      A                      A                      A
 Frequencies --   1042.2372              1061.9197              1095.1334
 Red. masses --      1.6471                 1.3120                 1.6333
 Frc consts  --      1.0541                 0.8717                 1.1541
 IR Inten    --      0.6603                 0.1713                 2.8860

                     25                     26                     27
                      A                      A                      A
 Frequencies --   1147.6590              1175.1659              1193.7392
 Red. masses --      1.6286                 3.1407                 4.0025
 Frc consts  --      1.2638                 2.5555                 3.3604
 IR Inten    --      7.1953               121.6090               224.7806

                     28                     29                     30
                      A                      A                      A
 Frequencies --   1218.0436              1220.7584              1231.7933
 Red. masses --      1.5114                 1.4604                 1.5224
 Frc consts  --      1.3212                 1.2823                 1.3610
 IR Inten    --     15.2547                34.7973                 3.6490

                     31                     32                     33
                      A                      A                      A
 Frequencies --   1268.5113              1313.8264              1398.4954
 Red. masses --      3.6909                 2.2868                 1.4834
 Frc consts  --      3.4992                 2.3257                 1.7094
 IR Inten    --     32.9401                57.5050                 4.7588

                     34                     35                     36
                      A                      A                      A
 Frequencies --   1411.3830              1426.3404              1479.3693
 Red. masses --      1.1968                 1.6572                 1.0835
 Frc consts  --      1.4046                 1.9864                 1.3971
 IR Inten    --      2.8926                 4.8251                 0.3081

                     37                     38                     39
                      A                      A                      A
 Frequencies --   1484.8240              1486.6381              1497.6834
 Red. masses --      1.2035                 1.0660                 1.0558
 Frc consts  --      1.5633                 1.3880                 1.3953
 IR Inten    --      2.3247                 5.9151                 3.7770

                     40                     41                     42
                      A                      A                      A
 Frequencies --   1521.9467              1827.9726              3024.0784
 Red. masses --      1.4599                 9.6811                 1.0364
 Frc consts  --      1.9923                19.0596                 5.5840
 IR Inten    --     11.5089               256.4920                35.5367

                     43                     44                     45
                      A                      A                      A
 Frequencies --   3028.4701              3050.3952              3067.6839
 Red. masses --      1.0903                 1.0585                 1.0589
 Frc consts  --      5.8917                 5.8028                 5.8711
 IR Inten    --     76.7481                44.7464                32.6341

                     46                     47                     48
                      A                      A                      A
 Frequencies --   3082.8731              3100.6234              3101.6025
 Red. masses --      1.1007                 1.1020                 1.1038
 Frc consts  --      6.1638                 6.2418                 6.2563
 IR Inten    --     21.4406                 9.8966                12.9270

                     49                     50                     51
                      A                      A                      A
 Frequencies --   3104.1298              3124.2231              3199.8667
 Red. masses --      1.0591                 1.1076                 1.1131
 Frc consts  --      6.0129                 6.3697                 6.7153
 IR Inten    --     17.5857                30.3180                 8.5561

 - Thermochemistry -
 -------------------
 Temperature   298.150 Kelvin.  Pressure   1.00000 Atm.
 Atom     1 has atomic number  6 and mass  12.00000

 Molecular mass:   126.06808 amu.
 Principal axes and moments of inertia in atomic units:
                           1         2         3
     Eigenvalues --   574.953741461.834751685.73849
           X            0.99998  -0.00630   0.00082
           Y            0.00631   0.99990  -0.01277
           Z           -0.00074   0.01277   0.99992
 This molecule is an asymmetric top.
 Rotational symmetry number  1.
 Warning -- assumption of classical behavior for rotation
           may cause significant error
 Rotational temperatures (Kelvin)      0.15064     0.05925     0.05138
 Rotational constants (GHZ):           3.13893     1.23457     1.07059
 Zero-point vibrational energy     414867.1 (Joules/Mol)
                                   99.15562 (Kcal/Mol)
 Warning -- explicit consideration of  11 degrees of freedom as
           vibrations may cause significant error
 Vibrational temperatures:     62.37   177.30   259.69   280.21   297.68
          (Kelvin)            354.66   478.48   579.35   667.31   708.77
                              792.80   973.22  1017.13  1134.65  1180.39
                             1287.78  1336.64  1362.26  1387.17  1421.07
                             1467.48  1499.54  1527.86  1575.65  1651.22
                             1690.80  1717.52  1752.49  1756.40  1772.27
                             1825.10  1890.30  2012.12  2030.66  2052.18
                             2128.48  2136.33  2138.94  2154.83  2189.74
                             2630.04  4350.97  4357.29  4388.83  4413.71
                             4435.56  4461.10  4462.51  4466.14  4495.05
                             4603.89

 Zero-point correction=                           0.158015 (Hartree/Particle)
 Thermal correction to Energy=                    0.166857
 Thermal correction to Enthalpy=                  0.167802
 Thermal correction to Gibbs Free Energy=         0.124014
 Sum of electronic and zero-point Energies=           -423.028180
 Sum of electronic and thermal Energies=              -423.019338
 Sum of electronic and thermal Enthalpies=            -423.018393
 Sum of electronic and thermal Free Energies=         -423.062181

                     E (Thermal)             CV                S
                      KCal/Mol        Cal/Mol-Kelvin    Cal/Mol-Kelvin
 Total                  104.705             32.735             92.159
 Electronic               0.000              0.000              0.000
 Translational            0.889              2.981             40.409
 Rotational               0.889              2.981             28.740
 Vibrational            102.927             26.773             23.011
 Vibration     1          0.595              1.980              5.100
 Vibration     2          0.610              1.930              3.049
 Vibration     3          0.629              1.866              2.323
 Vibration     4          0.635              1.847              2.182
 Vibration     5          0.641              1.830              2.071
 Vibration     6          0.661              1.769              1.755
 Vibration     7          0.715              1.610              1.248
 Vibration     8          0.768              1.464              0.953
 Vibration     9          0.821              1.330              0.755
 Vibration    10          0.848              1.266              0.677
 Vibration    11          0.906              1.137              0.542

 Normal termination of Gaussian 09 at Mon Jan 27 18:03:50 2020.
