 Gaussian 09, Revision D.01,
 Gaussian 09:  ES64L-G09RevD.01 24-Apr-2013

 -----------------------------
 # b3lyp 6-31G(2df,p) opt Freq
 -----------------------------

 -----
 titel
 -----
 Symbolic Z-matrix:
 Charge =  0 Multiplicity = 1

 SCF Done:  E(RB3LYP) =  -423.170694375     A.U. after   13 cycles
 Optimization completed.
    -- Stationary point found.
 Normal termination of Gaussian 09 at Tue Jan 28 03:58:20 2020.

 ----------------------------------------------------------------------
 #N Geom=AllCheck Guess=TCheck SCRF=Check GenChk RB3LYP/6-31G(2df,p) Fr
 eq
 ----------------------------------------------------------------------

 Structure from the checkpoint file:  "/scratch/puck/g09_17e199bb-af9e-4028-af45-87928e8206a8/Gau-69806.chk"
 -----
 titel
 -----
 Charge =  0 Multiplicity = 1

                         Standard orientation:
 ---------------------------------------------------------------------
 Center     Atomic      Atomic             Coordinates (Angstroms)
 Number     Number       Type             X           Y           Z
 ---------------------------------------------------------------------
      1          6           0       -2.860504   -0.264277   -0.033472
      2          6           0       -1.396201   -0.164665    0.390242
      3          8           0       -0.674517   -1.060019   -0.454299
      4          6           0        0.708375   -0.877570   -0.541793
      5          6           0        1.635300   -0.975306    0.696348
      6          8           0        2.303691    0.245097    0.309805
      7          6           0        1.263206    0.556925   -0.668332
      8          6           0        0.307040    1.588626   -0.160367
      9          6           0       -0.879984    1.249179    0.337676
     10          1           0       -3.191046   -1.305047    0.010033
     11          1           0       -3.493608    0.331719    0.630558
     12          1           0       -2.984257    0.097970   -1.057948
     13          1           0       -1.317377   -0.517071    1.434753
     14          1           0        1.041182   -1.531623   -1.349883
     15          1           0        1.118412   -0.878928    1.660423
     16          1           0        2.323561   -1.825698    0.739272
     17          1           0        1.713306    0.842353   -1.625420
     18          1           0        0.635667    2.624461   -0.163015
     19          1           0       -1.542622    2.003765    0.755371
 ---------------------------------------------------------------------

 SCF Done:  E(RB3LYP) =  -423.170694375     A.U. after    1 cycles

 The electronic state is 1-A.
 Alpha  occ. eigenvalues --  -19.14699 -19.13162 -10.24336 -10.23681 -10.23217
 Alpha  occ. eigenvalues --  -10.22504 -10.19179 -10.18658 -10.18022  -1.05106
 Alpha  occ. eigenvalues --   -1.02347  -0.80511  -0.77150  -0.70748  -0.68615
 Alpha  occ. eigenvalues --   -0.61883  -0.60432  -0.52061  -0.51183  -0.50351
 Alpha  occ. eigenvalues --   -0.47524  -0.44337  -0.43267  -0.41934  -0.40198
 Alpha  occ. eigenvalues --   -0.38588  -0.37662  -0.36804  -0.35588  -0.35192
 Alpha  occ. eigenvalues --   -0.29132  -0.26442  -0.25220  -0.24393
 Alpha virt. eigenvalues --    0.00335   0.08179   0.09874   0.10597   0.11552
 Alpha virt. eigenvalues --    0.12873   0.14738   0.16059   0.16487   0.17308
 Alpha virt. eigenvalues --    0.17989   0.18449   0.20134   0.21024   0.21414

 Mulliken charges:
               1
     1  C   -0.394682
     2  C    0.084292
     3  O   -0.277368
     4  C    0.083157
     5  C   -0.124564
     6  O   -0.291981
     7  C    0.031431
     8  C   -0.088476
     9  C   -0.064844
    10  H    0.127524
    11  H    0.114830
    12  H    0.128120
    13  H    0.085537
    14  H    0.098416
    15  H    0.102601
    16  H    0.106497
    17  H    0.081031
    18  H    0.099538
    19  H    0.098939
 Sum of Mulliken charges =   0.00000

 Dipole moment (field-independent basis, Debye):
    X=             -1.3554    Y=              0.1420    Z=              0.1174  Tot=              1.3679
 Quadrupole moment (field-independent basis, Debye-Ang):
   XX=            -55.8595   YY=            -51.6135   ZZ=            -52.2230
   XY=             -3.3840   XZ=             -3.5156   YZ=             -1.2669

  Exact polarizability:  92.234  -1.364  74.333  -6.812  -2.218  63.179
 Approx polarizability: 129.981   3.411 106.778 -12.795  -3.616  98.645

                      1                      2                      3
                      A                      A                      A
 Frequencies --     76.0684               150.2187               213.0376
 Red. masses --      3.5661                 2.7427                 2.7619
 Frc consts  --      0.0122                 0.0365                 0.0739
 IR Inten    --      0.7441                 3.2449                 2.0042

                      4                      5                      6
                      A                      A                      A
 Frequencies --    243.5679               319.3213               375.7474
 Red. masses --      1.1891                 2.7364                 3.0415
 Frc consts  --      0.0416                 0.1644                 0.2530
 IR Inten    --      0.4616                 1.0278                 8.7420

                      7                      8                      9
                      A                      A                      A
 Frequencies --    405.6880               467.3030               559.4200
 Red. masses --      3.1700                 4.3137                 3.9092
 Frc consts  --      0.3074                 0.5550                 0.7208
 IR Inten    --      2.9815                 3.1855                 2.8692

                     10                     11                     12
                      A                      A                      A
 Frequencies --    600.3561               702.8941               754.4795
 Red. masses --      3.5907                 2.7131                 2.4525
 Frc consts  --      0.7625                 0.7898                 0.8225
 IR Inten    --      3.1126                 3.8040                 7.8750

                     13                     14                     15
                      A                      A                      A
 Frequencies --    802.2316               849.9604               861.2264
 Red. masses --      2.3196                 2.4833                 2.1339
 Frc consts  --      0.8796                 1.0570                 0.9325
 IR Inten    --     10.1890                 6.6795                 3.7618

                     16                     17                     18
                      A                      A                      A
 Frequencies --    903.2391               938.2771               984.8623
 Red. masses --      2.7501                 2.2292                 5.6953
 Frc consts  --      1.3219                 1.1563                 3.2547
 IR Inten    --     19.6870                10.3007                74.5426

                     19                     20                     21
                      A                      A                      A
 Frequencies --    998.7048              1005.1818              1040.4301
 Red. masses --      1.9249                 1.8320                 2.4491
 Frc consts  --      1.1312                 1.0906                 1.5620
 IR Inten    --     11.4140                10.8260                12.1094

                     22                     23                     24
                      A                      A                      A
 Frequencies --   1059.6648              1079.9618              1127.6852
 Red. masses --      1.9229                 1.9949                 1.9953
 Frc consts  --      1.2721                 1.3709                 1.4949
 IR Inten    --      1.1804                 5.6935                17.7427

                     25                     26                     27
                      A                      A                      A
 Frequencies --   1146.5567              1156.4406              1175.8650
 Red. masses --      1.5810                 1.4822                 1.7268
 Frc consts  --      1.2245                 1.1679                 1.4067
 IR Inten    --      8.3091                13.3652                56.7947

                     28                     29                     30
                      A                      A                      A
 Frequencies --   1226.4106              1263.4418              1277.9900
 Red. masses --      2.0251                 1.2995                 1.4021
 Frc consts  --      1.7946                 1.2222                 1.3492
 IR Inten    --     89.0467                 0.2832                 3.6236

                     31                     32                     33
                      A                      A                      A
 Frequencies --   1329.7387              1337.1161              1355.7158
 Red. masses --      1.3241                 1.3446                 1.2953
 Frc consts  --      1.3795                 1.4164                 1.4027
 IR Inten    --      2.5029                13.2512                 1.1923

                     34                     35                     36
                      A                      A                      A
 Frequencies --   1368.3207              1403.1425              1404.7573
 Red. masses --      1.5582                 1.2942                 1.5585
 Frc consts  --      1.7189                 1.5012                 1.8120
 IR Inten    --     10.7486                 3.1593                23.3560

                     37                     38                     39
                      A                      A                      A
 Frequencies --   1423.5173              1484.5478              1498.8899
 Red. masses --      1.4928                 1.0561                 1.0526
 Frc consts  --      1.7823                 1.3714                 1.3934
 IR Inten    --      1.9594                 2.6355                 1.9779

                     40                     41                     42
                      A                      A                      A
 Frequencies --   1515.6478              1719.5924              2932.6559
 Red. masses --      1.1035                 7.2053                 1.0801
 Frc consts  --      1.4936                12.5531                 5.4730
 IR Inten    --      2.2491                 0.7760                35.6074

                     43                     44                     45
                      A                      A                      A
 Frequencies --   3014.6146              3044.2084              3044.9163
 Red. masses --      1.0602                 1.0820                 1.0379
 Frc consts  --      5.6766                 5.9078                 5.6699
 IR Inten    --     58.3449                37.5772                15.5969

                     46                     47                     48
                      A                      A                      A
 Frequencies --   3070.5937              3098.2077              3120.7937
 Red. masses --      1.1028                 1.0901                 1.1019
 Frc consts  --      6.1263                 6.1649                 6.3230
 IR Inten    --     27.1648                53.2596                18.0012

                     49                     50                     51
                      A                      A                      A
 Frequencies --   3127.9179              3148.1025              3171.4895
 Red. masses --      1.1027                 1.0840                 1.0973
 Frc consts  --      6.3566                 6.3294                 6.5025
 IR Inten    --     18.3135                 8.4282                21.3221

 - Thermochemistry -
 -------------------
 Temperature   298.150 Kelvin.  Pressure   1.00000 Atm.
 Atom     1 has atomic number  6 and mass  12.00000

 Molecular mass:   126.06808 amu.
 Principal axes and moments of inertia in atomic units:
                           1         2         3
     Eigenvalues --   531.361131296.733811577.98372
           X            0.99983  -0.01597  -0.00956
           Y            0.01577   0.99966  -0.02066
           Z            0.00988   0.02050   0.99974
 This molecule is an asymmetric top.
 Rotational symmetry number  1.
 Warning -- assumption of classical behavior for rotation
           may cause significant error
 Rotational temperatures (Kelvin)      0.16300     0.06679     0.05489
 Rotational constants (GHZ):           3.39645     1.39176     1.14370
 Zero-point vibrational energy     420970.2 (Joules/Mol)
                                  100.61429 (Kcal/Mol)
 Warning -- explicit consideration of  10 degrees of freedom as
           vibrations may cause significant error
 Vibrational temperatures:    109.45   216.13   306.51   350.44   459.43
          (Kelvin)            540.62   583.69   672.34   804.88   863.78
                             1011.31  1085.53  1154.23  1222.90  1239.11
                             1299.56  1349.97  1417.00  1436.91  1446.23
                             1496.95  1524.62  1553.82  1622.49  1649.64
                             1663.86  1691.81  1764.53  1817.81  1838.74
                             1913.20  1923.81  1950.57  1968.71  2018.81
                             2021.13  2048.12  2135.93  2156.57  2180.68
                             2474.11  4219.43  4337.35  4379.93  4380.95
                             4417.89  4457.62  4490.12  4500.37  4529.41
                             4563.06

 Zero-point correction=                           0.160339 (Hartree/Particle)
 Thermal correction to Energy=                    0.168166
 Thermal correction to Enthalpy=                  0.169110
 Thermal correction to Gibbs Free Energy=         0.127914
 Sum of electronic and zero-point Energies=           -423.010355
 Sum of electronic and thermal Energies=              -423.002529
 Sum of electronic and thermal Enthalpies=            -423.001585
 Sum of electronic and thermal Free Energies=         -423.042781

                     E (Thermal)             CV                S
                      KCal/Mol        Cal/Mol-Kelvin    Cal/Mol-Kelvin
 Total                  105.525             30.421             86.705
 Electronic               0.000              0.000              0.000
 Translational            0.889              2.981             40.409
 Rotational               0.889              2.981             28.477
 Vibrational            103.748             24.459             17.819
 Vibration     1          0.599              1.965              3.990
 Vibration     2          0.618              1.902              2.669
 Vibration     3          0.644              1.821              2.017
 Vibration     4          0.659              1.773              1.777
 Vibration     5          0.705              1.637              1.314
 Vibration     6          0.747              1.522              1.056
 Vibration     7          0.771              1.458              0.942
 Vibration     8          0.825              1.323              0.745
 Vibration     9          0.915              1.119              0.525
 Vibration    10          0.959              1.031              0.449

 Optimization completed.
    -- Stationary point found.
 Normal termination of Gaussian 09 at Tue Jan 28 04:44:25 2020.
