 Gaussian 09, Revision D.01,
 Gaussian 09:  ES64L-G09RevD.01 24-Apr-2013

 -----------------------------
 # b3lyp 6-31G(2df,p) opt Freq
 -----------------------------

 -----
 titel
 -----
 Symbolic Z-matrix:
 Charge =  0 Multiplicity = 1

 SCF Done:  E(RB3LYP) =  -423.151510799     A.U. after   13 cycles
 Optimization completed.
    -- Stationary point found.
 Normal termination of Gaussian 09 at Tue Jan 28 09:50:45 2020.

 ----------------------------------------------------------------------
 #N Geom=AllCheck Guess=TCheck SCRF=Check GenChk RB3LYP/6-31G(2df,p) Fr
 eq
 ----------------------------------------------------------------------

 Structure from the checkpoint file:  "/scratch/puck/g09_e85334e2-42a0-46e9-91f5-facd088d462f/Gau-18786.chk"
 -----
 titel
 -----
 Charge =  0 Multiplicity = 1

                         Standard orientation:
 ---------------------------------------------------------------------
 Center     Atomic      Atomic             Coordinates (Angstroms)
 Number     Number       Type             X           Y           Z
 ---------------------------------------------------------------------
      1          6           0       -2.835114    0.422214   -0.106651
      2          8           0       -1.642313    0.064469   -0.778826
      3          6           0       -0.523546   -0.055721    0.058457
      4          6           0       -0.443159   -1.302539    0.927025
      5          6           0        0.418433   -1.158693   -0.307697
      6          8           0        1.788864   -0.965500   -0.111377
      7          6           0        2.257788    0.347352   -0.387964
      8          6           0        1.407511    1.424230    0.239439
      9          6           0        0.114288    1.222170    0.478343
     10          1           0       -2.781906    1.429274    0.330368
     11          1           0       -3.632747    0.410079   -0.853078
     12          1           0       -3.080061   -0.290594    0.693259
     13          1           0        0.059705   -1.227807    1.884232
     14          1           0       -1.276000   -1.996050    0.878868
     15          1           0        0.163902   -1.756482   -1.180469
     16          1           0        3.277613    0.381998    0.008494
     17          1           0        2.330396    0.516019   -1.476806
     18          1           0        1.893344    2.363912    0.486470
     19          1           0       -0.503866    1.983821    0.944570
 ---------------------------------------------------------------------

 SCF Done:  E(RB3LYP) =  -423.151510799     A.U. after    1 cycles

 The electronic state is 1-A.
 Alpha  occ. eigenvalues --  -19.14619 -19.14155 -10.23979 -10.23352 -10.22983
 Alpha  occ. eigenvalues --  -10.22528 -10.18851 -10.18663 -10.18298  -1.04621
 Alpha  occ. eigenvalues --   -1.03157  -0.84598  -0.79073  -0.69277  -0.68585
 Alpha  occ. eigenvalues --   -0.61617  -0.58903  -0.52360  -0.51360  -0.50121
 Alpha  occ. eigenvalues --   -0.47986  -0.45215  -0.43570  -0.43185  -0.40796
 Alpha  occ. eigenvalues --   -0.40130  -0.39561  -0.35449  -0.34564  -0.32542
 Alpha  occ. eigenvalues --   -0.28059  -0.26599  -0.24477  -0.23583
 Alpha virt. eigenvalues --    0.00725   0.08883   0.11027   0.11441   0.12453
 Alpha virt. eigenvalues --    0.13178   0.14556   0.15080   0.15985   0.16364
 Alpha virt. eigenvalues --    0.17655   0.18328   0.20673   0.21431   0.22241

 Mulliken charges:
               1
     1  C   -0.249181
     2  O   -0.282375
     3  C    0.363432
     4  C   -0.361949
     5  C    0.024750
     6  O   -0.262286
     7  C   -0.120335
     8  C   -0.074801
     9  C   -0.140383
    10  H    0.109766
    11  H    0.128243
    12  H    0.109146
    13  H    0.123078
    14  H    0.115201
    15  H    0.101559
    16  H    0.117220
    17  H    0.106852
    18  H    0.098430
    19  H    0.093633
 Sum of Mulliken charges =   0.00000

 Dipole moment (field-independent basis, Debye):
    X=             -0.7069    Y=              1.2037    Z=              0.7154  Tot=              1.5685
 Quadrupole moment (field-independent basis, Debye-Ang):
   XX=            -48.9120   YY=            -52.5131   ZZ=            -54.0775
   XY=              3.3757   XZ=             -2.1359   YZ=              0.9136

  Exact polarizability:  97.644   5.720  73.887  -4.432   0.813  61.086
 Approx polarizability: 136.044   6.950 105.757  -7.721   0.277  95.121

                      1                      2                      3
                      A                      A                      A
 Frequencies --     97.7306               130.9035               165.5933
 Red. masses --      2.2794                 2.1499                 2.3780
 Frc consts  --      0.0128                 0.0217                 0.0384
 IR Inten    --      1.7076                 1.9510                 1.4173

                      4                      5                      6
                      A                      A                      A
 Frequencies --    185.2737               255.6558               328.0953
 Red. masses --      1.5658                 2.5770                 3.4215
 Frc consts  --      0.0317                 0.0992                 0.2170
 IR Inten    --      2.2825                 0.5736                 3.2635

                      7                      8                      9
                      A                      A                      A
 Frequencies --    373.7324               428.8563               479.6472
 Red. masses --      4.3076                 2.7973                 2.1925
 Frc consts  --      0.3545                 0.3031                 0.2972
 IR Inten    --      6.0083                 5.9033                 2.7146

                     10                     11                     12
                      A                      A                      A
 Frequencies --    514.4968               585.8005               680.1409
 Red. masses --      6.1089                 3.3920                 4.7985
 Frc consts  --      0.9527                 0.6858                 1.3078
 IR Inten    --      3.6996                 2.9513                 6.5615

                     13                     14                     15
                      A                      A                      A
 Frequencies --    716.4778               806.5084               878.8464
 Red. masses --      1.4507                 2.0752                 2.6545
 Frc consts  --      0.4388                 0.7953                 1.2080
 IR Inten    --     21.6184                 7.4814                 3.0977

                     16                     17                     18
                      A                      A                      A
 Frequencies --    905.9775               920.9642               967.2382
 Red. masses --      1.7662                 2.5771                 2.4353
 Frc consts  --      0.8541                 1.2878                 1.3424
 IR Inten    --      5.0397                 4.7208                12.3957

                     19                     20                     21
                      A                      A                      A
 Frequencies --    986.3919               998.5656              1021.2437
 Red. masses --      1.4822                 2.6685                 2.0610
 Frc consts  --      0.8497                 1.5677                 1.2664
 IR Inten    --      2.1525                17.9818                 7.6354

                     22                     23                     24
                      A                      A                      A
 Frequencies --   1042.3118              1056.9160              1082.7943
 Red. masses --      1.7001                 2.4259                 3.0280
 Frc consts  --      1.0882                 1.5966                 2.0917
 IR Inten    --      0.7200                20.7175                21.7543

                     25                     26                     27
                      A                      A                      A
 Frequencies --   1117.3430              1177.4020              1181.1640
 Red. masses --      1.7946                 1.6711                 1.3201
 Frc consts  --      1.3200                 1.3649                 1.0851
 IR Inten    --     45.6186                53.7864                14.4986

                     28                     29                     30
                      A                      A                      A
 Frequencies --   1191.0651              1211.2251              1239.3273
 Red. masses --      2.2657                 1.5988                 2.1640
 Frc consts  --      1.8937                 1.3819                 1.9583
 IR Inten    --    136.1566                 5.8027                61.6252

                     31                     32                     33
                      A                      A                      A
 Frequencies --   1267.8487              1311.6641              1371.0136
 Red. masses --      1.1501                 1.4176                 1.6241
 Frc consts  --      1.0893                 1.4369                 1.7987
 IR Inten    --      1.4388                 4.1011                 5.8955

                     34                     35                     36
                      A                      A                      A
 Frequencies --   1409.2002              1417.4560              1461.1277
 Red. masses --      1.3579                 1.8364                 1.4479
 Frc consts  --      1.5888                 2.1739                 1.8212
 IR Inten    --      1.5285                13.4999                11.5298

                     37                     38                     39
                      A                      A                      A
 Frequencies --   1477.3064              1489.4478              1493.8210
 Red. masses --      1.2154                 1.0675                 1.1148
 Frc consts  --      1.5629                 1.3953                 1.4657
 IR Inten    --      0.5806                 2.6687                 2.5544

                     40                     41                     42
                      A                      A                      A
 Frequencies --   1507.7219              1713.3487              2952.5627
 Red. masses --      1.0517                 7.0811                 1.0722
 Frc consts  --      1.4085                12.2473                 5.5072
 IR Inten    --      8.0590                 1.4768                58.9376

                     43                     44                     45
                      A                      A                      A
 Frequencies --   2992.1061              3043.0563              3070.9663
 Red. masses --      1.0351                 1.1035                 1.0884
 Frc consts  --      5.4597                 6.0207                 6.0479
 IR Inten    --     52.6436                45.8239                31.3814

                     46                     47                     48
                      A                      A                      A
 Frequencies --   3118.1688              3126.9917              3134.6138
 Red. masses --      1.0978                 1.0845                 1.0576
 Frc consts  --      6.2890                 6.2478                 6.1226
 IR Inten    --     27.5597                21.6533                 8.9543

                     49                     50                     51
                      A                      A                      A
 Frequencies --   3158.4896              3180.6309              3232.7917
 Red. masses --      1.0833                 1.0985                 1.1178
 Frc consts  --      6.3674                 6.5472                 6.8827
 IR Inten    --      6.5897                23.1940                 4.9752

 - Thermochemistry -
 -------------------
 Temperature   298.150 Kelvin.  Pressure   1.00000 Atm.
 Atom     1 has atomic number  6 and mass  12.00000

 Molecular mass:   126.06808 amu.
 Principal axes and moments of inertia in atomic units:
                           1         2         3
     Eigenvalues --   554.722771332.912951622.58680
           X            0.99978   0.01591  -0.01381
           Y           -0.01588   0.99987   0.00206
           Z            0.01384  -0.00184   0.99990
 This molecule is an asymmetric top.
 Rotational symmetry number  1.
 Warning -- assumption of classical behavior for rotation
           may cause significant error
 Rotational temperatures (Kelvin)      0.15614     0.06498     0.05338
 Rotational constants (GHZ):           3.25341     1.35398     1.11226
 Zero-point vibrational energy     416647.5 (Joules/Mol)
                                   99.58114 (Kcal/Mol)
 Warning -- explicit consideration of  11 degrees of freedom as
           vibrations may cause significant error
 Vibrational temperatures:    140.61   188.34   238.25   266.57   367.83
          (Kelvin)            472.06   537.72   617.03   690.10   740.25
                              842.84   978.57  1030.85  1160.38  1264.46
                             1303.50  1325.06  1391.64  1419.20  1436.71
                             1469.34  1499.65  1520.66  1557.90  1607.61
                             1694.02  1699.43  1713.67  1742.68  1783.11
                             1824.15  1887.19  1972.58  2027.52  2039.40
                             2102.23  2125.51  2142.98  2149.27  2169.27
                             2465.12  4248.07  4304.97  4378.27  4418.43
                             4486.34  4499.04  4510.00  4544.36  4576.21
                             4651.26

 Zero-point correction=                           0.158693 (Hartree/Particle)
 Thermal correction to Energy=                    0.167132
 Thermal correction to Enthalpy=                  0.168076
 Thermal correction to Gibbs Free Energy=         0.125714
 Sum of electronic and zero-point Energies=           -422.992818
 Sum of electronic and thermal Energies=              -422.984379
 Sum of electronic and thermal Enthalpies=            -422.983435
 Sum of electronic and thermal Free Energies=         -423.025797

                     E (Thermal)             CV                S
                      KCal/Mol        Cal/Mol-Kelvin    Cal/Mol-Kelvin
 Total                  104.877             32.096             89.157
 Electronic               0.000              0.000              0.000
 Translational            0.889              2.981             40.409
 Rotational               0.889              2.981             28.575
 Vibrational            103.099             26.134             20.174
 Vibration     1          0.603              1.951              3.499
 Vibration     2          0.612              1.922              2.933
 Vibration     3          0.624              1.885              2.485
 Vibration     4          0.631              1.860              2.275
 Vibration     5          0.666              1.753              1.691
 Vibration     6          0.711              1.619              1.269
 Vibration     7          0.745              1.526              1.064
 Vibration     8          0.790              1.407              0.862
 Vibration     9          0.836              1.295              0.711
 Vibration    10          0.870              1.218              0.623
 Vibration    11          0.943              1.062              0.475

 Normal termination of Gaussian 09 at Tue Jan 28 10:33:12 2020.
