 Gaussian 09, Revision D.01,
 Gaussian 09:  ES64L-G09RevD.01 24-Apr-2013

 -----------------------------
 # b3lyp 6-31G(2df,p) opt Freq
 -----------------------------

 -----
 titel
 -----
 Symbolic Z-matrix:
 Charge =  0 Multiplicity = 1

 SCF Done:  E(RB3LYP) =  -423.209773787     A.U. after   14 cycles
 Optimization completed.
    -- Stationary point found.
 Normal termination of Gaussian 09 at Mon Jan 27 13:51:17 2020.

 ----------------------------------------------------------------------
 #N Geom=AllCheck Guess=TCheck SCRF=Check GenChk RB3LYP/6-31G(2df,p) Fr
 eq
 ----------------------------------------------------------------------

 Structure from the checkpoint file:  "/scratch/puck/g09_01034a03-cb20-4f81-981f-c998f6e66724/Gau-3449.chk"
 -----
 titel
 -----
 Charge =  0 Multiplicity = 1

                         Standard orientation:
 ---------------------------------------------------------------------
 Center     Atomic      Atomic             Coordinates (Angstroms)
 Number     Number       Type             X           Y           Z
 ---------------------------------------------------------------------
      1          8           0       -2.786567    0.632567    0.302457
      2          6           0       -2.371655   -0.435002   -0.056095
      3          8           0       -1.118238   -0.710242   -0.444954
      4          6           0       -0.193580    0.386634   -0.448438
      5          6           0        1.191677    0.085335   -1.055027
      6          6           0        1.675760    1.267323   -0.159319
      7          6           0        0.618478    0.698261    0.834755
      8          6           0        1.220768   -0.675558    1.188827
      9          6           0        1.655389   -1.140407   -0.241681
     10          1           0       -2.971099   -1.356712   -0.121797
     11          1           0       -0.682349    1.267841   -0.863382
     12          1           0        1.350120    0.070906   -2.133047
     13          1           0        2.720291    1.255942    0.160523
     14          1           0        1.411473    2.249192   -0.557286
     15          1           0        0.194803    1.297792    1.638810
     16          1           0        2.063145   -0.581381    1.879158
     17          1           0        0.486887   -1.347726    1.639507
     18          1           0        2.733901   -1.296872   -0.327920
     19          1           0        1.150251   -2.057098   -0.552712
 ---------------------------------------------------------------------

 SCF Done:  E(RB3LYP) =  -423.209773787     A.U. after    1 cycles

 The electronic state is 1-A.
 Alpha  occ. eigenvalues --  -19.18815 -19.13275 -10.30791 -10.24256 -10.19688
 Alpha  occ. eigenvalues --  -10.19494 -10.19008 -10.18297 -10.18268  -1.10492
 Alpha  occ. eigenvalues --   -1.02151  -0.89477  -0.73207  -0.69938  -0.69294
 Alpha  occ. eigenvalues --   -0.60242  -0.55956  -0.54249  -0.52340  -0.50700
 Alpha  occ. eigenvalues --   -0.47895  -0.46935  -0.43840  -0.42026  -0.38871
 Alpha  occ. eigenvalues --   -0.36776  -0.35696  -0.34660  -0.33825  -0.33165
 Alpha  occ. eigenvalues --   -0.32163  -0.31024  -0.28935  -0.27849
 Alpha virt. eigenvalues --    0.00859   0.09233   0.10943   0.12629   0.13015
 Alpha virt. eigenvalues --    0.13413   0.14296   0.14622   0.15956   0.17210
 Alpha virt. eigenvalues --    0.17859   0.19194   0.20353   0.20707   0.22421

 Mulliken charges:
               1
     1  O   -0.303176
     2  C    0.168512
     3  O   -0.229284
     4  C    0.187217
     5  C   -0.076986
     6  C   -0.235093
     7  C   -0.061616
     8  C   -0.209913
     9  C   -0.207501
    10  H    0.107502
    11  H    0.105983
    12  H    0.066622
    13  H    0.099073
    14  H    0.104745
    15  H    0.076591
    16  H    0.097971
    17  H    0.103502
    18  H    0.096630
    19  H    0.109220
 Sum of Mulliken charges =   0.00000

 Dipole moment (field-independent basis, Debye):
    X=              1.7680    Y=             -0.8256    Z=             -0.4846  Tot=              2.0105
 Quadrupole moment (field-independent basis, Debye-Ang):
   XX=            -56.4379   YY=            -53.0154   ZZ=            -52.4754
   XY=              5.0905   XZ=              1.6853   YZ=             -1.1887

  Exact polarizability:  87.034   1.159  73.732  -1.769   0.331  65.548
 Approx polarizability: 116.610  -2.943 113.795  -4.196   4.154  98.750

                      1                      2                      3
                      A                      A                      A
 Frequencies --     29.5264               153.3403               198.8107
 Red. masses --      6.5839                 4.3342                 2.8889
 Frc consts  --      0.0034                 0.0600                 0.0673
 IR Inten    --      1.3991                 2.3732                 3.8572

                      4                      5                      6
                      A                      A                      A
 Frequencies --    263.8115               312.2687               407.3098
 Red. masses --      3.1697                 2.2174                 3.0611
 Frc consts  --      0.1300                 0.1274                 0.2992
 IR Inten    --      5.5956                 8.3319                 5.9615

                      7                      8                      9
                      A                      A                      A
 Frequencies --    454.0298               550.7006               686.4739
 Red. masses --      1.9223                 3.9711                 4.3663
 Frc consts  --      0.2335                 0.7096                 1.2123
 IR Inten    --      0.2401                 2.4164                 1.0729

                     10                     11                     12
                      A                      A                      A
 Frequencies --    758.0020               815.8329               831.8767
 Red. masses --      4.8469                 2.2282                 1.7080
 Frc consts  --      1.6408                 0.8738                 0.6964
 IR Inten    --      3.8181                 1.0362                 2.7308

                     13                     14                     15
                      A                      A                      A
 Frequencies --    842.6161               864.3945               891.6736
 Red. masses --      2.9088                 2.1571                 2.6870
 Frc consts  --      1.2168                 0.9496                 1.2587
 IR Inten    --      0.5440                 3.2617                 3.5018

                     16                     17                     18
                      A                      A                      A
 Frequencies --    911.6574               968.3128               969.5683
 Red. masses --      3.0949                 1.2696                 1.7495
 Frc consts  --      1.5155                 0.7014                 0.9690
 IR Inten    --      0.4177                 0.3955                 1.4367

                     19                     20                     21
                      A                      A                      A
 Frequencies --    985.3864               997.1063              1044.6008
 Red. masses --      3.4216                 1.5655                 1.6329
 Frc consts  --      1.9575                 0.9170                 1.0498
 IR Inten    --     25.2734                 6.2449                 0.2096

                     22                     23                     24
                      A                      A                      A
 Frequencies --   1048.2013              1082.7081              1091.9702
 Red. masses --      1.6013                 2.9907                 1.1295
 Frc consts  --      1.0366                 2.0656                 0.7935
 IR Inten    --      1.2883                19.4515                 1.2865

                     25                     26                     27
                      A                      A                      A
 Frequencies --   1143.3469              1150.8639              1198.1600
 Red. masses --      1.6848                 1.2214                 2.2750
 Frc consts  --      1.2976                 0.9532                 1.9243
 IR Inten    --      0.9980                 5.4492               154.2547

                     28                     29                     30
                      A                      A                      A
 Frequencies --   1205.3740              1220.8888              1228.5157
 Red. masses --      3.7957                 1.4831                 1.7497
 Frc consts  --      3.2493                 1.3024                 1.5559
 IR Inten    --    309.9638                 1.7740                 0.8609

                     31                     32                     33
                      A                      A                      A
 Frequencies --   1261.3842              1279.8741              1290.4753
 Red. masses --      1.2221                 1.6359                 1.4510
 Frc consts  --      1.1457                 1.5788                 1.4237
 IR Inten    --      0.7016                 0.9204                 0.2557

                     34                     35                     36
                      A                      A                      A
 Frequencies --   1325.9556              1349.7129              1402.1630
 Red. masses --      1.6273                 1.5757                 1.2390
 Frc consts  --      1.6857                 1.6913                 1.4353
 IR Inten    --      2.6027                 2.3238                13.1845

                     37                     38                     39
                      A                      A                      A
 Frequencies --   1410.5228              1488.6196              1494.9089
 Red. masses --      1.1515                 1.0820                 1.1017
 Frc consts  --      1.3499                 1.4127                 1.4506
 IR Inten    --      1.2724                 0.4852                 2.5270

                     40                     41                     42
                      A                      A                      A
 Frequencies --   1517.0965              1820.1532              3024.7385
 Red. masses --      1.1181                 9.5119                 1.0904
 Frc consts  --      1.5162                18.5667                 5.8775
 IR Inten    --      5.9335               283.3591                70.2142

                     43                     44                     45
                      A                      A                      A
 Frequencies --   3060.6199              3066.1771              3069.6889
 Red. masses --      1.0595                 1.0572                 1.0601
 Frc consts  --      5.8477                 5.8561                 5.8857
 IR Inten    --     26.2903                33.7889                38.6600

                     46                     47                     48
                      A                      A                      A
 Frequencies --   3101.9534              3116.5836              3120.2435
 Red. masses --      1.1061                 1.0889                 1.1031
 Frc consts  --      6.2709                 6.2316                 6.3274
 IR Inten    --      1.7013                13.9010                33.6859

                     49                     50                     51
                      A                      A                      A
 Frequencies --   3123.4575              3127.5738              3135.9640
 Red. masses --      1.0957                 1.1015                 1.0929
 Frc consts  --      6.2980                 6.3484                 6.3327
 IR Inten    --     40.7027                39.9687                21.6754

 - Thermochemistry -
 -------------------
 Temperature   298.150 Kelvin.  Pressure   1.00000 Atm.
 Atom     1 has atomic number  8 and mass  15.99491

 Molecular mass:   126.06808 amu.
 Principal axes and moments of inertia in atomic units:
                           1         2         3
     Eigenvalues --   523.659661476.716471559.64770
           X            0.99995   0.00887   0.00362
           Y           -0.00857   0.99719  -0.07438
           Z           -0.00427   0.07434   0.99722
 This molecule is an asymmetric top.
 Rotational symmetry number  1.
 Warning -- assumption of classical behavior for rotation
           may cause significant error
 Rotational temperatures (Kelvin)      0.16540     0.05865     0.05553
 Rotational constants (GHZ):           3.44640     1.22213     1.15715
 Zero-point vibrational energy     424047.4 (Joules/Mol)
                                  101.34977 (Kcal/Mol)
 Warning -- explicit consideration of   8 degrees of freedom as
           vibrations may cause significant error
 Vibrational temperatures:     42.48   220.62   286.04   379.57   449.28
          (Kelvin)            586.03   653.25   792.33   987.68  1090.59
                             1173.80  1196.88  1212.34  1243.67  1282.92
                             1311.67  1393.18  1394.99  1417.75  1434.61
                             1502.95  1508.13  1557.77  1571.10  1645.02
                             1655.83  1723.88  1734.26  1756.58  1767.56
                             1814.85  1841.45  1856.70  1907.75  1941.93
                             2017.40  2029.43  2141.79  2150.84  2182.76
                             2618.79  4351.92  4403.54  4411.54  4416.59
                             4463.01  4484.06  4489.33  4493.95  4499.88
                             4511.95

 Zero-point correction=                           0.161511 (Hartree/Particle)
 Thermal correction to Energy=                    0.169101
 Thermal correction to Enthalpy=                  0.170045
 Thermal correction to Gibbs Free Energy=         0.128427
 Sum of electronic and zero-point Energies=           -423.048263
 Sum of electronic and thermal Energies=              -423.040673
 Sum of electronic and thermal Enthalpies=            -423.039729
 Sum of electronic and thermal Free Energies=         -423.081347

                     E (Thermal)             CV                S
                      KCal/Mol        Cal/Mol-Kelvin    Cal/Mol-Kelvin
 Total                  106.112             29.258             87.593
 Electronic               0.000              0.000              0.000
 Translational            0.889              2.981             40.409
 Rotational               0.889              2.981             28.580
 Vibrational            104.335             23.297             18.605
 Vibration     1          0.593              1.984              5.861
 Vibration     2          0.619              1.899              2.630
 Vibration     3          0.637              1.842              2.144
 Vibration     4          0.670              1.739              1.636
 Vibration     5          0.701              1.650              1.350
 Vibration     6          0.772              1.454              0.936
 Vibration     7          0.812              1.352              0.784
 Vibration     8          0.906              1.138              0.543

 Optimization completed.
    -- Stationary point found.
 Normal termination of Gaussian 09 at Mon Jan 27 15:45:07 2020.
