 Gaussian 09, Revision D.01,
 Gaussian 09:  ES64L-G09RevD.01 24-Apr-2013

 -----------------------------
 # b3lyp 6-31G(2df,p) opt Freq
 -----------------------------

 -----
 titel
 -----
 Symbolic Z-matrix:
 Charge =  0 Multiplicity = 1

 SCF Done:  E(RB3LYP) =  -423.190621831     A.U. after   14 cycles
 Optimization completed.
    -- Stationary point found.
 Normal termination of Gaussian 09 at Tue Jan 28 09:04:30 2020.

 ----------------------------------------------------------------------
 #N Geom=AllCheck Guess=TCheck SCRF=Check GenChk RB3LYP/6-31G(2df,p) Fr
 eq
 ----------------------------------------------------------------------

 Structure from the checkpoint file:  "/scratch/puck/g09_f874827a-e64c-49df-a408-3bbe793603a3/Gau-16487.chk"
 -----
 titel
 -----
 Charge =  0 Multiplicity = 1

                         Standard orientation:
 ---------------------------------------------------------------------
 Center     Atomic      Atomic             Coordinates (Angstroms)
 Number     Number       Type             X           Y           Z
 ---------------------------------------------------------------------
      1          6           0       -2.368271   -0.891476    0.353511
      2          8           0       -1.239033   -1.002330   -0.494426
      3          6           0       -0.170369   -0.112768   -0.200975
      4          6           0        0.966409   -0.405327   -1.227101
      5          6           0        2.218090   -0.393398   -0.391617
      6          6           0        1.955050   -0.324696    0.910904
      7          6           0        0.476872   -0.271872    1.201360
      8          6           0       -0.652756    1.318076   -0.457692
      9          8           0       -0.417788    2.276390    0.229504
     10          1           0       -2.801801    0.119202    0.344673
     11          1           0       -3.113443   -1.594120   -0.025705
     12          1           0       -2.131976   -1.153793    1.393399
     13          1           0        0.771368   -1.382798   -1.685466
     14          1           0        0.987286    0.323369   -2.048493
     15          1           0        3.206562   -0.453990   -0.832329
     16          1           0        2.697480   -0.323147    1.701071
     17          1           0        0.131706   -1.197601    1.678458
     18          1           0        0.208970    0.561942    1.858218
     19          1           0       -1.251740    1.397223   -1.394781
 ---------------------------------------------------------------------

 SCF Done:  E(RB3LYP) =  -423.190621831     A.U. after    1 cycles

 The electronic state is 1-A.
 Alpha  occ. eigenvalues --  -19.15325 -19.14713 -10.27017 -10.24775 -10.23232
 Alpha  occ. eigenvalues --  -10.19398 -10.18599 -10.18495 -10.18395  -1.05690
 Alpha  occ. eigenvalues --   -1.04014  -0.84626  -0.74157  -0.71614  -0.67560
 Alpha  occ. eigenvalues --   -0.63154  -0.55300  -0.53918  -0.51537  -0.50000
 Alpha  occ. eigenvalues --   -0.45956  -0.45135  -0.44339  -0.41288  -0.40724
 Alpha  occ. eigenvalues --   -0.39118  -0.38499  -0.38175  -0.35661  -0.35154
 Alpha  occ. eigenvalues --   -0.32234  -0.28295  -0.24882  -0.24232
 Alpha virt. eigenvalues --   -0.02866   0.02156   0.09605   0.11404   0.12065
 Alpha virt. eigenvalues --    0.12947   0.14140   0.14747   0.15295   0.16274
 Alpha virt. eigenvalues --    0.16898   0.17857   0.18670   0.19722   0.21129

 Mulliken charges:
               1
     1  C   -0.257423
     2  O   -0.287267
     3  C    0.327708
     4  C   -0.337458
     5  C   -0.057207
     6  C   -0.053882
     7  C   -0.326299
     8  C    0.105665
     9  O   -0.243280
    10  H    0.117279
    11  H    0.133733
    12  H    0.116651
    13  H    0.129347
    14  H    0.108602
    15  H    0.097217
    16  H    0.097085
    17  H    0.113227
    18  H    0.127536
    19  H    0.088763
 Sum of Mulliken charges =   0.00000

 Dipole moment (field-independent basis, Debye):
    X=             -0.2690    Y=             -1.5772    Z=             -0.1300  Tot=              1.6052
 Quadrupole moment (field-independent basis, Debye-Ang):
   XX=            -48.2413   YY=            -60.8867   ZZ=            -50.8977
   XY=              0.3241   XZ=             -1.2535   YZ=             -2.9230

  Exact polarizability:  84.194  -0.026  65.924  -0.500   1.058  79.519
 Approx polarizability: 108.173   1.394 102.991  -2.593   8.811 131.261

                      1                      2                      3
                      A                      A                      A
 Frequencies --     52.1316                88.7438               135.4660
 Red. masses --      2.9785                 4.8924                 1.6215
 Frc consts  --      0.0048                 0.0227                 0.0175
 IR Inten    --      0.0205                 4.5816                 2.0952

                      4                      5                      6
                      A                      A                      A
 Frequencies --    194.0669               217.7700               279.7751
 Red. masses --      1.5281                 2.7322                 3.5845
 Frc consts  --      0.0339                 0.0763                 0.1653
 IR Inten    --      0.6751                 2.9068                10.4467

                      7                      8                      9
                      A                      A                      A
 Frequencies --    325.2814               382.5526               399.7921
 Red. masses --      2.2696                 1.9712                 3.4125
 Frc consts  --      0.1415                 0.1700                 0.3214
 IR Inten    --      3.5908                 0.2656                 4.1796

                     10                     11                     12
                      A                      A                      A
 Frequencies --    447.0782               565.4923               604.7497
 Red. masses --      3.6003                 4.0460                 3.1091
 Frc consts  --      0.4240                 0.7623                 0.6699
 IR Inten    --      3.8308                 4.4246                 2.0336

                     13                     14                     15
                      A                      A                      A
 Frequencies --    706.7266               770.2470               799.6530
 Red. masses --      1.3415                 4.0640                 4.4159
 Frc consts  --      0.3948                 1.4206                 1.6637
 IR Inten    --     45.5645                 1.4854                 1.4947

                     16                     17                     18
                      A                      A                      A
 Frequencies --    884.4057               933.1587               962.2469
 Red. masses --      2.1544                 1.8834                 1.7201
 Frc consts  --      0.9928                 0.9663                 0.9384
 IR Inten    --     11.0443                 1.7625                 4.6339

                     19                     20                     21
                      A                      A                      A
 Frequencies --    978.4752               985.1766               991.0746
 Red. masses --      1.4413                 1.9753                 2.5654
 Frc consts  --      0.8130                 1.1296                 1.4846
 IR Inten    --      0.5633                11.2784                 0.6528

                     22                     23                     24
                      A                      A                      A
 Frequencies --   1068.0219              1086.6409              1131.1456
 Red. masses --      2.7984                 2.1032                 1.3213
 Frc consts  --      1.8807                 1.4632                 0.9961
 IR Inten    --     13.3415                14.1024                25.3319

                     25                     26                     27
                      A                      A                      A
 Frequencies --   1145.6966              1152.5713              1180.6660
 Red. masses --      2.6532                 2.4743                 1.3213
 Frc consts  --      2.0519                 1.9366                 1.0852
 IR Inten    --     20.0666                80.6341                 3.6130

                     28                     29                     30
                      A                      A                      A
 Frequencies --   1183.9440              1230.9791              1272.3388
 Red. masses --      1.3032                 1.6846                 1.6649
 Frc consts  --      1.0763                 1.5040                 1.5880
 IR Inten    --      1.8261                 3.8193                29.8275

                     31                     32                     33
                      A                      A                      A
 Frequencies --   1300.6269              1340.5568              1366.9724
 Red. masses --      1.4424                 1.7292                 1.6678
 Frc consts  --      1.4376                 1.8310                 1.8362
 IR Inten    --      6.2655                 4.5360                 2.8843

                     34                     35                     36
                      A                      A                      A
 Frequencies --   1401.2427              1461.7196              1478.7601
 Red. masses --      1.2567                 1.0911                 1.0965
 Frc consts  --      1.4538                 1.3736                 1.4128
 IR Inten    --     10.7496                 5.1396                 1.0142

                     37                     38                     39
                      A                      A                      A
 Frequencies --   1483.6049              1490.4754              1509.6291
 Red. masses --      1.1249                 1.0507                 1.0597
 Frc consts  --      1.4588                 1.3752                 1.4230
 IR Inten    --      1.1108                 4.4037                 7.7526

                     40                     41                     42
                      A                      A                      A
 Frequencies --   1696.7530              1834.0116              2867.0874
 Red. masses --      6.1108                10.9441                 1.0833
 Frc consts  --     10.3653                21.6887                 5.2468
 IR Inten    --      3.3678               125.2112                90.7400

                     43                     44                     45
                      A                      A                      A
 Frequencies --   2992.7354              3015.8305              3029.6223
 Red. masses --      1.0375                 1.0618                 1.0640
 Frc consts  --      5.4750                 5.6897                 5.7541
 IR Inten    --     39.7773                30.7183                18.0816

                     46                     47                     48
                      A                      A                      A
 Frequencies --   3047.9694              3050.6468              3078.4689
 Red. masses --      1.0996                 1.0992                 1.0981
 Frc consts  --      6.0186                 6.0271                 6.1314
 IR Inten    --     48.4840                11.5628                 5.9589

                     49                     50                     51
                      A                      A                      A
 Frequencies --   3122.3050              3186.5684              3211.4490
 Red. masses --      1.0981                 1.0844                 1.1042
 Frc consts  --      6.3074                 6.4879                 6.7095
 IR Inten    --     24.7011                 4.9392                23.4899

 - Thermochemistry -
 -------------------
 Temperature   298.150 Kelvin.  Pressure   1.00000 Atm.
 Atom     1 has atomic number  6 and mass  12.00000

 Molecular mass:   126.06808 amu.
 Principal axes and moments of inertia in atomic units:
                           1         2         3
     Eigenvalues --   795.509531212.468181455.76997
           X            0.99971   0.01814  -0.01615
           Y           -0.01884   0.99886  -0.04376
           Z            0.01533   0.04405   0.99891
 This molecule is an asymmetric top.
 Rotational symmetry number  1.
 Warning -- assumption of classical behavior for rotation
           may cause significant error
 Rotational temperatures (Kelvin)      0.10888     0.07144     0.05950
 Rotational constants (GHZ):           2.26866     1.48849     1.23972
 Zero-point vibrational energy     413448.0 (Joules/Mol)
                                   98.81644 (Kcal/Mol)
 Warning -- explicit consideration of  12 degrees of freedom as
           vibrations may cause significant error
 Vibrational temperatures:     75.01   127.68   194.91   279.22   313.32
          (Kelvin)            402.53   468.01   550.41   575.21   643.25
                              813.62   870.10  1016.82  1108.21  1150.52
                             1272.46  1342.61  1384.46  1407.81  1417.45
                             1425.93  1536.64  1563.43  1627.46  1648.40
                             1658.29  1698.71  1703.43  1771.10  1830.61
                             1871.31  1928.76  1966.77  2016.07  2103.09
                             2127.60  2134.57  2144.46  2172.02  2441.25
                             2638.73  4125.09  4305.87  4339.10  4358.95
                             4385.34  4389.19  4429.22  4492.29  4584.76
                             4620.55

 Zero-point correction=                           0.157474 (Hartree/Particle)
 Thermal correction to Energy=                    0.166529
 Thermal correction to Enthalpy=                  0.167473
 Thermal correction to Gibbs Free Energy=         0.123195
 Sum of electronic and zero-point Energies=           -423.033148
 Sum of electronic and thermal Energies=              -423.024093
 Sum of electronic and thermal Enthalpies=            -423.023149
 Sum of electronic and thermal Free Energies=         -423.067427

                     E (Thermal)             CV                S
                      KCal/Mol        Cal/Mol-Kelvin    Cal/Mol-Kelvin
 Total                  104.499             33.108             93.191
 Electronic               0.000              0.000              0.000
 Translational            0.889              2.981             40.409
 Rotational               0.889              2.981             28.731
 Vibrational            102.721             27.146             24.052
 Vibration     1          0.596              1.977              4.735
 Vibration     2          0.602              1.957              3.688
 Vibration     3          0.613              1.918              2.867
 Vibration     4          0.635              1.848              2.189
 Vibration     5          0.646              1.814              1.978
 Vibration     6          0.680              1.711              1.535
 Vibration     7          0.709              1.625              1.283
 Vibration     8          0.752              1.507              1.029
 Vibration     9          0.766              1.471              0.963
 Vibration    10          0.806              1.367              0.805
 Vibration    11          0.921              1.106              0.513
 Vibration    12          0.963              1.022              0.442

 Optimization completed.
    -- Stationary point found.
 Normal termination of Gaussian 09 at Tue Jan 28 09:46:44 2020.
