 Gaussian 09, Revision D.01,
 Gaussian 09:  ES64L-G09RevD.01 24-Apr-2013

 -----------------------------
 # b3lyp 6-31G(2df,p) opt Freq
 -----------------------------

 -----
 titel
 -----
 Symbolic Z-matrix:
 Charge =  0 Multiplicity = 1

 SCF Done:  E(RB3LYP) =  -423.120855730     A.U. after   14 cycles
 Optimization completed.
    -- Stationary point found.
 Normal termination of Gaussian 09 at Mon Jan 27 16:24:59 2020.

 ----------------------------------------------------------------------
 #N Geom=AllCheck Guess=TCheck SCRF=Check GenChk RB3LYP/6-31G(2df,p) Fr
 eq
 ----------------------------------------------------------------------

 Structure from the checkpoint file:  "/scratch/puck/g09_131c74bc-9fb1-4312-83a3-9c0ea55954f4/Gau-76326.chk"
 -----
 titel
 -----
 Charge =  0 Multiplicity = 1

                         Standard orientation:
 ---------------------------------------------------------------------
 Center     Atomic      Atomic             Coordinates (Angstroms)
 Number     Number       Type             X           Y           Z
 ---------------------------------------------------------------------
      1          6           0       -1.316835    1.664214    0.356673
      2          6           0       -1.044553    0.225978   -0.017668
      3          6           0       -2.053203   -0.567494   -0.742569
      4          8           0       -1.831521   -0.764596    0.656968
      5          6           0        0.392698   -0.149897   -0.150476
      6          6           0        0.974525   -1.520153   -0.040110
      7          6           0        1.494079   -0.411495    0.858960
      8          6           0        2.309743    0.565159    0.022461
      9          8           0        1.232901    0.698232   -0.949015
     10          1           0       -0.866421    2.334100   -0.380546
     11          1           0       -2.391494    1.853370    0.407291
     12          1           0       -0.878495    1.892055    1.333953
     13          1           0       -3.006476   -0.108920   -1.001246
     14          1           0       -1.734236   -1.386585   -1.384421
     15          1           0        0.343053   -2.241746    0.466358
     16          1           0        1.589053   -1.907307   -0.848934
     17          1           0        1.462459   -0.463696    1.938432
     18          1           0        2.497208    1.524342    0.517575
     19          1           0        3.235586    0.197424   -0.435718
 ---------------------------------------------------------------------

 SCF Done:  E(RB3LYP) =  -423.120855730     A.U. after    1 cycles

 The electronic state is 1-A.
 Alpha  occ. eigenvalues --  -19.15407 -19.13990 -10.24791 -10.24356 -10.23646
 Alpha  occ. eigenvalues --  -10.23292 -10.19682 -10.18797 -10.18030  -1.07496
 Alpha  occ. eigenvalues --   -1.05080  -0.83322  -0.75642  -0.70196  -0.66177
 Alpha  occ. eigenvalues --   -0.62747  -0.58863  -0.52898  -0.52335  -0.48385
 Alpha  occ. eigenvalues --   -0.47569  -0.45599  -0.44369  -0.41922  -0.40400
 Alpha  occ. eigenvalues --   -0.39003  -0.37861  -0.37125  -0.33967  -0.32757
 Alpha  occ. eigenvalues --   -0.31075  -0.27779  -0.26404  -0.23530
 Alpha virt. eigenvalues --    0.06401   0.09763   0.10467   0.11658   0.12084
 Alpha virt. eigenvalues --    0.13086   0.13293   0.14480   0.14702   0.15828
 Alpha virt. eigenvalues --    0.17277   0.18176   0.18999   0.20309   0.20953

 Mulliken charges:
               1
     1  C   -0.476044
     2  C    0.295255
     3  C   -0.219223
     4  O   -0.274265
     5  C    0.450566
     6  C   -0.344565
     7  C   -0.193345
     8  C   -0.094267
     9  O   -0.334235
    10  H    0.141936
    11  H    0.123032
    12  H    0.124980
    13  H    0.115042
    14  H    0.116698
    15  H    0.134741
    16  H    0.110144
    17  H    0.107826
    18  H    0.110279
    19  H    0.105444
 Sum of Mulliken charges =   0.00000

 Dipole moment (field-independent basis, Debye):
    X=              0.4462    Y=              0.2728    Z=              0.1294  Tot=              0.5387
 Quadrupole moment (field-independent basis, Debye-Ang):
   XX=            -50.5045   YY=            -52.5857   ZZ=            -54.4100
   XY=             -1.6123   XZ=              4.7993   YZ=              3.0879

  Exact polarizability:  87.072   2.683  75.032   4.740   4.345  63.490
 Approx polarizability: 115.254   6.612 108.372   6.850   1.319 103.963

                      1                      2                      3
                      A                      A                      A
 Frequencies --     54.6805               153.9967               183.3902
 Red. masses --      3.5895                 2.7505                 1.2692
 Frc consts  --      0.0063                 0.0384                 0.0251
 IR Inten    --      1.8327                 0.7782                 2.7794

                      4                      5                      6
                      A                      A                      A
 Frequencies --    195.4297               309.4234               313.1812
 Red. masses --      2.4631                 2.8406                 2.9241
 Frc consts  --      0.0554                 0.1602                 0.1690
 IR Inten    --      5.3332                 1.8589                 1.8347

                      7                      8                      9
                      A                      A                      A
 Frequencies --    366.9249               431.5898               442.6791
 Red. masses --      2.7409                 2.0905                 4.2417
 Frc consts  --      0.2174                 0.2294                 0.4897
 IR Inten    --      5.2790                 1.3302                 2.6870

                     10                     11                     12
                      A                      A                      A
 Frequencies --    507.6933               588.2321               756.9498
 Red. masses --      3.2791                 3.3170                 3.0808
 Frc consts  --      0.4980                 0.6762                 1.0400
 IR Inten    --      3.3281                 1.4615                 1.5534

                     13                     14                     15
                      A                      A                      A
 Frequencies --    797.6609               842.1157               870.0466
 Red. masses --      2.8590                 2.5468                 2.3013
 Frc consts  --      1.0718                 1.0641                 1.0264
 IR Inten    --      6.6928                 8.8696                 5.5723

                     16                     17                     18
                      A                      A                      A
 Frequencies --    886.1523               926.4811               953.0954
 Red. masses --      1.9885                 1.7379                 1.9251
 Frc consts  --      0.9200                 0.8789                 1.0303
 IR Inten    --     38.4144                 5.7699                 6.6651

                     19                     20                     21
                      A                      A                      A
 Frequencies --    975.7071               987.6233              1000.4352
 Red. masses --      4.8867                 2.1715                 1.5659
 Frc consts  --      2.7410                 1.2479                 0.9234
 IR Inten    --     68.4207                 4.6045                 6.1972

                     22                     23                     24
                      A                      A                      A
 Frequencies --   1019.9915              1030.1729              1076.8921
 Red. masses --      1.8719                 1.7460                 1.5157
 Frc consts  --      1.1475                 1.0917                 1.0356
 IR Inten    --     13.7347                 1.2832                 3.4931

                     25                     26                     27
                      A                      A                      A
 Frequencies --   1104.0227              1129.0504              1135.5609
 Red. masses --      1.8162                 1.7305                 1.3869
 Frc consts  --      1.3043                 1.2997                 1.0537
 IR Inten    --     15.7282                 8.9147                 2.7083

                     28                     29                     30
                      A                      A                      A
 Frequencies --   1150.3240              1165.5250              1173.0606
 Red. masses --      2.1340                 1.2308                 1.5718
 Frc consts  --      1.6638                 0.9851                 1.2744
 IR Inten    --     37.5415                 5.0204                14.0628

                     31                     32                     33
                      A                      A                      A
 Frequencies --   1209.1318              1289.2957              1340.4459
 Red. masses --      2.0132                 2.2026                 1.4895
 Frc consts  --      1.7341                 2.1572                 1.5768
 IR Inten    --     11.4050                 9.3358                 6.2960

                     34                     35                     36
                      A                      A                      A
 Frequencies --   1369.4955              1411.7172              1424.2000
 Red. masses --      2.2944                 1.4430                 1.7393
 Frc consts  --      2.5354                 1.6944                 2.0786
 IR Inten    --      5.6514                10.1175                 3.1073

                     37                     38                     39
                      A                      A                      A
 Frequencies --   1478.9939              1483.2380              1504.3736
 Red. masses --      1.0625                 1.4424                 1.2585
 Frc consts  --      1.3693                 1.8697                 1.6781
 IR Inten    --      4.1890                 3.6654                 4.5369

                     40                     41                     42
                      A                      A                      A
 Frequencies --   1518.2437              1523.1386              3024.5932
 Red. masses --      1.1693                 1.3679                 1.0549
 Frc consts  --      1.5881                 1.8697                 5.6856
 IR Inten    --      0.0981                 2.0400                80.3514

                     43                     44                     45
                      A                      A                      A
 Frequencies --   3044.1356              3073.7902              3086.7643
 Red. masses --      1.0361                 1.1113                 1.0501
 Frc consts  --      5.6571                 6.1863                 5.8951
 IR Inten    --     13.6938                35.2557                23.7299

                     46                     47                     48
                      A                      A                      A
 Frequencies --   3113.0252              3115.5216              3134.3671
 Red. masses --      1.0989                 1.0563                 1.1028
 Frc consts  --      6.2743                 6.0411                 6.3831
 IR Inten    --     14.7786                11.6670                12.6874

                     49                     50                     51
                      A                      A                      A
 Frequencies --   3177.5373              3207.6740              3221.9976
 Red. masses --      1.1199                 1.0960                 1.1118
 Frc consts  --      6.6621                 6.6439                 6.8006
 IR Inten    --     21.0240                 5.7624                 4.7590

 - Thermochemistry -
 -------------------
 Temperature   298.150 Kelvin.  Pressure   1.00000 Atm.
 Atom     1 has atomic number  6 and mass  12.00000

 Molecular mass:   126.06808 amu.
 Principal axes and moments of inertia in atomic units:
                           1         2         3
     Eigenvalues --   582.568331272.282081509.03859
           X            0.99940  -0.02954   0.01806
           Y            0.02821   0.99712   0.07036
           Z           -0.02009  -0.06980   0.99736
 This molecule is an asymmetric top.
 Rotational symmetry number  1.
 Warning -- assumption of classical behavior for rotation
           may cause significant error
 Rotational temperatures (Kelvin)      0.14868     0.06808     0.05740
 Rotational constants (GHZ):           3.09790     1.41851     1.19595
 Zero-point vibrational energy     414385.0 (Joules/Mol)
                                   99.04040 (Kcal/Mol)
 Warning -- explicit consideration of  11 degrees of freedom as
           vibrations may cause significant error
 Vibrational temperatures:     78.67   221.57   263.86   281.18   445.19
          (Kelvin)            450.60   527.92   620.96   636.92   730.46
                              846.33  1089.08  1147.65  1211.62  1251.80
                             1274.97  1333.00  1371.29  1403.82  1420.97
                             1439.40  1467.54  1482.19  1549.41  1588.44
                             1624.45  1633.82  1655.06  1676.93  1687.77
                             1739.67  1855.01  1928.60  1970.40  2031.14
                             2049.10  2127.94  2134.05  2164.46  2184.41
                             2191.45  4351.71  4379.83  4422.49  4441.16
                             4478.94  4482.54  4509.65  4571.76  4615.12
                             4635.73

 Zero-point correction=                           0.157831 (Hartree/Particle)
 Thermal correction to Energy=                    0.166240
 Thermal correction to Enthalpy=                  0.167184
 Thermal correction to Gibbs Free Energy=         0.124681
 Sum of electronic and zero-point Energies=           -422.963025
 Sum of electronic and thermal Energies=              -422.954616
 Sum of electronic and thermal Enthalpies=            -422.953672
 Sum of electronic and thermal Free Energies=         -422.996175

                     E (Thermal)             CV                S
                      KCal/Mol        Cal/Mol-Kelvin    Cal/Mol-Kelvin
 Total                  104.317             32.199             89.455
 Electronic               0.000              0.000              0.000
 Translational            0.889              2.981             40.409
 Rotational               0.889              2.981             28.505
 Vibrational            102.540             26.237             20.542
 Vibration     1          0.596              1.976              4.641
 Vibration     2          0.620              1.898              2.622
 Vibration     3          0.631              1.862              2.294
 Vibration     4          0.636              1.846              2.176
 Vibration     5          0.699              1.656              1.365
 Vibration     6          0.701              1.649              1.345
 Vibration     7          0.740              1.540              1.093
 Vibration     8          0.793              1.401              0.853
 Vibration     9          0.802              1.377              0.818
 Vibration    10          0.863              1.233              0.639
 Vibration    11          0.945              1.057              0.470

 Optimization completed.
    -- Stationary point found.
 Normal termination of Gaussian 09 at Mon Jan 27 17:15:36 2020.
