 Gaussian 09, Revision D.01,
 Gaussian 09:  ES64L-G09RevD.01 24-Apr-2013

 -----------------------------
 # b3lyp 6-31G(2df,p) opt Freq
 -----------------------------

 -----
 titel
 -----
 Symbolic Z-matrix:
 Charge =  0 Multiplicity = 1

 SCF Done:  E(RB3LYP) =  -423.106648533     A.U. after   13 cycles
 Optimization completed.
    -- Stationary point found.
 Normal termination of Gaussian 09 at Mon Jan 27 16:21:04 2020.

 ----------------------------------------------------------------------
 #N Geom=AllCheck Guess=TCheck SCRF=Check GenChk RB3LYP/6-31G(2df,p) Fr
 eq
 ----------------------------------------------------------------------

 Structure from the checkpoint file:  "/scratch/puck/g09_96042e90-4589-4d03-a288-963a664a8ff9/Gau-83636.chk"
 -----
 titel
 -----
 Charge =  0 Multiplicity = 1

                         Standard orientation:
 ---------------------------------------------------------------------
 Center     Atomic      Atomic             Coordinates (Angstroms)
 Number     Number       Type             X           Y           Z
 ---------------------------------------------------------------------
      1          6           0        0.461496    2.320453    0.020808
      2          6           0        0.199463    0.822132   -0.052005
      3          6           0       -1.265933    0.521642   -0.261932
      4          6           0       -2.075593   -0.339728    0.616182
      5          8           0       -1.700106   -0.764732   -0.697404
      6          6           0        1.353937    0.051893   -0.687924
      7          6           0        1.140597   -1.459282   -0.603917
      8          8           0        0.831487   -1.375173    0.818932
      9          6           0        1.130779    0.019278    0.811162
     10          1           0       -0.146463    2.787858    0.803272
     11          1           0        1.511985    2.528667    0.245087
     12          1           0        0.220800    2.809635   -0.929728
     13          1           0       -1.789356    1.335027   -0.770488
     14          1           0       -1.583891   -0.878477    1.421283
     15          1           0       -3.135719   -0.128942    0.750657
     16          1           0        2.116136    0.546756   -1.276439
     17          1           0        0.327881   -1.903867   -1.177396
     18          1           0        2.073483   -2.016583   -0.746507
     19          1           0        1.685618    0.420837    1.653795
 ---------------------------------------------------------------------

 SCF Done:  E(RB3LYP) =  -423.106648533     A.U. after    1 cycles

 The electronic state is 1-A.
 Alpha  occ. eigenvalues --  -19.14719 -19.13726 -10.23854 -10.23759 -10.22802
 Alpha  occ. eigenvalues --  -10.22561 -10.20682 -10.19651 -10.18910  -1.06838
 Alpha  occ. eigenvalues --   -1.04741  -0.84907  -0.72897  -0.68853  -0.67182
 Alpha  occ. eigenvalues --   -0.63904  -0.56119  -0.55069  -0.50808  -0.49864
 Alpha  occ. eigenvalues --   -0.48768  -0.45219  -0.42452  -0.42002  -0.40567
 Alpha  occ. eigenvalues --   -0.38631  -0.38352  -0.36085  -0.34260  -0.32414
 Alpha  occ. eigenvalues --   -0.31000  -0.27276  -0.25606  -0.22891
 Alpha virt. eigenvalues --    0.07543   0.09095   0.09464   0.10577   0.12116
 Alpha virt. eigenvalues --    0.12503   0.14387   0.14923   0.15973   0.16227
 Alpha virt. eigenvalues --    0.17033   0.17732   0.19601   0.20773   0.21948

 Mulliken charges:
               1
     1  C   -0.472283
     2  C    0.293391
     3  C    0.009879
     4  C   -0.187968
     5  O   -0.235586
     6  C   -0.184868
     7  C   -0.099395
     8  O   -0.291640
     9  C    0.030847
    10  H    0.124952
    11  H    0.121258
    12  H    0.125563
    13  H    0.084721
    14  H    0.134961
    15  H    0.109120
    16  H    0.095873
    17  H    0.136714
    18  H    0.104042
    19  H    0.100417
 Sum of Mulliken charges =   0.00000

 Dipole moment (field-independent basis, Debye):
    X=              0.7584    Y=              2.2001    Z=              0.0902  Tot=              2.3289
 Quadrupole moment (field-independent basis, Debye-Ang):
   XX=            -50.5981   YY=            -53.7070   ZZ=            -53.3667
   XY=             -1.0692   XZ=             -3.3371   YZ=              1.1854

  Exact polarizability:  79.171  -1.636  79.026  -3.954   0.181  65.826
 Approx polarizability: 106.731  -1.199 112.383  -4.966  -0.497 109.132

                      1                      2                      3
                      A                      A                      A
 Frequencies --     58.8150               187.0773               214.5589
 Red. masses --      3.3877                 4.7034                 1.5075
 Frc consts  --      0.0069                 0.0970                 0.0409
 IR Inten    --      2.7611                 2.1397                 1.0193

                      4                      5                      6
                      A                      A                      A
 Frequencies --    239.2745               267.2619               297.0123
 Red. masses --      1.8598                 2.7948                 2.4598
 Frc consts  --      0.0627                 0.1176                 0.1278
 IR Inten    --      4.4804                 2.1712                 0.1396

                      7                      8                      9
                      A                      A                      A
 Frequencies --    351.2808               365.9655               531.5638
 Red. masses --      3.2108                 3.7941                 2.8892
 Frc consts  --      0.2334                 0.2994                 0.4810
 IR Inten    --      0.4325                 8.2452                11.4567

                     10                     11                     12
                      A                      A                      A
 Frequencies --    554.9888               675.5898               775.8315
 Red. masses --      4.1314                 2.6316                 3.5143
 Frc consts  --      0.7497                 0.7077                 1.2463
 IR Inten    --      4.2215                 3.4412                 8.7051

                     13                     14                     15
                      A                      A                      A
 Frequencies --    810.9009               860.0608               874.9599
 Red. masses --      1.6140                 2.9866                 3.7318
 Frc consts  --      0.6253                 1.3016                 1.6833
 IR Inten    --      3.3538                 1.1567                15.2521

                     16                     17                     18
                      A                      A                      A
 Frequencies --    900.8755               947.8515               956.9429
 Red. masses --      2.3573                 3.9875                 2.4772
 Frc consts  --      1.1272                 2.1107                 1.3365
 IR Inten    --      5.8448                32.8707                31.9788

                     19                     20                     21
                      A                      A                      A
 Frequencies --    987.0579              1013.5589              1025.6217
 Red. masses --      1.3439                 2.2762                 1.4769
 Frc consts  --      0.7715                 1.3777                 0.9153
 IR Inten    --      2.3969                38.7029                 4.7652

                     22                     23                     24
                      A                      A                      A
 Frequencies --   1048.3898              1074.1019              1092.4186
 Red. masses --      2.0981                 1.8506                 1.9895
 Frc consts  --      1.3587                 1.2580                 1.3989
 IR Inten    --     23.9559                 1.3943                 3.6862

                     25                     26                     27
                      A                      A                      A
 Frequencies --   1099.7712              1129.9175              1150.5583
 Red. masses --      1.7093                 2.0978                 1.8985
 Frc consts  --      1.2181                 1.5780                 1.4807
 IR Inten    --      4.4584                 5.9924                 3.7680

                     28                     29                     30
                      A                      A                      A
 Frequencies --   1167.7834              1177.8947              1179.9474
 Red. masses --      1.2670                 1.3608                 1.5644
 Frc consts  --      1.0180                 1.1124                 1.2833
 IR Inten    --      0.6338                 0.8378                 0.4282

                     31                     32                     33
                      A                      A                      A
 Frequencies --   1252.5265              1275.9492              1308.2369
 Red. masses --      1.3223                 2.0221                 1.6272
 Frc consts  --      1.2223                 1.9397                 1.6409
 IR Inten    --      3.2158                 3.4545                 5.2529

                     34                     35                     36
                      A                      A                      A
 Frequencies --   1343.0318              1409.6364              1421.8975
 Red. masses --      1.4990                 1.5518                 2.1873
 Frc consts  --      1.5931                 1.8168                 2.6055
 IR Inten    --      3.8375                 2.9333                 3.9735

                     37                     38                     39
                      A                      A                      A
 Frequencies --   1442.6672              1493.0452              1500.2114
 Red. masses --      1.5222                 1.0467                 1.1248
 Frc consts  --      1.8666                 1.3748                 1.4915
 IR Inten    --     12.5617                 3.5654                 1.8469

                     40                     41                     42
                      A                      A                      A
 Frequencies --   1505.4972              1516.9305              3027.2152
 Red. masses --      1.1169                 1.3327                 1.0356
 Frc consts  --      1.4915                 1.8068                 5.5913
 IR Inten    --      4.8525                 5.3503                26.2221

                     43                     44                     45
                      A                      A                      A
 Frequencies --   3038.4012              3071.1667              3089.8474
 Red. masses --      1.0662                 1.0844                 1.1015
 Frc consts  --      5.7993                 6.0261                 6.1960
 IR Inten    --     70.2041                35.6256                20.5432

                     46                     47                     48
                      A                      A                      A
 Frequencies --   3093.4430              3105.0434              3140.8039
 Red. masses --      1.0545                 1.1007                 1.0995
 Frc consts  --      5.9454                 6.2524                 6.3905
 IR Inten    --     34.8137                22.4301                15.9847

                     49                     50                     51
                      A                      A                      A
 Frequencies --   3154.8254              3190.3143              3196.7066
 Red. masses --      1.0909                 1.0953                 1.1172
 Frc consts  --      6.3972                 6.5681                 6.7265
 IR Inten    --     22.7522                13.4788                12.8148

 - Thermochemistry -
 -------------------
 Temperature   298.150 Kelvin.  Pressure   1.00000 Atm.
 Atom     1 has atomic number  6 and mass  12.00000

 Molecular mass:   126.06808 amu.
 Principal axes and moments of inertia in atomic units:
                           1         2         3
     Eigenvalues --   815.06243 953.666631391.32505
           X            0.99940   0.01595  -0.03081
           Y           -0.01556   0.99980   0.01292
           Z            0.03101  -0.01243   0.99944
 This molecule is an asymmetric top.
 Rotational symmetry number  1.
 Warning -- assumption of classical behavior for rotation
           may cause significant error
 Rotational temperatures (Kelvin)      0.10627     0.09082     0.06225
 Rotational constants (GHZ):           2.21424     1.89242     1.29714
 Zero-point vibrational energy     416271.9 (Joules/Mol)
                                   99.49138 (Kcal/Mol)
 Warning -- explicit consideration of  10 degrees of freedom as
           vibrations may cause significant error
 Vibrational temperatures:     84.62   269.16   308.70   344.26   384.53
          (Kelvin)            427.33   505.41   526.54   764.80   798.50
                              972.02  1116.25  1166.70  1237.43  1258.87
                             1296.16  1363.75  1376.83  1420.15  1458.28
                             1475.64  1508.40  1545.39  1571.74  1582.32
                             1625.70  1655.39  1680.18  1694.73  1697.68
                             1802.10  1835.80  1882.26  1932.32  2028.15
                             2045.79  2075.67  2148.16  2158.47  2166.07
                             2182.52  4355.48  4371.58  4418.72  4445.60
                             4450.77  4467.46  4518.91  4539.08  4590.15
                             4599.34

 Zero-point correction=                           0.158550 (Hartree/Particle)
 Thermal correction to Energy=                    0.166747
 Thermal correction to Enthalpy=                  0.167691
 Thermal correction to Gibbs Free Energy=         0.125732
 Sum of electronic and zero-point Energies=           -422.948099
 Sum of electronic and thermal Energies=              -422.939902
 Sum of electronic and thermal Enthalpies=            -422.938958
 Sum of electronic and thermal Free Energies=         -422.980917

                     E (Thermal)             CV                S
                      KCal/Mol        Cal/Mol-Kelvin    Cal/Mol-Kelvin
 Total                  104.635             31.541             88.310
 Electronic               0.000              0.000              0.000
 Translational            0.889              2.981             40.409
 Rotational               0.889              2.981             28.471
 Vibrational            102.858             25.579             19.430
 Vibration     1          0.596              1.974              4.497
 Vibration     2          0.632              1.858              2.257
 Vibration     3          0.644              1.819              2.005
 Vibration     4          0.657              1.780              1.808
 Vibration     5          0.672              1.733              1.614
 Vibration     6          0.691              1.679              1.434
 Vibration     7          0.728              1.573              1.160
 Vibration     8          0.739              1.542              1.097
 Vibration     9          0.887              1.180              0.584
 Vibration    10          0.910              1.129              0.534

 Normal termination of Gaussian 09 at Mon Jan 27 17:05:49 2020.
