 Gaussian 09, Revision D.01,
 Gaussian 09:  ES64L-G09RevD.01 24-Apr-2013

 -----------------------------
 # b3lyp 6-31G(2df,p) opt Freq
 -----------------------------

 -----
 titel
 -----
 Symbolic Z-matrix:
 Charge =  0 Multiplicity = 1

 SCF Done:  E(RB3LYP) =  -423.167209232     A.U. after   14 cycles
 Optimization completed.
    -- Stationary point found.
 Normal termination of Gaussian 09 at Mon Jan 27 22:02:17 2020.

 ----------------------------------------------------------------------
 #N Geom=AllCheck Guess=TCheck SCRF=Check GenChk RB3LYP/6-31G(2df,p) Fr
 eq
 ----------------------------------------------------------------------

 Structure from the checkpoint file:  "/scratch/puck/g09_9be4b17b-239d-460a-a130-68ba1fb1c1ca/Gau-62657.chk"
 -----
 titel
 -----
 Charge =  0 Multiplicity = 1

                         Standard orientation:
 ---------------------------------------------------------------------
 Center     Atomic      Atomic             Coordinates (Angstroms)
 Number     Number       Type             X           Y           Z
 ---------------------------------------------------------------------
      1          6           0       -3.152510   -0.865259    0.203192
      2          6           0       -1.805771   -0.258184   -0.018486
      3          6           0       -0.664466   -0.844826   -0.369799
      4          6           0        0.440409    0.170310   -0.476523
      5          8           0       -0.171780    1.413582   -0.121316
      6          6           0       -1.560921    1.222795    0.127644
      7          6           0        1.607278   -0.095424    0.456095
      8          6           0        2.978450    0.272410    0.092333
      9          8           0        2.535886   -1.085659    0.010808
     10          1           0       -3.510998   -0.671738    1.221972
     11          1           0       -3.897972   -0.434239   -0.476939
     12          1           0       -3.135763   -1.946656    0.047945
     13          1           0       -0.505708   -1.898729   -0.560080
     14          1           0        0.840592    0.229344   -1.502616
     15          1           0       -1.813303    1.592966    1.133944
     16          1           0       -2.158608    1.810067   -0.589200
     17          1           0        1.341402   -0.155701    1.512305
     18          1           0        3.164683    0.760755   -0.863339
     19          1           0        3.708013    0.479617    0.873326
 ---------------------------------------------------------------------

 SCF Done:  E(RB3LYP) =  -423.167209232     A.U. after    1 cycles

 The electronic state is 1-A.
 Alpha  occ. eigenvalues --  -19.14964 -19.13714 -10.23570 -10.23287 -10.23099
 Alpha  occ. eigenvalues --  -10.23088 -10.19560 -10.19202 -10.18025  -1.06944
 Alpha  occ. eigenvalues --   -1.03445  -0.80751  -0.75983  -0.70002  -0.66623
 Alpha  occ. eigenvalues --   -0.63683  -0.57954  -0.54802  -0.50737  -0.48794
 Alpha  occ. eigenvalues --   -0.47810  -0.45198  -0.42866  -0.42563  -0.41065
 Alpha  occ. eigenvalues --   -0.38963  -0.38095  -0.37626  -0.35776  -0.32129
 Alpha  occ. eigenvalues --   -0.30129  -0.27404  -0.26686  -0.23270
 Alpha virt. eigenvalues --    0.01645   0.08850   0.10006   0.11468   0.11954
 Alpha virt. eigenvalues --    0.12611   0.13314   0.13991   0.15849   0.16781
 Alpha virt. eigenvalues --    0.17357   0.17821   0.18681   0.19694   0.22501

 Mulliken charges:
               1
     1  C   -0.493036
     2  C    0.296076
     3  C   -0.218235
     4  C    0.063763
     5  O   -0.280091
     6  C   -0.152000
     7  C    0.078346
     8  C   -0.175100
     9  O   -0.239007
    10  H    0.131265
    11  H    0.131410
    12  H    0.132092
    13  H    0.111930
    14  H    0.083170
    15  H    0.103536
    16  H    0.101911
    17  H    0.091702
    18  H    0.116418
    19  H    0.115851
 Sum of Mulliken charges =   0.00000

 Dipole moment (field-independent basis, Debye):
    X=             -1.6871    Y=              0.2445    Z=              0.3534  Tot=              1.7409
 Quadrupole moment (field-independent basis, Debye-Ang):
   XX=            -48.4294   YY=            -56.6302   ZZ=            -51.8702
   XY=              4.1312   XZ=             -0.0553   YZ=              0.2201

  Exact polarizability: 108.154  -1.868  69.120  -5.830   1.652  60.836
 Approx polarizability: 138.868 -10.305 107.836 -12.360   5.270  92.921

                      1                      2                      3
                      A                      A                      A
 Frequencies --     65.0813                80.4997               142.0556
 Red. masses --      4.0951                 3.0738                 2.6180
 Frc consts  --      0.0102                 0.0117                 0.0311
 IR Inten    --      2.6728                 2.2236                 1.0130

                      4                      5                      6
                      A                      A                      A
 Frequencies --    169.8715               224.6190               299.7274
 Red. masses --      1.0911                 3.6034                 2.6683
 Frc consts  --      0.0186                 0.1071                 0.1412
 IR Inten    --      0.1463                 7.2251                 0.2276

                      7                      8                      9
                      A                      A                      A
 Frequencies --    322.1850               362.5971               452.0820
 Red. masses --      3.2080                 3.6399                 2.9915
 Frc consts  --      0.1962                 0.2820                 0.3602
 IR Inten    --      4.1087                 5.3904                 0.4538

                     10                     11                     12
                      A                      A                      A
 Frequencies --    502.6322               611.8516               779.5687
 Red. masses --      3.0662                 4.2934                 3.2171
 Frc consts  --      0.4564                 0.9470                 1.1519
 IR Inten    --      1.0187                 1.9161                 6.4574

                     13                     14                     15
                      A                      A                      A
 Frequencies --    832.1399               864.9678               872.9565
 Red. masses --      2.0025                 2.7528                 2.1637
 Frc consts  --      0.8170                 1.2134                 0.9715
 IR Inten    --     11.8385                17.7256                21.2471

                     16                     17                     18
                      A                      A                      A
 Frequencies --    905.4317               925.7120               962.0849
 Red. masses --      2.9487                 3.3851                 3.2791
 Frc consts  --      1.4243                 1.7091                 1.7883
 IR Inten    --      4.7644                12.6989                21.5653

                     19                     20                     21
                      A                      A                      A
 Frequencies --    999.4958              1001.6067              1042.4087
 Red. masses --      1.8709                 1.3431                 1.4884
 Frc consts  --      1.1012                 0.7939                 0.9529
 IR Inten    --     23.8936                 9.4722                 1.5819

                     22                     23                     24
                      A                      A                      A
 Frequencies --   1091.0595              1094.1873              1105.3831
 Red. masses --      1.4401                 1.7140                 5.5019
 Frc consts  --      1.0100                 1.2090                 3.9608
 IR Inten    --     12.7467                 0.4543                89.8169

                     25                     26                     27
                      A                      A                      A
 Frequencies --   1134.8353              1155.1962              1171.8020
 Red. masses --      2.0558                 1.3971                 1.4223
 Frc consts  --      1.5599                 1.0985                 1.1507
 IR Inten    --      0.5030                 0.9895                 2.4487

                     28                     29                     30
                      A                      A                      A
 Frequencies --   1201.3576              1216.2245              1279.7713
 Red. masses --      1.1204                 2.3787                 1.4615
 Frc consts  --      0.9527                 2.0731                 1.4103
 IR Inten    --      0.8362                10.1404                 4.6823

                     31                     32                     33
                      A                      A                      A
 Frequencies --   1283.6159              1313.2399              1324.3533
 Red. masses --      1.3309                 1.3781                 1.9777
 Frc consts  --      1.2920                 1.4003                 2.0437
 IR Inten    --      8.6657                21.3446                10.8129

                     34                     35                     36
                      A                      A                      A
 Frequencies --   1386.5070              1415.3139              1446.3675
 Red. masses --      1.6588                 1.2769                 1.7895
 Frc consts  --      1.8788                 1.5071                 2.2056
 IR Inten    --      2.3067                 0.8925                 1.6081

                     37                     38                     39
                      A                      A                      A
 Frequencies --   1479.9763              1488.8952              1521.0732
 Red. masses --      1.0436                 1.0606                 1.0853
 Frc consts  --      1.3468                 1.3853                 1.4795
 IR Inten    --      7.3568                 6.2497                 1.7592

                     40                     41                     42
                      A                      A                      A
 Frequencies --   1526.7461              1732.5256              2959.5347
 Red. masses --      1.3587                 7.3210                 1.0778
 Frc consts  --      1.8660                12.9473                 5.5618
 IR Inten    --      2.0999                10.3580                83.9458

                     43                     44                     45
                      A                      A                      A
 Frequencies --   2966.3734              2987.0145              3021.4710
 Red. masses --      1.0657                 1.0996                 1.0385
 Frc consts  --      5.5252                 5.7803                 5.5861
 IR Inten    --     55.6725                45.6216                35.8700

                     46                     47                     48
                      A                      A                      A
 Frequencies --   3067.4514              3085.1006              3106.1292
 Red. masses --      1.0985                 1.0499                 1.0892
 Frc consts  --      6.0898                 5.8873                 6.1913
 IR Inten    --     17.6099                28.5857                20.0920

                     49                     50                     51
                      A                      A                      A
 Frequencies --   3119.1280              3173.7152              3218.0331
 Red. masses --      1.0988                 1.1196                 1.0955
 Frc consts  --      6.2985                 6.6442                 6.6844
 IR Inten    --     15.2616                26.0857                 3.6302

 - Thermochemistry -
 -------------------
 Temperature   298.150 Kelvin.  Pressure   1.00000 Atm.
 Atom     1 has atomic number  6 and mass  12.00000

 Molecular mass:   126.06808 amu.
 Principal axes and moments of inertia in atomic units:
                           1         2         3
     Eigenvalues --   431.422381878.437182183.56504
           X            0.99978   0.02079  -0.00369
           Y           -0.02078   0.99978   0.00283
           Z            0.00375  -0.00276   0.99999
 This molecule is an asymmetric top.
 Rotational symmetry number  1.
 Rotational temperatures (Kelvin)      0.20076     0.04611     0.03967
 Rotational constants (GHZ):           4.18323     0.96077     0.82651
 Zero-point vibrational energy     415654.2 (Joules/Mol)
                                   99.34374 (Kcal/Mol)
 Warning -- explicit consideration of  11 degrees of freedom as
           vibrations may cause significant error
 Vibrational temperatures:     93.64   115.82   204.39   244.41   323.18
          (Kelvin)            431.24   463.55   521.70   650.44   723.17
                              880.32  1121.62  1197.26  1244.49  1255.99
                             1302.71  1331.89  1384.22  1438.05  1441.09
                             1499.79  1569.79  1574.29  1590.40  1632.77
                             1662.07  1685.96  1728.48  1749.87  1841.30
                             1846.83  1889.46  1905.45  1994.87  2036.32
                             2081.00  2129.35  2142.19  2188.48  2196.64
                             2492.71  4258.10  4267.94  4297.64  4347.22
                             4413.37  4438.77  4469.02  4487.72  4566.26
                             4630.03

 Zero-point correction=                           0.158314 (Hartree/Particle)
 Thermal correction to Energy=                    0.167093
 Thermal correction to Enthalpy=                  0.168037
 Thermal correction to Gibbs Free Energy=         0.124149
 Sum of electronic and zero-point Energies=           -423.008895
 Sum of electronic and thermal Energies=              -423.000117
 Sum of electronic and thermal Enthalpies=            -422.999172
 Sum of electronic and thermal Free Energies=         -423.043060

                     E (Thermal)             CV                S
                      KCal/Mol        Cal/Mol-Kelvin    Cal/Mol-Kelvin
 Total                  104.852             31.971             92.369
 Electronic               0.000              0.000              0.000
 Translational            0.889              2.981             40.409
 Rotational               0.889              2.981             28.961
 Vibrational            103.075             26.009             23.000
 Vibration     1          0.597              1.971              4.297
 Vibration     2          0.600              1.962              3.879
 Vibration     3          0.616              1.911              2.776
 Vibration     4          0.625              1.880              2.437
 Vibration     5          0.649              1.804              1.922
 Vibration     6          0.692              1.674              1.418
 Vibration     7          0.707              1.631              1.299
 Vibration     8          0.736              1.549              1.111
 Vibration     9          0.811              1.356              0.790
 Vibration    10          0.858              1.244              0.652
 Vibration    11          0.971              1.007              0.430

 Normal termination of Gaussian 09 at Mon Jan 27 22:40:23 2020.
