 Gaussian 09, Revision D.01,
 Gaussian 09:  ES64L-G09RevD.01 24-Apr-2013

 -----------------------------
 # b3lyp 6-31G(2df,p) opt Freq
 -----------------------------

 -----
 titel
 -----
 Symbolic Z-matrix:
 Charge =  0 Multiplicity = 1

 SCF Done:  E(RB3LYP) =  -423.158473379     A.U. after   14 cycles
 SCF Done:  E(RB3LYP) =  -423.158473179     A.U. after    8 cycles
 SCF Done:  E(RB3LYP) =  -423.158472689     A.U. after    9 cycles
 SCF Done:  E(RB3LYP) =  -423.158473455     A.U. after    9 cycles
 SCF Done:  E(RB3LYP) =  -423.158473472     A.U. after    7 cycles
 Optimization completed.
    -- Stationary point found.
 Normal termination of Gaussian 09 at Tue Jan 28 08:37:28 2020.

 ----------------------------------------------------------------------
 #N Geom=AllCheck Guess=TCheck SCRF=Check GenChk RB3LYP/6-31G(2df,p) Fr
 eq
 ----------------------------------------------------------------------

 Structure from the checkpoint file:  "/scratch/puck/g09_e9367218-35ba-4632-8188-d4efab3b2e4f/Gau-106671.chk"
 -----
 titel
 -----
 Charge =  0 Multiplicity = 1

                         Standard orientation:
 ---------------------------------------------------------------------
 Center     Atomic      Atomic             Coordinates (Angstroms)
 Number     Number       Type             X           Y           Z
 ---------------------------------------------------------------------
      1          6           0        0.909315    2.634557   -0.264456
      2          6           0        1.548230    1.417802    0.406744
      3          6           0        1.150534    0.067724   -0.238117
      4          6           0        1.961793   -1.100876    0.370981
      5          8           0        1.659983   -2.357013   -0.195234
      6          6           0       -0.283039   -0.179683   -0.142486
      7          6           0       -1.474400   -0.355847   -0.040924
      8          6           0       -2.884905   -0.616617    0.076182
      9          8           0       -3.744775    0.235334    0.070744
     10          1           0        1.219833    3.557950    0.232858
     11          1           0        1.204756    2.706877   -1.317005
     12          1           0       -0.182136    2.578942   -0.225444
     13          1           0        2.641114    1.499045    0.363287
     14          1           0        1.277355    1.390334    1.468614
     15          1           0        1.403193    0.119561   -1.309604
     16          1           0        3.031903   -0.857785    0.283135
     17          1           0        1.728215   -1.186642    1.436837
     18          1           0        1.927989   -2.345544   -1.119765
     19          1           0       -3.139052   -1.691649    0.175453
 ---------------------------------------------------------------------

 SCF Done:  E(RB3LYP) =  -423.158473472     A.U. after    1 cycles

 The electronic state is 1-A.
 Alpha  occ. eigenvalues --  -19.14916 -19.13934 -10.28491 -10.24533 -10.22714
 Alpha  occ. eigenvalues --  -10.20749 -10.20250 -10.18864 -10.18278  -1.04487
 Alpha  occ. eigenvalues --   -1.03222  -0.83537  -0.76736  -0.73416  -0.66934
 Alpha  occ. eigenvalues --   -0.64145  -0.60909  -0.53592  -0.50773  -0.49313
 Alpha  occ. eigenvalues --   -0.46276  -0.44678  -0.44143  -0.42627  -0.40551
 Alpha  occ. eigenvalues --   -0.39771  -0.38411  -0.36196  -0.35211  -0.33742
 Alpha  occ. eigenvalues --   -0.29307  -0.28025  -0.27122  -0.26236
 Alpha virt. eigenvalues --   -0.05808   0.03077   0.06238   0.08614   0.11198
 Alpha virt. eigenvalues --    0.11701   0.12528   0.13533   0.14296   0.15929
 Alpha virt. eigenvalues --    0.16818   0.17650   0.18912   0.20304   0.22448

 Mulliken charges:
               1
     1  C   -0.390589
     2  C   -0.179031
     3  C   -0.203610
     4  C   -0.063332
     5  O   -0.408335
     6  C    0.184287
     7  C   -0.029496
     8  C    0.019438
     9  O   -0.232626
    10  H    0.119438
    11  H    0.115117
    12  H    0.144207
    13  H    0.101640
    14  H    0.114368
    15  H    0.105436
    16  H    0.094010
    17  H    0.124098
    18  H    0.285022
    19  H    0.099957
 Sum of Mulliken charges =   0.00000

 Dipole moment (field-independent basis, Debye):
    X=              4.0839    Y=             -0.0439    Z=             -0.8608  Tot=              4.1738
 Quadrupole moment (field-independent basis, Debye-Ang):
   XX=            -60.6603   YY=            -55.7400   ZZ=            -50.0872
   XY=              5.6288   XZ=             -2.3752   YZ=              2.5208

  Exact polarizability: 114.699   3.813  78.346  -1.935   0.281  58.541
 Approx polarizability: 177.684   0.310 103.989  -6.828   0.768  89.538

                      1                      2                      3
                      A                      A                      A
 Frequencies --     12.1674                57.1076                90.6170
 Red. masses --      3.4689                 5.2991                 2.3397
 Frc consts  --      0.0003                 0.0102                 0.0113
 IR Inten    --      8.3800                 1.4528                 2.2439

                      4                      5                      6
                      A                      A                      A
 Frequencies --    119.0348               129.2219               166.9019
 Red. masses --      2.1440                 2.6370                 4.7455
 Frc consts  --      0.0179                 0.0259                 0.0779
 IR Inten    --      2.1528                 8.7318                 0.9339

                      7                      8                      9
                      A                      A                      A
 Frequencies --    193.4328               232.3085               283.8883
 Red. masses --      3.4336                 1.3152                 1.5474
 Frc consts  --      0.0757                 0.0418                 0.0735
 IR Inten    --      1.1156                 5.0947                51.9641

                     10                     11                     12
                      A                      A                      A
 Frequencies --    322.0287               375.0860               398.0606
 Red. masses --      1.7431                 3.8443                 6.3754
 Frc consts  --      0.1065                 0.3187                 0.5952
 IR Inten    --     68.7140                 6.7100                 3.6689

                     13                     14                     15
                      A                      A                      A
 Frequencies --    491.9894               581.4411               601.2776
 Red. masses --      4.9753                 3.3085                 3.6293
 Frc consts  --      0.7095                 0.6590                 0.7731
 IR Inten    --      0.4655                12.1788                 0.3636

                     16                     17                     18
                      A                      A                      A
 Frequencies --    756.5088               814.5980               914.4176
 Red. masses --      2.7387                 1.4514                 1.7943
 Frc consts  --      0.9235                 0.5674                 0.8840
 IR Inten    --     40.5177                 6.8711                 7.1629

                     19                     20                     21
                      A                      A                      A
 Frequencies --    967.3702               992.0731              1023.0997
 Red. masses --      2.0760                 2.7555                 1.7691
 Frc consts  --      1.1446                 1.5978                 1.0911
 IR Inten    --     28.7602                26.0173                 0.5782

                     22                     23                     24
                      A                      A                      A
 Frequencies --   1040.0730              1091.2771              1103.7017
 Red. masses --      2.0447                 1.8289                 4.4748
 Frc consts  --      1.3032                 1.2832                 3.2116
 IR Inten    --     17.4231                63.6561                56.7316

                     25                     26                     27
                      A                      A                      A
 Frequencies --   1109.3538              1174.8870              1198.6835
 Red. masses --      2.0859                 1.9372                 1.5777
 Frc consts  --      1.5124                 1.5755                 1.3356
 IR Inten    --     12.4439                14.7818                16.2539

                     28                     29                     30
                      A                      A                      A
 Frequencies --   1269.4543              1299.1875              1361.2793
 Red. masses --      1.3151                 1.1151                 1.3894
 Frc consts  --      1.2487                 1.1089                 1.5170
 IR Inten    --      2.4835                 1.2981                 7.9294

                     31                     32                     33
                      A                      A                      A
 Frequencies --   1365.2322              1396.6041              1414.7431
 Red. masses --      1.4367                 1.2769                 1.2120
 Frc consts  --      1.5777                 1.4674                 1.4292
 IR Inten    --      8.9310                18.0589                26.0028

                     34                     35                     36
                      A                      A                      A
 Frequencies --   1418.3468              1422.3086              1485.5958
 Red. masses --      1.2476                 1.1982                 1.0704
 Frc consts  --      1.4788                 1.4282                 1.3919
 IR Inten    --     14.3156                23.3651                 0.5477

                     37                     38                     39
                      A                      A                      A
 Frequencies --   1497.6007              1503.2679              1508.3786
 Red. masses --      1.0419                 1.0767                 1.0667
 Frc consts  --      1.3768                 1.4336                 1.4299
 IR Inten    --      3.7148                 1.9178                 3.0706

                     40                     41                     42
                      A                      A                      A
 Frequencies --   1764.9059              2324.6681              2918.5022
 Red. masses --     10.5222                11.9466                 1.0816
 Frc consts  --     19.3107                38.0379                 5.4278
 IR Inten    --    249.0435               164.3330                97.8525

                     43                     44                     45
                      A                      A                      A
 Frequencies --   2978.1635              2988.1785              3030.7653
 Red. masses --      1.0798                 1.0689                 1.0596
 Frc consts  --      5.6430                 5.6232                 5.7344
 IR Inten    --     12.2804                56.4734                34.7360

                     46                     47                     48
                      A                      A                      A
 Frequencies --   3037.8255              3068.4177              3086.1305
 Red. masses --      1.0376                 1.1007                 1.0952
 Frc consts  --      5.6415                 6.1060                 6.1459
 IR Inten    --     23.0895                10.0810                24.6215

                     49                     50                     51
                      A                      A                      A
 Frequencies --   3105.8113              3121.0972              3813.8419
 Red. masses --      1.1005                 1.1019                 1.0662
 Frc consts  --      6.2546                 6.3240                 9.1372
 IR Inten    --     35.3902                23.6283                20.8341

 - Thermochemistry -
 -------------------
 Temperature   298.150 Kelvin.  Pressure   1.00000 Atm.
 Atom     1 has atomic number  6 and mass  12.00000

 Molecular mass:   126.06808 amu.
 Principal axes and moments of inertia in atomic units:
                           1         2         3
     Eigenvalues --   981.403591966.055812836.58790
           X            0.99940   0.03475   0.00066
           Y           -0.03474   0.99939  -0.00202
           Z           -0.00073   0.00200   1.00000
 This molecule is an asymmetric top.
 Rotational symmetry number  1.
 Warning -- assumption of classical behavior for rotation
           may cause significant error
 Rotational temperatures (Kelvin)      0.08826     0.04405     0.03053
 Rotational constants (GHZ):           1.83894     0.91795     0.63624
 Zero-point vibrational energy     409247.9 (Joules/Mol)
                                   97.81261 (Kcal/Mol)
 Warning -- explicit consideration of  15 degrees of freedom as
           vibrations may cause significant error
 Vibrational temperatures:     17.51    82.17   130.38   171.26   185.92
          (Kelvin)            240.13   278.31   334.24   408.45   463.33
                              539.66   572.72   707.86   836.56   865.10
                             1088.45  1172.02  1315.64  1391.83  1427.37
                             1472.01  1496.43  1570.10  1587.98  1596.11
                             1690.40  1724.64  1826.46  1869.24  1958.57
                             1964.26  2009.40  2035.50  2040.68  2046.38
                             2137.44  2154.71  2162.86  2170.22  2539.30
                             3344.67  4199.07  4284.91  4299.32  4360.59
                             4370.75  4414.76  4440.25  4468.56  4490.56
                             5487.26

 Zero-point correction=                           0.155874 (Hartree/Particle)
 Thermal correction to Energy=                    0.166875
 Thermal correction to Enthalpy=                  0.167820
 Thermal correction to Gibbs Free Energy=         0.117078
 Sum of electronic and zero-point Energies=           -423.002599
 Sum of electronic and thermal Energies=              -422.991598
 Sum of electronic and thermal Enthalpies=            -422.990654
 Sum of electronic and thermal Free Energies=         -423.041396

                     E (Thermal)             CV                S
                      KCal/Mol        Cal/Mol-Kelvin    Cal/Mol-Kelvin
 Total                  104.716             36.838            106.795
 Electronic               0.000              0.000              0.000
 Translational            0.889              2.981             40.409
 Rotational               0.889              2.981             30.083
 Vibrational            102.938             30.876             36.304
 Vibration     1          0.593              1.987              7.621
 Vibration     2          0.596              1.975              4.555
 Vibration     3          0.602              1.956              3.647
 Vibration     4          0.609              1.933              3.116
 Vibration     5          0.612              1.924              2.958
 Vibration     6          0.624              1.883              2.470
 Vibration     7          0.635              1.849              2.195
 Vibration     8          0.653              1.792              1.861
 Vibration     9          0.682              1.704              1.510
 Vibration    10          0.707              1.631              1.300
 Vibration    11          0.746              1.523              1.059
 Vibration    12          0.764              1.474              0.970
 Vibration    13          0.848              1.268              0.678
 Vibration    14          0.938              1.071              0.483
 Vibration    15          0.960              1.029              0.447

 Normal termination of Gaussian 09 at Tue Jan 28 09:13:52 2020.
