 Gaussian 09, Revision D.01,
 Gaussian 09:  ES64L-G09RevD.01 24-Apr-2013

 -----------------------------
 # b3lyp 6-31G(2df,p) opt Freq
 -----------------------------

 -----
 titel
 -----
 Symbolic Z-matrix:
 Charge =  0 Multiplicity = 1

 SCF Done:  E(RB3LYP) =  -423.147054499     A.U. after   13 cycles
 Optimization completed.
    -- Stationary point found.
 Normal termination of Gaussian 09 at Mon Jan 27 12:11:15 2020.

 ----------------------------------------------------------------------
 #N Geom=AllCheck Guess=TCheck SCRF=Check GenChk RB3LYP/6-31G(2df,p) Fr
 eq
 ----------------------------------------------------------------------

 Structure from the checkpoint file:  "/scratch/puck/g09_1320d104-9883-4aae-aeb7-0acfbea99ee7/Gau-153037.chk"
 -----
 titel
 -----
 Charge =  0 Multiplicity = 1

                         Standard orientation:
 ---------------------------------------------------------------------
 Center     Atomic      Atomic             Coordinates (Angstroms)
 Number     Number       Type             X           Y           Z
 ---------------------------------------------------------------------
      1          6           0       -2.763360   -0.669840    0.224113
      2          8           0       -2.618134    0.753037    0.228014
      3          6           0       -1.621223   -0.027666   -0.432467
      4          6           0       -0.251294   -0.002795    0.197749
      5          6           0        0.581828    1.262547   -0.132494
      6          6           0        1.995151    0.728250   -0.288017
      7          6           0        2.523425   -0.182704    0.809344
      8          6           0        1.841728   -0.759602   -0.404294
      9          8           0        0.487941   -1.121231   -0.305043
     10          1           0       -2.623452   -1.156577    1.188233
     11          1           0       -3.584806   -1.054092   -0.378187
     12          1           0       -1.622671    0.051332   -1.520750
     13          1           0       -0.374015   -0.096047    1.286060
     14          1           0        0.250349    1.703110   -1.079717
     15          1           0        0.469306    2.022719    0.644998
     16          1           0        2.698381    1.282619   -0.897899
     17          1           0        3.599882   -0.299913    0.874598
     18          1           0        2.013449   -0.215395    1.766635
     19          1           0        2.377593   -1.381346   -1.111347
 ---------------------------------------------------------------------

 SCF Done:  E(RB3LYP) =  -423.147054499     A.U. after    1 cycles

 The electronic state is 1-A.
 Alpha  occ. eigenvalues --  -19.15228 -19.14399 -10.23719 -10.23695 -10.23397
 Alpha  occ. eigenvalues --  -10.23347 -10.19271 -10.18966 -10.18550  -1.07276
 Alpha  occ. eigenvalues --   -1.04453  -0.84837  -0.77245  -0.68684  -0.65241
 Alpha  occ. eigenvalues --   -0.61238  -0.57850  -0.56687  -0.52375  -0.50624
 Alpha  occ. eigenvalues --   -0.47193  -0.45883  -0.44546  -0.41161  -0.40298
 Alpha  occ. eigenvalues --   -0.38914  -0.38364  -0.35621  -0.34213  -0.33005
 Alpha  occ. eigenvalues --   -0.29879  -0.28211  -0.27075  -0.23475
 Alpha virt. eigenvalues --    0.08698   0.09204   0.10078   0.11373   0.11650
 Alpha virt. eigenvalues --    0.12585   0.12911   0.14795   0.15747   0.16437
 Alpha virt. eigenvalues --    0.18692   0.18818   0.19152   0.20669   0.22077

 Mulliken charges:
               1
     1  C   -0.177317
     2  O   -0.239721
     3  C    0.066814
     4  C    0.104566
     5  C   -0.260706
     6  C   -0.074475
     7  C   -0.322375
     8  C    0.121130
     9  O   -0.274897
    10  H    0.117135
    11  H    0.117685
    12  H    0.095770
    13  H    0.077587
    14  H    0.107444
    15  H    0.116858
    16  H    0.091972
    17  H    0.113040
    18  H    0.118425
    19  H    0.101066
 Sum of Mulliken charges =   0.00000

 Dipole moment (field-independent basis, Debye):
    X=              1.2099    Y=             -0.2322    Z=             -0.2865  Tot=              1.2649
 Quadrupole moment (field-independent basis, Debye-Ang):
   XX=            -51.2226   YY=            -55.8013   ZZ=            -51.0910
   XY=              4.6063   XZ=             -0.0169   YZ=             -1.2267

  Exact polarizability:  92.204   2.502  66.295  -0.392  -2.098  66.173
 Approx polarizability: 113.410   1.489 105.261  -2.331  -0.839 102.115

                      1                      2                      3
                      A                      A                      A
 Frequencies --     67.5336                88.5475               171.6737
 Red. masses --      3.6831                 3.6842                 3.5584
 Frc consts  --      0.0099                 0.0170                 0.0618
 IR Inten    --      2.5244                 1.2865                 4.4984

                      4                      5                      6
                      A                      A                      A
 Frequencies --    298.8919               322.0305               350.8429
 Red. masses --      2.1963                 3.7667                 3.3388
 Frc consts  --      0.1156                 0.2301                 0.2421
 IR Inten    --      0.7077                 5.5226                 1.9042

                      7                      8                      9
                      A                      A                      A
 Frequencies --    455.9328               472.1454               660.0239
 Red. masses --      2.5690                 3.7140                 2.5404
 Frc consts  --      0.3146                 0.4878                 0.6520
 IR Inten    --      2.5981                 3.6229                 3.2235

                     10                     11                     12
                      A                      A                      A
 Frequencies --    692.3664               774.4283               808.2293
 Red. masses --      4.5397                 2.2974                 1.4497
 Frc consts  --      1.2822                 0.8118                 0.5580
 IR Inten    --      1.8594                14.9880                 8.1882

                     13                     14                     15
                      A                      A                      A
 Frequencies --    839.5865               872.0144               901.3229
 Red. masses --      2.1539                 6.1059                 2.3684
 Frc consts  --      0.8946                 2.7356                 1.1336
 IR Inten    --      9.2337                17.6720                 8.8730

                     16                     17                     18
                      A                      A                      A
 Frequencies --    920.0181               939.5928               963.4954
 Red. masses --      2.7433                 1.9993                 2.3900
 Frc consts  --      1.3681                 1.0399                 1.3072
 IR Inten    --     13.0471                15.4326                40.8160

                     19                     20                     21
                      A                      A                      A
 Frequencies --    994.1133              1013.2307              1044.3270
 Red. masses --      1.7239                 1.7695                 1.6286
 Frc consts  --      1.0038                 1.0703                 1.0465
 IR Inten    --      7.1350                 2.9935                17.4697

                     22                     23                     24
                      A                      A                      A
 Frequencies --   1075.8223              1083.6853              1103.7585
 Red. masses --      1.8608                 1.3840                 1.4591
 Frc consts  --      1.2689                 0.9576                 1.0473
 IR Inten    --     11.1688                 0.1570                 5.1118

                     25                     26                     27
                      A                      A                      A
 Frequencies --   1112.8641              1150.0081              1159.6733
 Red. masses --      1.5958                 1.5839                 2.0345
 Frc consts  --      1.1644                 1.2342                 1.6121
 IR Inten    --      0.5629                 8.7361                61.3222

                     28                     29                     30
                      A                      A                      A
 Frequencies --   1167.4193              1176.6344              1207.0034
 Red. masses --      1.8596                 1.5487                 1.7553
 Frc consts  --      1.4932                 1.2633                 1.5066
 IR Inten    --     39.7098                 3.2101                 7.8273

                     31                     32                     33
                      A                      A                      A
 Frequencies --   1215.3663              1283.9371              1292.9850
 Red. masses --      1.4417                 1.4886                 1.5076
 Frc consts  --      1.2547                 1.4458                 1.4850
 IR Inten    --      6.9411                 4.8968                 5.2932

                     34                     35                     36
                      A                      A                      A
 Frequencies --   1311.7376              1340.9872              1360.6189
 Red. masses --      1.2121                 1.7269                 1.3257
 Frc consts  --      1.2288                 1.8297                 1.4460
 IR Inten    --      2.8989                19.1658                 6.6895

                     37                     38                     39
                      A                      A                      A
 Frequencies --   1391.7989              1460.3679              1478.7252
 Red. masses --      1.6766                 1.7083                 1.2763
 Frc consts  --      1.9135                 2.1465                 1.6443
 IR Inten    --     14.8297                 2.2138                 9.7681

                     40                     41                     42
                      A                      A                      A
 Frequencies --   1497.3014              1530.2449              2997.9675
 Red. masses --      1.1170                 1.4095                 1.0837
 Frc consts  --      1.4754                 1.9446                 5.7389
 IR Inten    --      3.2486                 2.7391                26.9255

                     43                     44                     45
                      A                      A                      A
 Frequencies --   3043.1411              3086.6088              3096.2467
 Red. masses --      1.0633                 1.0501                 1.0998
 Frc consts  --      5.8018                 5.8943                 6.2121
 IR Inten    --     25.8322                27.5803                 9.9816

                     46                     47                     48
                      A                      A                      A
 Frequencies --   3103.9740              3130.0411              3175.0252
 Red. masses --      1.0896                 1.0543                 1.1196
 Frc consts  --      6.1854                 6.0856                 6.6500
 IR Inten    --     29.5502                10.9933                25.6093

                     49                     50                     51
                      A                      A                      A
 Frequencies --   3177.6858              3188.3929              3216.5474
 Red. masses --      1.0895                 1.0958                 1.1149
 Frc consts  --      6.4816                 6.5636                 6.7962
 IR Inten    --     11.4842                16.7742                14.0759

 - Thermochemistry -
 -------------------
 Temperature   298.150 Kelvin.  Pressure   1.00000 Atm.
 Atom     1 has atomic number  6 and mass  12.00000

 Molecular mass:   126.06808 amu.
 Principal axes and moments of inertia in atomic units:
                           1         2         3
     Eigenvalues --   393.856171747.090481928.74408
           X            0.99983   0.01802   0.00382
           Y           -0.01786   0.99913  -0.03772
           Z           -0.00450   0.03764   0.99928
 This molecule is an asymmetric top.
 Rotational symmetry number  1.
 Rotational temperatures (Kelvin)      0.21991     0.04958     0.04491
 Rotational constants (GHZ):           4.58223     1.03300     0.93571
 Zero-point vibrational energy     420289.5 (Joules/Mol)
                                  100.45160 (Kcal/Mol)
 Warning -- explicit consideration of   8 degrees of freedom as
           vibrations may cause significant error
 Vibrational temperatures:     97.17   127.40   247.00   430.04   463.33
          (Kelvin)            504.78   655.98   679.31   949.63   996.16
                             1114.23  1162.86  1207.98  1254.63  1296.80
                             1323.70  1351.86  1386.25  1430.31  1457.81
                             1502.55  1547.87  1559.18  1588.06  1601.16
                             1654.60  1668.51  1679.65  1692.91  1736.61
                             1748.64  1847.30  1860.31  1887.30  1929.38
                             1957.62  2002.49  2101.14  2127.55  2154.28
                             2201.68  4313.40  4378.40  4440.94  4454.80
                             4465.92  4503.43  4568.15  4571.98  4587.38
                             4627.89

 Zero-point correction=                           0.160080 (Hartree/Particle)
 Thermal correction to Energy=                    0.167878
 Thermal correction to Enthalpy=                  0.168822
 Thermal correction to Gibbs Free Energy=         0.127140
 Sum of electronic and zero-point Energies=           -422.986975
 Sum of electronic and thermal Energies=              -422.979176
 Sum of electronic and thermal Enthalpies=            -422.978232
 Sum of electronic and thermal Free Energies=         -423.019914

                     E (Thermal)             CV                S
                      KCal/Mol        Cal/Mol-Kelvin    Cal/Mol-Kelvin
 Total                  105.345             30.009             87.728
 Electronic               0.000              0.000              0.000
 Translational            0.889              2.981             40.409
 Rotational               0.889              2.981             28.675
 Vibrational            103.568             24.048             18.644
 Vibration     1          0.598              1.970              4.224
 Vibration     2          0.601              1.957              3.692
 Vibration     3          0.626              1.877              2.417
 Vibration     4          0.692              1.676              1.423
 Vibration     5          0.707              1.631              1.300
 Vibration     6          0.728              1.574              1.162
 Vibration     7          0.814              1.348              0.778
 Vibration     8          0.829              1.312              0.732

 Optimization completed.
    -- Stationary point found.
 Normal termination of Gaussian 09 at Mon Jan 27 12:51:01 2020.
