 Gaussian 09, Revision D.01,
 Gaussian 09:  ES64L-G09RevD.01 24-Apr-2013

 -----------------------------
 # b3lyp 6-31G(2df,p) opt Freq
 -----------------------------

 -----
 titel
 -----
 Symbolic Z-matrix:
 Charge =  0 Multiplicity = 1

 SCF Done:  E(RB3LYP) =  -423.202319291     A.U. after   14 cycles
 Optimization completed.
    -- Stationary point found.
 Normal termination of Gaussian 09 at Mon Jan 27 22:02:02 2020.

 ----------------------------------------------------------------------
 #N Geom=AllCheck Guess=TCheck SCRF=Check GenChk RB3LYP/6-31G(2df,p) Fr
 eq
 ----------------------------------------------------------------------

 Structure from the checkpoint file:  "/scratch/puck/g09_54bf1b7d-d34d-47c8-9d97-9ee5fffaaed8/Gau-62658.chk"
 -----
 titel
 -----
 Charge =  0 Multiplicity = 1

                         Standard orientation:
 ---------------------------------------------------------------------
 Center     Atomic      Atomic             Coordinates (Angstroms)
 Number     Number       Type             X           Y           Z
 ---------------------------------------------------------------------
      1          6           0        3.393335   -0.505883    0.280068
      2          6           0        1.965090   -0.172970   -0.003504
      3          6           0        0.967609   -0.977476   -0.361575
      4          6           0       -0.305210   -0.196891   -0.537414
      5          6           0       -1.453209   -0.650920    0.389142
      6          6           0       -2.682340    0.221087    0.244840
      7          8           0       -3.784640   -0.194543   -0.010138
      8          8           0        0.054479    1.155614   -0.235611
      9          6           0        1.440649    1.238486    0.078755
     10          1           0        4.067112    0.035105   -0.396042
     11          1           0        3.672818   -0.212678    1.299761
     12          1           0        3.586457   -1.575479    0.168496
     13          1           0        1.024370   -2.048226   -0.513878
     14          1           0       -0.664010   -0.243194   -1.579198
     15          1           0       -1.732701   -1.688129    0.180953
     16          1           0       -1.097268   -0.579180    1.425382
     17          1           0       -2.492969    1.305642    0.391142
     18          1           0        1.948923    1.908776   -0.633522
     19          1           0        1.573009    1.676206    1.081018
 ---------------------------------------------------------------------

 SCF Done:  E(RB3LYP) =  -423.202319291     A.U. after    1 cycles

 The electronic state is 1-A.
 Alpha  occ. eigenvalues --  -19.14337 -19.13275 -10.26380 -10.24732 -10.23712
 Alpha  occ. eigenvalues --  -10.20215 -10.19733 -10.19125 -10.18791  -1.04293
 Alpha  occ. eigenvalues --   -1.03802  -0.81429  -0.79034  -0.71634  -0.69447
 Alpha  occ. eigenvalues --   -0.60323  -0.57029  -0.54965  -0.50098  -0.49087
 Alpha  occ. eigenvalues --   -0.45899  -0.44375  -0.43610  -0.42308  -0.42056
 Alpha  occ. eigenvalues --   -0.40614  -0.39115  -0.38219  -0.35889  -0.35523
 Alpha  occ. eigenvalues --   -0.32589  -0.27698  -0.24943  -0.23449
 Alpha virt. eigenvalues --   -0.01672   0.01166   0.08821   0.10030   0.11892
 Alpha virt. eigenvalues --    0.13041   0.13741   0.14445   0.15371   0.16465
 Alpha virt. eigenvalues --    0.16864   0.17006   0.18729   0.20719   0.20902

 Mulliken charges:
               1
     1  C   -0.493271
     2  C    0.299055
     3  C   -0.213699
     4  C    0.075652
     5  C   -0.281606
     6  C    0.154291
     7  O   -0.243391
     8  O   -0.280745
     9  C   -0.153354
    10  H    0.133665
    11  H    0.133016
    12  H    0.132219
    13  H    0.103808
    14  H    0.094646
    15  H    0.114970
    16  H    0.118407
    17  H    0.095467
    18  H    0.105908
    19  H    0.104961
 Sum of Mulliken charges =   0.00000

 Dipole moment (field-independent basis, Debye):
    X=              4.2060    Y=             -0.6075    Z=              0.5973  Tot=              4.2914
 Quadrupole moment (field-independent basis, Debye-Ang):
   XX=            -63.2954   YY=            -52.3306   ZZ=            -52.1138
   XY=             -0.6389   XZ=             -0.5468   YZ=              0.9923

  Exact polarizability: 107.345   7.623  75.295   6.140   3.864  57.751
 Approx polarizability: 141.129  19.429 115.173  12.898   8.650  90.008

                      1                      2                      3
                      A                      A                      A
 Frequencies --     45.7940                68.5435                89.9166
 Red. masses --      4.9034                 3.6424                 3.5560
 Frc consts  --      0.0061                 0.0101                 0.0169
 IR Inten    --      2.8254                 2.7248                 6.3940

                      4                      5                      6
                      A                      A                      A
 Frequencies --    140.2624               166.3512               237.2392
 Red. masses --      2.3630                 1.0606                 2.9181
 Frc consts  --      0.0274                 0.0173                 0.0968
 IR Inten    --      0.0776                 0.0095                 1.4365

                      7                      8                      9
                      A                      A                      A
 Frequencies --    287.6691               357.2194               419.1744
 Red. masses --      2.7795                 3.5627                 2.9403
 Frc consts  --      0.1355                 0.2679                 0.3044
 IR Inten    --      0.7040                 3.2305                 7.3524

                     10                     11                     12
                      A                      A                      A
 Frequencies --    446.5973               536.8469               609.8190
 Red. masses --      2.7355                 1.9043                 4.3482
 Frc consts  --      0.3215                 0.3234                 0.9527
 IR Inten    --      6.5015                11.0122                 3.2617

                     13                     14                     15
                      A                      A                      A
 Frequencies --    752.8251               815.8034               845.2477
 Red. masses --      3.5391                 1.6003                 2.8317
 Frc consts  --      1.1818                 0.6275                 1.1920
 IR Inten    --      4.2147                 3.9687                 8.2927

                     16                     17                     18
                      A                      A                      A
 Frequencies --    861.9057               905.7363               972.0892
 Red. masses --      1.7354                 2.9661                 2.7974
 Frc consts  --      0.7596                 1.4337                 1.5575
 IR Inten    --     11.4164                 3.6959                 0.8499

                     19                     20                     21
                      A                      A                      A
 Frequencies --    997.9766              1001.6581              1027.8090
 Red. masses --      1.5495                 1.9757                 1.6051
 Frc consts  --      0.9092                 1.1679                 0.9990
 IR Inten    --      7.6536                14.5978                19.5838

                     22                     23                     24
                      A                      A                      A
 Frequencies --   1074.1080              1086.8557              1096.6988
 Red. masses --      2.9269                 2.0507                 2.0022
 Frc consts  --      1.9895                 1.4272                 1.4188
 IR Inten    --     72.4194                13.0171                13.4665

                     25                     26                     27
                      A                      A                      A
 Frequencies --   1116.1809              1196.1830              1211.8016
 Red. masses --      3.8635                 1.1283                 2.1674
 Frc consts  --      2.8359                 0.9512                 1.8752
 IR Inten    --     49.2573                 4.4550                 4.5714

                     28                     29                     30
                      A                      A                      A
 Frequencies --   1225.2725              1265.9102              1298.6092
 Red. masses --      1.3061                 1.3537                 1.5082
 Frc consts  --      1.1553                 1.2781                 1.4985
 IR Inten    --      9.1249                 2.3673                 3.2336

                     31                     32                     33
                      A                      A                      A
 Frequencies --   1346.9436              1368.4521              1388.3118
 Red. masses --      1.7147                 1.3350                 1.6264
 Frc consts  --      1.8329                 1.4730                 1.8469
 IR Inten    --      6.4563                42.6784                 3.0269

                     34                     35                     36
                      A                      A                      A
 Frequencies --   1414.3881              1421.0979              1450.5422
 Red. masses --      1.2728                 1.2131                 1.0998
 Frc consts  --      1.5001                 1.4435                 1.3634
 IR Inten    --      0.2171                 8.5750                 4.6233

                     37                     38                     39
                      A                      A                      A
 Frequencies --   1478.6533              1488.5525              1522.3896
 Red. masses --      1.0436                 1.0608                 1.0848
 Frc consts  --      1.3443                 1.3849                 1.4813
 IR Inten    --      7.6111                 6.5567                 1.7218

                     40                     41                     42
                      A                      A                      A
 Frequencies --   1732.5535              1827.8999              2913.4200
 Red. masses --      7.2855                 9.7945                 1.0835
 Frc consts  --     12.8849                19.2814                 5.4187
 IR Inten    --      9.3639               201.1080                70.8811

                     43                     44                     45
                      A                      A                      A
 Frequencies --   2959.0065              2969.7751              2987.4559
 Red. masses --      1.0809                 1.0585                 1.1042
 Frc consts  --      5.5759                 5.5004                 5.8063
 IR Inten    --     60.8307                68.6637                43.2974

                     46                     47                     48
                      A                      A                      A
 Frequencies --   3022.1170              3028.4990              3068.5986
 Red. masses --      1.0384                 1.0614                 1.0985
 Frc consts  --      5.5877                 5.7359                 6.0946
 IR Inten    --     33.6399                 9.4003                16.6750

                     49                     50                     51
                      A                      A                      A
 Frequencies --   3101.3697              3119.1895              3211.9166
 Red. masses --      1.1004                 1.0990                 1.0954
 Frc consts  --      6.2363                 6.2997                 6.6578
 IR Inten    --     14.5426                15.0754                 5.3917

 - Thermochemistry -
 -------------------
 Temperature   298.150 Kelvin.  Pressure   1.00000 Atm.
 Atom     1 has atomic number  6 and mass  12.00000

 Molecular mass:   126.06808 amu.
 Principal axes and moments of inertia in atomic units:
                           1         2         3
     Eigenvalues --   348.502322290.273512510.72668
           X            0.99999  -0.00309   0.00326
           Y            0.00305   0.99990   0.01351
           Z           -0.00330  -0.01350   0.99990
 This molecule is an asymmetric top.
 Rotational symmetry number  1.
 Rotational temperatures (Kelvin)      0.24853     0.03782     0.03450
 Rotational constants (GHZ):           5.17856     0.78800     0.71881
 Zero-point vibrational energy     412587.5 (Joules/Mol)
                                   98.61077 (Kcal/Mol)
 Warning -- explicit consideration of  12 degrees of freedom as
           vibrations may cause significant error
 Vibrational temperatures:     65.89    98.62   129.37   201.81   239.34
          (Kelvin)            341.33   413.89   513.96   603.10   642.55
                              772.40   877.39  1083.15  1173.76  1216.12
                             1240.09  1303.15  1398.62  1435.86  1441.16
                             1478.79  1545.40  1563.74  1577.90  1605.93
                             1721.04  1743.51  1762.89  1821.36  1868.41
                             1937.95  1968.89  1997.47  2034.99  2044.64
                             2087.00  2127.45  2141.69  2190.38  2492.75
                             2629.94  4191.76  4257.35  4272.84  4298.28
                             4348.15  4357.33  4415.02  4462.17  4487.81
                             4621.23

 Zero-point correction=                           0.157146 (Hartree/Particle)
 Thermal correction to Energy=                    0.166588
 Thermal correction to Enthalpy=                  0.167533
 Thermal correction to Gibbs Free Energy=         0.121612
 Sum of electronic and zero-point Energies=           -423.045173
 Sum of electronic and thermal Energies=              -423.035731
 Sum of electronic and thermal Enthalpies=            -423.034787
 Sum of electronic and thermal Free Energies=         -423.080707

                     E (Thermal)             CV                S
                      KCal/Mol        Cal/Mol-Kelvin    Cal/Mol-Kelvin
 Total                  104.536             33.153             96.648
 Electronic               0.000              0.000              0.000
 Translational            0.889              2.981             40.409
 Rotational               0.889              2.981             29.084
 Vibrational            102.758             27.192             27.155
 Vibration     1          0.595              1.979              4.991
 Vibration     2          0.598              1.969              4.195
 Vibration     3          0.602              1.956              3.662
 Vibration     4          0.615              1.913              2.800
 Vibration     5          0.624              1.884              2.476
 Vibration     6          0.656              1.784              1.823
 Vibration     7          0.685              1.697              1.488
 Vibration     8          0.732              1.560              1.134
 Vibration     9          0.782              1.429              0.895
 Vibration    10          0.806              1.368              0.806
 Vibration    11          0.892              1.169              0.572
 Vibration    12          0.969              1.011              0.433

 Normal termination of Gaussian 09 at Mon Jan 27 22:38:07 2020.
