 Gaussian 09, Revision D.01,
 Gaussian 09:  ES64L-G09RevD.01 24-Apr-2013

 -----------------------------
 # b3lyp 6-31G(2df,p) opt Freq
 -----------------------------

 -----
 titel
 -----
 Symbolic Z-matrix:
 Charge =  0 Multiplicity = 1

 SCF Done:  E(RB3LYP) =  -423.203471888     A.U. after   14 cycles
 Optimization completed.
    -- Stationary point found.
 Normal termination of Gaussian 09 at Mon Jan 27 14:07:26 2020.

 ----------------------------------------------------------------------
 #N Geom=AllCheck Guess=TCheck SCRF=Check GenChk RB3LYP/6-31G(2df,p) Fr
 eq
 ----------------------------------------------------------------------

 Structure from the checkpoint file:  "/scratch/puck/g09_9c46aa6c-7a56-47c7-8767-5ed55d78662e/Gau-41113.chk"
 -----
 titel
 -----
 Charge =  0 Multiplicity = 1

                         Standard orientation:
 ---------------------------------------------------------------------
 Center     Atomic      Atomic             Coordinates (Angstroms)
 Number     Number       Type             X           Y           Z
 ---------------------------------------------------------------------
      1          6           0       -2.838240    1.072901   -0.002799
      2          6           0       -1.834227   -0.063752   -0.000144
      3          8           0       -2.178841   -1.228385    0.003332
      4          6           0       -0.394406    0.326708   -0.001265
      5          6           0        0.564773   -0.595797   -0.744492
      6          6           0        1.882061    0.032505   -1.156624
      7          8           0        2.351343    0.725451   -0.002060
      8          6           0        1.881915    0.039424    1.156570
      9          6           0        0.564605   -0.591165    0.748074
     10          1           0       -2.688486    1.707583   -0.883905
     11          1           0       -3.853472    0.674931   -0.001861
     12          1           0       -2.688516    1.711614    0.875407
     13          1           0       -0.165753    1.387946   -0.004485
     14          1           0        0.135013   -1.415794   -1.305843
     15          1           0        2.587779   -0.755692   -1.466426
     16          1           0        1.806287    0.765389   -1.966499
     17          1           0        2.587515   -0.747009    1.471124
     18          1           0        1.806228    0.777144    1.962043
     19          1           0        0.134503   -1.407584    1.314352
 ---------------------------------------------------------------------

 SCF Done:  E(RB3LYP) =  -423.203471888     A.U. after    1 cycles

 The electronic state is 1-A.
 Alpha  occ. eigenvalues --  -19.14363 -19.12243 -10.26852 -10.23500 -10.23498
 Alpha  occ. eigenvalues --  -10.20380 -10.20351 -10.19939 -10.18862  -1.04293
 Alpha  occ. eigenvalues --   -1.03362  -0.87088  -0.75101  -0.74218  -0.67302
 Alpha  occ. eigenvalues --   -0.60241  -0.58135  -0.54603  -0.50529  -0.47576
 Alpha  occ. eigenvalues --   -0.45891  -0.45654  -0.43859  -0.43519  -0.41140
 Alpha  occ. eigenvalues --   -0.40635  -0.38887  -0.37632  -0.35588  -0.32828
 Alpha  occ. eigenvalues --   -0.29905  -0.28938  -0.25874  -0.24505
 Alpha virt. eigenvalues --   -0.01256   0.09426   0.10107   0.11950   0.12029
 Alpha virt. eigenvalues --    0.13618   0.13623   0.15224   0.15305   0.16154
 Alpha virt. eigenvalues --    0.16906   0.17546   0.19523   0.20721   0.21245

 Mulliken charges:
               1
     1  C   -0.486037
     2  C    0.369203
     3  O   -0.327909
     4  C   -0.139476
     5  C   -0.055985
     6  C   -0.108023
     7  O   -0.255408
     8  C   -0.108030
     9  C   -0.055941
    10  H    0.140443
    11  H    0.140838
    12  H    0.140486
    13  H    0.096291
    14  H    0.114174
    15  H    0.098473
    16  H    0.112119
    17  H    0.098483
    18  H    0.112121
    19  H    0.114177
 Sum of Mulliken charges =   0.00000

 Dipole moment (field-independent basis, Debye):
    X=              0.3420    Y=              1.1938    Z=             -0.0029  Tot=              1.2418
 Quadrupole moment (field-independent basis, Debye-Ang):
   XX=            -58.0327   YY=            -55.2182   ZZ=            -49.4240
   XY=             -8.8663   XZ=              0.0247   YZ=              0.0166

  Exact polarizability:  91.238  -3.856  70.290   0.011   0.000  69.418
 Approx polarizability: 115.072   1.120 114.736  -0.001  -0.030 104.322

                      1                      2                      3
                      A                      A                      A
 Frequencies --     54.5468               138.8350               145.5749
 Red. masses --      3.4995                 1.1292                 4.5380
 Frc consts  --      0.0061                 0.0128                 0.0567
 IR Inten    --      4.4862                 0.8053                 9.1611

                      4                      5                      6
                      A                      A                      A
 Frequencies --    166.7033               245.1385               308.5612
 Red. masses --      3.2454                 3.5978                 3.1455
 Frc consts  --      0.0531                 0.1274                 0.1764
 IR Inten    --      1.1547                 1.7270                 5.9278

                      7                      8                      9
                      A                      A                      A
 Frequencies --    323.0342               377.4186               589.3332
 Red. masses --      2.0651                 2.6375                 2.3922
 Frc consts  --      0.1270                 0.2214                 0.4895
 IR Inten    --      0.2280                 1.6159                 1.2070

                     10                     11                     12
                      A                      A                      A
 Frequencies --    590.6654               668.6727               734.8604
 Red. masses --      4.1185                 4.0776                 5.6226
 Frc consts  --      0.8466                 1.0742                 1.7889
 IR Inten    --     13.6303                 0.1108                 3.1948

                     13                     14                     15
                      A                      A                      A
 Frequencies --    835.4150               843.7734               884.4457
 Red. masses --      2.0538                 3.6671                 1.9780
 Frc consts  --      0.8445                 1.5382                 0.9116
 IR Inten    --      2.6550                 0.4704                10.3177

                     16                     17                     18
                      A                      A                      A
 Frequencies --    926.2158               937.1511               976.7053
 Red. masses --      4.5677                 2.9693                 1.7744
 Frc consts  --      2.3087                 1.5365                 0.9973
 IR Inten    --     23.9268                 8.7469                47.8169

                     19                     20                     21
                      A                      A                      A
 Frequencies --    982.3874               999.1547              1032.8349
 Red. masses --      2.1029                 1.4640                 1.6238
 Frc consts  --      1.1957                 0.8611                 1.0206
 IR Inten    --      2.1169                 8.3279                 0.0450

                     22                     23                     24
                      A                      A                      A
 Frequencies --   1054.9093              1090.1439              1094.2131
 Red. masses --      2.0267                 1.3542                 1.9689
 Frc consts  --      1.3288                 0.9482                 1.3889
 IR Inten    --      1.9866                 3.5008                35.2930

                     25                     26                     27
                      A                      A                      A
 Frequencies --   1109.4747              1124.5515              1174.3352
 Red. masses --      2.7478                 1.5159                 1.6994
 Frc consts  --      1.9928                 1.1295                 1.3808
 IR Inten    --     67.0542                 1.4842                28.6710

                     28                     29                     30
                      A                      A                      A
 Frequencies --   1202.6217              1219.8789              1245.5568
 Red. masses --      1.6974                 1.1131                 1.2324
 Frc consts  --      1.4464                 0.9759                 1.1265
 IR Inten    --     45.3226                10.4903                31.6467

                     31                     32                     33
                      A                      A                      A
 Frequencies --   1303.5326              1306.5567              1352.7099
 Red. masses --      1.9959                 1.6162                 1.3663
 Frc consts  --      1.9981                 1.6255                 1.4730
 IR Inten    --     58.8995                 1.5392                 0.5926

                     34                     35                     36
                      A                      A                      A
 Frequencies --   1375.3890              1393.8959              1432.6295
 Red. masses --      1.3385                 1.6793                 2.2340
 Frc consts  --      1.4918                 1.9224                 2.7015
 IR Inten    --     12.9542                29.0009                73.7787

                     37                     38                     39
                      A                      A                      A
 Frequencies --   1463.5946              1474.5730              1511.1237
 Red. masses --      1.0633                 1.0488                 1.0861
 Frc consts  --      1.3420                 1.3437                 1.4612
 IR Inten    --     10.1024                 7.7971                 0.2891

                     40                     41                     42
                      A                      A                      A
 Frequencies --   1522.6399              1787.8471              2970.5291
 Red. masses --      1.0954                10.2250                 1.0696
 Frc consts  --      1.4963                19.2564                 5.5609
 IR Inten    --      0.1249               134.9847                63.1291

                     43                     44                     45
                      A                      A                      A
 Frequencies --   2975.8768              3033.2953              3069.4456
 Red. masses --      1.0716                 1.0370                 1.0913
 Frc consts  --      5.5911                 5.6217                 6.0580
 IR Inten    --     90.3968                 2.4938                38.3582

                     46                     47                     48
                      A                      A                      A
 Frequencies --   3072.2723              3093.1222              3153.0735
 Red. masses --      1.0937                 1.0981                 1.1013
 Frc consts  --      6.0823                 6.1901                 6.4509
 IR Inten    --     25.9835                 7.7123                11.6684

                     49                     50                     51
                      A                      A                      A
 Frequencies --   3161.1816              3198.8160              3205.5926
 Red. masses --      1.0891                 1.0887                 1.0933
 Frc consts  --      6.4122                 6.5635                 6.6194
 IR Inten    --      6.1660                 3.9500                 2.2070

 - Thermochemistry -
 -------------------
 Temperature   298.150 Kelvin.  Pressure   1.00000 Atm.
 Atom     1 has atomic number  6 and mass  12.00000

 Molecular mass:   126.06808 amu.
 Principal axes and moments of inertia in atomic units:
                           1         2         3
     Eigenvalues --   474.627981816.587441843.99680
           X            0.99936  -0.03564   0.00005
           Y            0.03564   0.99936   0.00100
           Z           -0.00009  -0.00100   1.00000
 This molecule is an asymmetric top.
 Rotational symmetry number  1.
 Warning -- assumption of classical behavior for rotation
           may cause significant error
 Rotational temperatures (Kelvin)      0.18249     0.04768     0.04697
 Rotational constants (GHZ):           3.80243     0.99348     0.97871
 Zero-point vibrational energy     418303.1 (Joules/Mol)
                                   99.97683 (Kcal/Mol)
 Warning -- explicit consideration of  10 degrees of freedom as
           vibrations may cause significant error
 Vibrational temperatures:     78.48   199.75   209.45   239.85   352.70
          (Kelvin)            443.95   464.77   543.02   847.92   849.83
                              962.07  1057.30  1201.97  1214.00  1272.52
                             1332.62  1348.35  1405.26  1413.43  1437.56
                             1486.02  1517.78  1568.47  1574.33  1596.28
                             1617.98  1689.60  1730.30  1755.13  1792.08
                             1875.49  1879.84  1946.25  1978.88  2005.50
                             2061.23  2105.78  2121.58  2174.17  2190.74
                             2572.31  4273.92  4281.62  4364.23  4416.24
                             4420.31  4450.31  4536.56  4548.23  4602.38
                             4612.13

 Zero-point correction=                           0.159323 (Hartree/Particle)
 Thermal correction to Energy=                    0.167799
 Thermal correction to Enthalpy=                  0.168743
 Thermal correction to Gibbs Free Energy=         0.125626
 Sum of electronic and zero-point Energies=           -423.044149
 Sum of electronic and thermal Energies=              -423.035673
 Sum of electronic and thermal Enthalpies=            -423.034729
 Sum of electronic and thermal Free Energies=         -423.077845

                     E (Thermal)             CV                S
                      KCal/Mol        Cal/Mol-Kelvin    Cal/Mol-Kelvin
 Total                  105.295             31.404             90.746
 Electronic               0.000              0.000              0.000
 Translational            0.889              2.981             40.409
 Rotational               0.889              2.981             28.854
 Vibrational            103.518             25.442             21.483
 Vibration     1          0.596              1.976              4.645
 Vibration     2          0.614              1.915              2.820
 Vibration     3          0.617              1.907              2.729
 Vibration     4          0.624              1.883              2.472
 Vibration     5          0.660              1.771              1.765
 Vibration     6          0.698              1.657              1.370
 Vibration     7          0.708              1.629              1.295
 Vibration     8          0.748              1.518              1.049
 Vibration     9          0.947              1.055              0.468
 Vibration    10          0.948              1.052              0.466

 Normal termination of Gaussian 09 at Mon Jan 27 14:48:12 2020.
