 Gaussian 09, Revision D.01,
 Gaussian 09:  ES64L-G09RevD.01 24-Apr-2013

 -----------------------------
 # b3lyp 6-31G(2df,p) opt Freq
 -----------------------------

 -----
 titel
 -----
 Symbolic Z-matrix:
 Charge =  0 Multiplicity = 1

 SCF Done:  E(RB3LYP) =  -423.205737017     A.U. after   14 cycles
 Optimization completed.
    -- Stationary point found.
 Normal termination of Gaussian 09 at Mon Jan 27 22:02:41 2020.

 ----------------------------------------------------------------------
 #N Geom=AllCheck Guess=TCheck SCRF=Check GenChk RB3LYP/6-31G(2df,p) Fr
 eq
 ----------------------------------------------------------------------

 Structure from the checkpoint file:  "/scratch/puck/g09_9ba65869-e7b5-4a5b-b0d0-4150267ffd05/Gau-182173.chk"
 -----
 titel
 -----
 Charge =  0 Multiplicity = 1

                         Standard orientation:
 ---------------------------------------------------------------------
 Center     Atomic      Atomic             Coordinates (Angstroms)
 Number     Number       Type             X           Y           Z
 ---------------------------------------------------------------------
      1          6           0       -2.841447   -0.137040    0.293889
      2          6           0       -1.369778   -0.101839   -0.000406
      3          6           0       -0.611078   -1.193805   -0.122572
      4          6           0        0.866995   -1.057584   -0.433282
      5          8           0        1.614236   -0.816274    0.756205
      6          6           0        1.451283    0.581890    1.005533
      7          6           0        0.794931    1.127007   -0.296619
      8          6           0       -0.729334    1.261946   -0.181863
      9          8           0        1.092415    0.086161   -1.230299
     10          1           0       -3.411580    0.367473   -0.497106
     11          1           0       -3.211114   -1.162160    0.379724
     12          1           0       -3.073339    0.390468    1.227982
     13          1           0       -1.014622   -2.190833    0.026214
     14          1           0        1.288358   -1.931623   -0.933889
     15          1           0        0.820133    0.753153    1.885904
     16          1           0        2.439006    1.017294    1.185918
     17          1           0        1.260210    2.047907   -0.653418
     18          1           0       -0.984669    1.916310    0.662838
     19          1           0       -1.135030    1.749461   -1.079488
 ---------------------------------------------------------------------

 SCF Done:  E(RB3LYP) =  -423.205737017     A.U. after    1 cycles

 The electronic state is 1-A.
 Alpha  occ. eigenvalues --  -19.14208 -19.13644 -10.27297 -10.23770 -10.22725
 Alpha  occ. eigenvalues --  -10.19627 -10.19100 -10.18505 -10.17409  -1.08561
 Alpha  occ. eigenvalues --   -0.98603  -0.81868  -0.77833  -0.71010  -0.67642
 Alpha  occ. eigenvalues --   -0.61614  -0.60608  -0.53235  -0.51626  -0.47064
 Alpha  occ. eigenvalues --   -0.45971  -0.45904  -0.42971  -0.41789  -0.41030
 Alpha  occ. eigenvalues --   -0.39788  -0.38497  -0.37585  -0.34799  -0.33077
 Alpha  occ. eigenvalues --   -0.32099  -0.27499  -0.25611  -0.23455
 Alpha virt. eigenvalues --    0.01157   0.08593   0.11063   0.11469   0.12381
 Alpha virt. eigenvalues --    0.12919   0.15359   0.15720   0.16433   0.17245
 Alpha virt. eigenvalues --    0.17577   0.18565   0.19882   0.20819   0.24113

 Mulliken charges:
               1
     1  C   -0.476300
     2  C    0.294045
     3  C   -0.152313
     4  C    0.135867
     5  O   -0.260546
     6  C   -0.100437
     7  C    0.037398
     8  C   -0.301864
     9  O   -0.243946
    10  H    0.126313
    11  H    0.124377
    12  H    0.124407
    13  H    0.087412
    14  H    0.090147
    15  H    0.100091
    16  H    0.110843
    17  H    0.085917
    18  H    0.105243
    19  H    0.113346
 Sum of Mulliken charges =   0.00000

 Dipole moment (field-independent basis, Debye):
    X=             -1.6438    Y=              1.2684    Z=              0.5437  Tot=              2.1463
 Quadrupole moment (field-independent basis, Debye-Ang):
   XX=            -53.5990   YY=            -49.0946   ZZ=            -56.0098
   XY=              1.9716   XZ=              0.0198   YZ=              2.2590

  Exact polarizability:  85.841  -3.230  80.709  -0.673   2.703  60.145
 Approx polarizability: 114.442 -13.676 127.103  -2.067   4.274  94.880

                      1                      2                      3
                      A                      A                      A
 Frequencies --    124.2333               166.9657               203.1907
 Red. masses --      2.5457                 1.4555                 1.8089
 Frc consts  --      0.0231                 0.0239                 0.0440
 IR Inten    --      0.4890                 0.8621                 1.7930

                      4                      5                      6
                      A                      A                      A
 Frequencies --    316.3683               340.0327               406.9827
 Red. masses --      2.4950                 2.1591                 3.1445
 Frc consts  --      0.1471                 0.1471                 0.3069
 IR Inten    --      0.4143                 0.2651                 4.7707

                      7                      8                      9
                      A                      A                      A
 Frequencies --    431.9942               501.4492               555.3202
 Red. masses --      5.6927                 2.3678                 4.1808
 Frc consts  --      0.6259                 0.3508                 0.7596
 IR Inten    --      6.9216                 0.4141                 2.3960

                     10                     11                     12
                      A                      A                      A
 Frequencies --    674.4066               760.8423               795.9618
 Red. masses --      5.9288                 4.7415                 2.6427
 Frc consts  --      1.5888                 1.6172                 0.9864
 IR Inten    --     13.6879                 3.2002                 5.4565

                     13                     14                     15
                      A                      A                      A
 Frequencies --    828.5068               848.9679               881.5830
 Red. masses --      2.5578                 2.5459                 4.0464
 Frc consts  --      1.0345                 1.0811                 1.8529
 IR Inten    --      3.4471                 2.9721                11.5366

                     16                     17                     18
                      A                      A                      A
 Frequencies --    906.7196               924.8790               950.7159
 Red. masses --      1.7871                 3.4372                 2.0623
 Frc consts  --      0.8657                 1.7323                 1.0982
 IR Inten    --     16.3057                77.3822                25.0214

                     19                     20                     21
                      A                      A                      A
 Frequencies --   1008.3716              1011.5671              1026.0317
 Red. masses --      2.3913                 2.8505                 1.8817
 Frc consts  --      1.4326                 1.7185                 1.1672
 IR Inten    --     19.5061                36.0025                 6.6337

                     22                     23                     24
                      A                      A                      A
 Frequencies --   1063.3341              1079.4944              1095.0386
 Red. masses --      1.7093                 2.4210                 1.8137
 Frc consts  --      1.1387                 1.6622                 1.2814
 IR Inten    --      6.2936                 5.7764                 4.7397

                     25                     26                     27
                      A                      A                      A
 Frequencies --   1114.2056              1195.0528              1205.9070
 Red. masses --      5.2093                 2.0298                 1.1443
 Frc consts  --      3.8103                 1.7080                 0.9804
 IR Inten    --     81.3728                 9.1073                 8.0100

                     28                     29                     30
                      A                      A                      A
 Frequencies --   1216.5294              1292.4916              1316.4273
 Red. masses --      1.2689                 1.2280                 1.6574
 Frc consts  --      1.1064                 1.2086                 1.6923
 IR Inten    --     10.0260                 0.8363                 1.5075

                     31                     32                     33
                      A                      A                      A
 Frequencies --   1322.9007              1335.2115              1365.6750
 Red. masses --      1.3990                 1.3841                 1.3328
 Frc consts  --      1.4425                 1.4539                 1.4646
 IR Inten    --      1.5577                 5.8983                 8.9900

                     34                     35                     36
                      A                      A                      A
 Frequencies --   1377.7031              1397.2847              1413.7696
 Red. masses --      1.6819                 1.5564                 1.2806
 Frc consts  --      1.8809                 1.7903                 1.5081
 IR Inten    --     27.0989                 0.7513                 3.0824

                     37                     38                     39
                      A                      A                      A
 Frequencies --   1466.0953              1477.6925              1488.1395
 Red. masses --      1.0920                 1.0450                 1.0626
 Frc consts  --      1.3829                 1.3444                 1.3864
 IR Inten    --      3.3442                 7.1978                 8.0179

                     40                     41                     42
                      A                      A                      A
 Frequencies --   1520.5671              1728.0141              3007.3923
 Red. masses --      1.0910                 6.8839                 1.0577
 Frc consts  --      1.4863                12.1111                 5.6361
 IR Inten    --      1.0692                15.4458                16.1592

                     43                     44                     45
                      A                      A                      A
 Frequencies --   3016.4263              3027.4172              3039.9173
 Red. masses --      1.0404                 1.0630                 1.0972
 Frc consts  --      5.5773                 5.7399                 5.9740
 IR Inten    --     42.2601                31.3259                32.8375

                     46                     47                     48
                      A                      A                      A
 Frequencies --   3062.0454              3075.4575              3096.7967
 Red. masses --      1.0984                 1.1048                 1.0884
 Frc consts  --      6.0679                 6.1569                 6.1496
 IR Inten    --     22.3813                22.2210                56.9340

                     49                     50                     51
                      A                      A                      A
 Frequencies --   3103.5214              3113.1750              3172.6951
 Red. masses --      1.0915                 1.0991                 1.0917
 Frc consts  --      6.1940                 6.2760                 6.4746
 IR Inten    --     30.6774                18.1334                16.2882

 - Thermochemistry -
 -------------------
 Temperature   298.150 Kelvin.  Pressure   1.00000 Atm.
 Atom     1 has atomic number  6 and mass  12.00000

 Molecular mass:   126.06808 amu.
 Principal axes and moments of inertia in atomic units:
                           1         2         3
     Eigenvalues --   582.259721205.453891358.51830
           X            0.99988   0.01519  -0.00145
           Y           -0.01509   0.99845   0.05364
           Z            0.00227  -0.05361   0.99856
 This molecule is an asymmetric top.
 Rotational symmetry number  1.
 Warning -- assumption of classical behavior for rotation
           may cause significant error
 Rotational temperatures (Kelvin)      0.14875     0.07185     0.06376
 Rotational constants (GHZ):           3.09955     1.49715     1.32846
 Zero-point vibrational energy     423785.9 (Joules/Mol)
                                  101.28726 (Kcal/Mol)
 Warning -- explicit consideration of   9 degrees of freedom as
           vibrations may cause significant error
 Vibrational temperatures:    178.74   240.23   292.35   455.18   489.23
          (Kelvin)            585.56   621.54   721.47   798.98   970.32
                             1094.68  1145.21  1192.03  1221.47  1268.40
                             1304.57  1330.69  1367.87  1450.82  1455.42
                             1476.23  1529.90  1553.15  1575.51  1603.09
                             1719.41  1735.03  1750.31  1859.60  1894.04
                             1903.36  1921.07  1964.90  1982.21  2010.38
                             2034.10  2109.38  2126.07  2141.10  2187.75
                             2486.22  4326.96  4339.96  4355.77  4373.76
                             4405.59  4424.89  4455.59  4465.27  4479.16
                             4564.79

 Zero-point correction=                           0.161412 (Hartree/Particle)
 Thermal correction to Energy=                    0.168855
 Thermal correction to Enthalpy=                  0.169799
 Thermal correction to Gibbs Free Energy=         0.129683
 Sum of electronic and zero-point Energies=           -423.044325
 Sum of electronic and thermal Energies=              -423.036882
 Sum of electronic and thermal Enthalpies=            -423.035938
 Sum of electronic and thermal Free Energies=         -423.076054

                     E (Thermal)             CV                S
                      KCal/Mol        Cal/Mol-Kelvin    Cal/Mol-Kelvin
 Total                  105.958             29.626             84.433
 Electronic               0.000              0.000              0.000
 Translational            0.889              2.981             40.409
 Rotational               0.889              2.981             28.346
 Vibrational            104.181             23.664             15.678
 Vibration     1          0.610              1.929              3.033
 Vibration     2          0.624              1.883              2.469
 Vibration     3          0.639              1.835              2.104
 Vibration     4          0.703              1.642              1.329
 Vibration     5          0.720              1.595              1.212
 Vibration     6          0.772              1.455              0.937
 Vibration     7          0.793              1.401              0.852
 Vibration     8          0.857              1.247              0.655
 Vibration     9          0.911              1.128              0.533

 Normal termination of Gaussian 09 at Mon Jan 27 22:51:00 2020.
