 Gaussian 09, Revision D.01,
 Gaussian 09:  ES64L-G09RevD.01 24-Apr-2013

 -----------------------------
 # b3lyp 6-31G(2df,p) opt Freq
 -----------------------------

 -----
 titel
 -----
 Symbolic Z-matrix:
 Charge =  0 Multiplicity = 1

 SCF Done:  E(RB3LYP) =  -423.134386087     A.U. after   14 cycles
 SCF Done:  E(RB3LYP) =  -423.134386078     A.U. after    6 cycles
 SCF Done:  E(RB3LYP) =  -423.134386105     A.U. after    6 cycles
 Optimization completed.
    -- Stationary point found.
 Normal termination of Gaussian 09 at Tue Jan 28 09:00:10 2020.

 ----------------------------------------------------------------------
 #N Geom=AllCheck Guess=TCheck SCRF=Check GenChk RB3LYP/6-31G(2df,p) Fr
 eq
 ----------------------------------------------------------------------

 Structure from the checkpoint file:  "/scratch/puck/g09_31e6430f-4835-44eb-baf8-b88932500216/Gau-103713.chk"
 -----
 titel
 -----
 Charge =  0 Multiplicity = 1

                         Standard orientation:
 ---------------------------------------------------------------------
 Center     Atomic      Atomic             Coordinates (Angstroms)
 Number     Number       Type             X           Y           Z
 ---------------------------------------------------------------------
      1          8           0       -2.782062   -0.919687   -0.315748
      2          6           0       -1.852273   -0.514569    0.664569
      3          6           0       -0.753747    0.354712    0.056041
      4          8           0       -1.357068    1.466862   -0.594505
      5          6           0        0.434441    0.636867    1.012757
      6          6           0        1.234599   -0.497232    0.288229
      7          6           0        0.201452   -0.411491   -0.884335
      8          6           0        2.633136   -0.270310   -0.006389
      9          6           0        3.790453   -0.063453   -0.260375
     10          1           0       -2.935456   -0.139103   -0.863903
     11          1           0       -2.340414    0.053147    1.479585
     12          1           0       -1.431589   -1.421635    1.112570
     13          1           0       -1.774569    2.017941    0.078801
     14          1           0        0.870420    1.617029    0.809448
     15          1           0        0.267513    0.522645    2.087317
     16          1           0        1.119239   -1.443073    0.826761
     17          1           0        0.561029    0.242436   -1.680245
     18          1           0       -0.164672   -1.347686   -1.307734
     19          1           0        4.813174    0.113748   -0.483566
 ---------------------------------------------------------------------

 SCF Done:  E(RB3LYP) =  -423.134386105     A.U. after    1 cycles

 The electronic state is 1-A.
 Alpha  occ. eigenvalues --  -19.15448 -19.13363 -10.24399 -10.23039 -10.21688
 Alpha  occ. eigenvalues --  -10.19308 -10.18706 -10.17912 -10.16995  -1.04254
 Alpha  occ. eigenvalues --   -1.01048  -0.85803  -0.75231  -0.70414  -0.67636
 Alpha  occ. eigenvalues --   -0.64718  -0.57159  -0.53478  -0.51532  -0.50069
 Alpha  occ. eigenvalues --   -0.48629  -0.45308  -0.43759  -0.43147  -0.39837
 Alpha  occ. eigenvalues --   -0.36583  -0.36541  -0.36300  -0.32986  -0.31731
 Alpha  occ. eigenvalues --   -0.28953  -0.26955  -0.25948  -0.25475
 Alpha virt. eigenvalues --    0.04529   0.04781   0.06670   0.09376   0.10400
 Alpha virt. eigenvalues --    0.11886   0.13245   0.14256   0.14778   0.15389
 Alpha virt. eigenvalues --    0.16422   0.19057   0.19281   0.20295   0.21457

 Mulliken charges:
               1
     1  O   -0.421277
     2  C   -0.101480
     3  C    0.365664
     4  O   -0.485467
     5  C   -0.306217
     6  C   -0.160979
     7  C   -0.269856
     8  C    0.309105
     9  C   -0.444759
    10  H    0.284910
    11  H    0.072423
    12  H    0.109441
    13  H    0.279434
    14  H    0.119961
    15  H    0.103394
    16  H    0.106021
    17  H    0.123686
    18  H    0.121597
    19  H    0.194398
 Sum of Mulliken charges =   0.00000

 Dipole moment (field-independent basis, Debye):
    X=              0.0210    Y=              1.3555    Z=              1.3555  Tot=              1.9171
 Quadrupole moment (field-independent basis, Debye-Ang):
   XX=            -54.0001   YY=            -53.1450   ZZ=            -52.9309
   XY=             -4.6658   XZ=             -2.5027   YZ=              1.0414

  Exact polarizability: 106.281   0.806  64.006  -4.575   0.719  65.079
 Approx polarizability: 144.713   4.552  97.543  -7.864  -1.009  98.222

                      1                      2                      3
                      A                      A                      A
 Frequencies --     65.0603               109.3054               154.9569
 Red. masses --      4.4823                 4.3605                 3.7509
 Frc consts  --      0.0112                 0.0307                 0.0531
 IR Inten    --      0.5385                 4.3616                 4.9593

                      4                      5                      6
                      A                      A                      A
 Frequencies --    219.8465               228.8033               299.9266
 Red. masses --      3.4557                 3.2513                 1.3558
 Frc consts  --      0.0984                 0.1003                 0.0719
 IR Inten    --      1.4413                 5.6115                13.9103

                      7                      8                      9
                      A                      A                      A
 Frequencies --    340.2265               368.8068               410.7521
 Red. masses --      2.7901                 1.8053                 3.1353
 Frc consts  --      0.1903                 0.1447                 0.3117
 IR Inten    --      2.5339                48.8985                 5.9629

                     10                     11                     12
                      A                      A                      A
 Frequencies --    455.8112               505.3155               521.6228
 Red. masses --      2.4116                 1.4225                 3.7362
 Frc consts  --      0.2952                 0.2140                 0.5990
 IR Inten    --     24.5706               107.0042                22.1530

                     13                     14                     15
                      A                      A                      A
 Frequencies --    548.9473               614.4760               626.6195
 Red. masses --      3.0624                 1.7356                 1.2472
 Frc consts  --      0.5437                 0.3861                 0.2885
 IR Inten    --     17.0406                19.1677                40.9355

                     16                     17                     18
                      A                      A                      A
 Frequencies --    628.3268               749.7787               834.3996
 Red. masses --      1.6572                 3.0428                 1.4095
 Frc consts  --      0.3855                 1.0078                 0.5782
 IR Inten    --     29.7800                 6.4782                 1.0516

                     19                     20                     21
                      A                      A                      A
 Frequencies --    856.2008               931.5810               939.6658
 Red. masses --      2.2895                 2.8349                 2.3343
 Frc consts  --      0.9889                 1.4496                 1.2144
 IR Inten    --      2.8836                18.6012                 7.3734

                     22                     23                     24
                      A                      A                      A
 Frequencies --    979.5702              1034.0310              1051.9820
 Red. masses --      3.6885                 1.3489                 2.5587
 Frc consts  --      2.0853                 0.8498                 1.6684
 IR Inten    --     20.2772                 8.6463                 9.4685

                     25                     26                     27
                      A                      A                      A
 Frequencies --   1076.0443              1098.8422              1139.2238
 Red. masses --      2.5133                 2.3730                 1.7584
 Frc consts  --      1.7146                 1.6882                 1.3446
 IR Inten    --     67.1197                51.0384                 6.0165

                     28                     29                     30
                      A                      A                      A
 Frequencies --   1147.7674              1213.6348              1223.7243
 Red. masses --      2.2514                 1.2009                 1.3131
 Frc consts  --      1.7475                 1.0422                 1.1586
 IR Inten    --     24.9062                38.8880                 1.3823

                     31                     32                     33
                      A                      A                      A
 Frequencies --   1245.5262              1269.5486              1292.7398
 Red. masses --      1.2244                 1.6112                 2.0666
 Frc consts  --      1.1191                 1.5301                 2.0349
 IR Inten    --      1.9060                23.7957                48.2758

                     34                     35                     36
                      A                      A                      A
 Frequencies --   1342.5936              1359.9758              1384.4608
 Red. masses --      1.5353                 1.4760                 1.5296
 Frc consts  --      1.6305                 1.6085                 1.7274
 IR Inten    --     29.7382                 4.0003                 5.9766

                     37                     38                     39
                      A                      A                      A
 Frequencies --   1441.2184              1467.0181              1490.6316
 Red. masses --      1.3020                 1.0882                 1.1252
 Frc consts  --      1.5934                 1.3799                 1.4731
 IR Inten    --     67.7402                 5.1395                 5.4759

                     40                     41                     42
                      A                      A                      A
 Frequencies --   1504.1367              2234.9970              2924.1116
 Red. masses --      1.0967                 5.9779                 1.0729
 Frc consts  --      1.4619                17.5935                 5.4049
 IR Inten    --      0.1643                 4.7328                77.3012

                     43                     44                     45
                      A                      A                      A
 Frequencies --   3053.1100              3060.4314              3066.0756
 Red. masses --      1.0837                 1.0608                 1.0863
 Frc consts  --      5.9515                 5.8542                 6.0170
 IR Inten    --      6.9389                27.9777                30.7072

                     46                     47                     48
                      A                      A                      A
 Frequencies --   3084.2639              3127.7892              3147.7253
 Red. masses --      1.0580                 1.1071                 1.1095
 Frc consts  --      5.9297                 6.3814                 6.4771
 IR Inten    --     10.3212                14.7670                11.7059

                     49                     50                     51
                      A                      A                      A
 Frequencies --   3504.8888              3767.1079              3781.3613
 Red. masses --      1.1611                 1.0650                 1.0657
 Frc consts  --      8.4036                 8.9050                 8.9782
 IR Inten    --     74.1038                35.1151                13.8121

 - Thermochemistry -
 -------------------
 Temperature   298.150 Kelvin.  Pressure   1.00000 Atm.
 Atom     1 has atomic number  8 and mass  15.99491

 Molecular mass:   126.06808 amu.
 Principal axes and moments of inertia in atomic units:
                           1         2         3
     Eigenvalues --   454.541552049.342132141.60827
           X            0.99997  -0.00055  -0.00746
           Y            0.00092   0.99878   0.04947
           Z            0.00742  -0.04947   0.99875
 This molecule is an asymmetric top.
 Rotational symmetry number  1.
 Warning -- assumption of classical behavior for rotation
           may cause significant error
 Rotational temperatures (Kelvin)      0.19055     0.04226     0.04044
 Rotational constants (GHZ):           3.97046     0.88064     0.84270
 Zero-point vibrational energy     412262.8 (Joules/Mol)
                                   98.53318 (Kcal/Mol)
 Warning -- explicit consideration of  14 degrees of freedom as
           vibrations may cause significant error
 Vibrational temperatures:     93.61   157.27   222.95   316.31   329.20
          (Kelvin)            431.53   489.51   530.63   590.98   655.81
                              727.04   750.50   789.81   884.09   901.56
                              904.02  1078.76  1200.51  1231.88  1340.34
                             1351.97  1409.38  1487.74  1513.57  1548.19
                             1580.99  1639.09  1651.38  1746.15  1760.66
                             1792.03  1826.60  1859.96  1931.69  1956.70
                             1991.93  2073.59  2110.71  2144.68  2164.11
                             3215.66  4207.14  4392.74  4403.27  4411.39
                             4437.56  4500.19  4528.87  5042.75  5420.02
                             5440.53

 Zero-point correction=                           0.157023 (Hartree/Particle)
 Thermal correction to Energy=                    0.166447
 Thermal correction to Enthalpy=                  0.167391
 Thermal correction to Gibbs Free Energy=         0.122920
 Sum of electronic and zero-point Energies=           -422.977363
 Sum of electronic and thermal Energies=              -422.967939
 Sum of electronic and thermal Enthalpies=            -422.966995
 Sum of electronic and thermal Free Energies=         -423.011466

                     E (Thermal)             CV                S
                      KCal/Mol        Cal/Mol-Kelvin    Cal/Mol-Kelvin
 Total                  104.447             36.023             93.597
 Electronic               0.000              0.000              0.000
 Translational            0.889              2.981             40.409
 Rotational               0.889              2.981             29.080
 Vibrational            102.669             30.061             24.109
 Vibration     1          0.597              1.971              4.298
 Vibration     2          0.606              1.942              3.281
 Vibration     3          0.620              1.897              2.610
 Vibration     4          0.647              1.811              1.960
 Vibration     5          0.651              1.797              1.888
 Vibration     6          0.692              1.674              1.417
 Vibration     7          0.720              1.595              1.211
 Vibration     8          0.741              1.536              1.085
 Vibration     9          0.775              1.447              0.924
 Vibration    10          0.814              1.348              0.778
 Vibration    11          0.861              1.238              0.645
 Vibration    12          0.877              1.202              0.606
 Vibration    13          0.904              1.142              0.546
 Vibration    14          0.974              1.001              0.425

 Optimization completed.
    -- Stationary point found.
 Normal termination of Gaussian 09 at Tue Jan 28 09:39:49 2020.
