 Gaussian 09, Revision D.01,
 Gaussian 09:  ES64L-G09RevD.01 24-Apr-2013

 -----------------------------
 # b3lyp 6-31G(2df,p) opt Freq
 -----------------------------

 -----
 titel
 -----
 Symbolic Z-matrix:
 Charge =  0 Multiplicity = 1

 SCF Done:  E(RB3LYP) =  -423.203149811     A.U. after   14 cycles
 Optimization completed.
    -- Stationary point found.
 Normal termination of Gaussian 09 at Tue Jan 28 01:55:02 2020.

 ----------------------------------------------------------------------
 #N Geom=AllCheck Guess=TCheck SCRF=Check GenChk RB3LYP/6-31G(2df,p) Fr
 eq
 ----------------------------------------------------------------------

 Structure from the checkpoint file:  "/scratch/puck/g09_a31bb6fe-95fb-4c2c-a490-cea61e0c1eec/Gau-87573.chk"
 -----
 titel
 -----
 Charge =  0 Multiplicity = 1

                         Standard orientation:
 ---------------------------------------------------------------------
 Center     Atomic      Atomic             Coordinates (Angstroms)
 Number     Number       Type             X           Y           Z
 ---------------------------------------------------------------------
      1          6           0       -2.559189   -1.221303   -0.393939
      2          6           0       -1.506935   -0.439117    0.387907
      3          8           0       -0.235273   -0.911136   -0.049905
      4          6           0        0.845372   -0.100993    0.368670
      5          6           0        0.780311    1.295890   -0.253884
      6          6           0       -0.617458    1.835520   -0.113395
      7          6           0       -1.644937    1.051740    0.204350
      8          6           0        2.116354   -0.862467    0.030331
      9          8           0        3.187773   -0.342338   -0.139416
     10          1           0       -2.411220   -2.295012   -0.251583
     11          1           0       -3.563845   -0.958737   -0.049877
     12          1           0       -2.483463   -0.995575   -1.461222
     13          1           0       -1.621107   -0.677575    1.462616
     14          1           0        0.830447    0.001483    1.471717
     15          1           0        1.508117    1.949552    0.238308
     16          1           0        1.079944    1.249649   -1.309044
     17          1           0       -0.765330    2.900698   -0.269534
     18          1           0       -2.642972    1.460473    0.338868
     19          1           0        1.968327   -1.962778   -0.035907
 ---------------------------------------------------------------------

 SCF Done:  E(RB3LYP) =  -423.203149811     A.U. after    1 cycles

 The electronic state is 1-A.
 Alpha  occ. eigenvalues --  -19.14956 -19.14522 -10.27217 -10.24430 -10.24428
 Alpha  occ. eigenvalues --  -10.19292 -10.19098 -10.18632 -10.18161  -1.05611
 Alpha  occ. eigenvalues --   -1.04303  -0.80704  -0.79876  -0.71355  -0.67159
 Alpha  occ. eigenvalues --   -0.62169  -0.57421  -0.53917  -0.50407  -0.50194
 Alpha  occ. eigenvalues --   -0.46936  -0.44704  -0.43894  -0.41273  -0.40590
 Alpha  occ. eigenvalues --   -0.39631  -0.38949  -0.37351  -0.36464  -0.36020
 Alpha  occ. eigenvalues --   -0.32154  -0.26493  -0.25499  -0.25281
 Alpha virt. eigenvalues --   -0.02777   0.01359   0.09001   0.11676   0.11860
 Alpha virt. eigenvalues --    0.12734   0.13823   0.15347   0.16009   0.16278
 Alpha virt. eigenvalues --    0.17143   0.18002   0.20058   0.20636   0.23036

 Mulliken charges:
               1
     1  C   -0.398278
     2  C    0.097556
     3  O   -0.283910
     4  C    0.028338
     5  C   -0.256389
     6  C   -0.091616
     7  C   -0.059455
     8  C    0.138498
     9  O   -0.247580
    10  H    0.126118
    11  H    0.116639
    12  H    0.129242
    13  H    0.076246
    14  H    0.094305
    15  H    0.124154
    16  H    0.123531
    17  H    0.095811
    18  H    0.093163
    19  H    0.093626
 Sum of Mulliken charges =   0.00000

 Dipole moment (field-independent basis, Debye):
    X=             -2.5790    Y=              0.4350    Z=              0.8448  Tot=              2.7485
 Quadrupole moment (field-independent basis, Debye-Ang):
   XX=            -60.2736   YY=            -51.2010   ZZ=            -52.6144
   XY=             -0.0282   XZ=              0.5101   YZ=             -0.9057

  Exact polarizability:  96.698   6.469  80.789  -4.027  -2.340  56.762
 Approx polarizability: 134.643  16.716 115.490 -10.208  -4.648  90.172

                      1                      2                      3
                      A                      A                      A
 Frequencies --     63.4316               103.6570               151.2087
 Red. masses --      3.8967                 2.5054                 2.6754
 Frc consts  --      0.0092                 0.0159                 0.0360
 IR Inten    --      6.5888                 0.3446                 5.3102

                      4                      5                      6
                      A                      A                      A
 Frequencies --    180.2894               233.4380               283.0789
 Red. masses --      4.7250                 1.0955                 2.2940
 Frc consts  --      0.0905                 0.0352                 0.1083
 IR Inten    --      3.8038                 0.1467                 1.2628

                      7                      8                      9
                      A                      A                      A
 Frequencies --    345.4687               412.8286               451.7299
 Red. masses --      3.6005                 3.7822                 2.8038
 Frc consts  --      0.2532                 0.3798                 0.3371
 IR Inten    --      2.7194                 2.5015                 2.6055

                     10                     11                     12
                      A                      A                      A
 Frequencies --    465.3674               551.6008               628.9950
 Red. masses --      3.7271                 3.2837                 3.0788
 Frc consts  --      0.4756                 0.5887                 0.7177
 IR Inten    --      0.7342                 4.4761                 9.6189

                     13                     14                     15
                      A                      A                      A
 Frequencies --    701.4250               775.0253               838.6911
 Red. masses --      1.7359                 2.4926                 2.6169
 Frc consts  --      0.5032                 0.8822                 1.0845
 IR Inten    --     22.8824                21.7677                10.1236

                     16                     17                     18
                      A                      A                      A
 Frequencies --    849.9039               902.3264               945.3488
 Red. masses --      2.4007                 1.8862                 2.2684
 Frc consts  --      1.0217                 0.9048                 1.1944
 IR Inten    --      1.4198                14.6848                 0.3780

                     19                     20                     21
                      A                      A                      A
 Frequencies --    985.8409               995.9583              1059.6299
 Red. masses --      1.8038                 1.2087                 2.0216
 Frc consts  --      1.0329                 0.7064                 1.3374
 IR Inten    --      9.2234                 0.1110                10.5916

                     22                     23                     24
                      A                      A                      A
 Frequencies --   1069.1118              1084.2448              1122.0541
 Red. masses --      2.0282                 2.3856                 3.0172
 Frc consts  --      1.3658                 1.6524                 2.2381
 IR Inten    --      5.9562                10.2089                29.0072

                     25                     26                     27
                      A                      A                      A
 Frequencies --   1124.9374              1170.4206              1214.0537
 Red. masses --      2.1778                 2.0281                 1.3332
 Frc consts  --      1.6238                 1.6369                 1.1578
 IR Inten    --     74.0581                 5.3549                23.4966

                     28                     29                     30
                      A                      A                      A
 Frequencies --   1216.4688              1300.6355              1322.1708
 Red. masses --      1.3348                 1.4460                 1.1538
 Frc consts  --      1.1638                 1.4413                 1.1884
 IR Inten    --     19.1423                 3.2302                21.2640

                     31                     32                     33
                      A                      A                      A
 Frequencies --   1341.1529              1368.0093              1377.2157
 Red. masses --      1.4383                 1.4906                 1.4119
 Frc consts  --      1.5243                 1.6435                 1.5778
 IR Inten    --     11.3723                 4.5290                 2.2718

                     34                     35                     36
                      A                      A                      A
 Frequencies --   1396.0970              1407.3154              1420.1207
 Red. masses --      1.3968                 1.3011                 1.5013
 Frc consts  --      1.6041                 1.5182                 1.7838
 IR Inten    --     16.3566                 6.9182                 2.5632

                     37                     38                     39
                      A                      A                      A
 Frequencies --   1469.4861              1484.4260              1498.0083
 Red. masses --      1.0960                 1.0540                 1.0531
 Frc consts  --      1.3944                 1.3684                 1.3923
 IR Inten    --      4.0887                 2.9804                 1.8556

                     40                     41                     42
                      A                      A                      A
 Frequencies --   1722.9894              1839.0150              2899.3212
 Red. masses --      7.0343                10.8185                 1.0842
 Frc consts  --     12.3038                21.5569                 5.3697
 IR Inten    --      5.5277               141.7214                86.0182

                     43                     44                     45
                      A                      A                      A
 Frequencies --   2915.3178              2918.3596              3028.2627
 Red. masses --      1.0799                 1.0794                 1.0658
 Frc consts  --      5.4078                 5.4164                 5.7587
 IR Inten    --     18.1092                79.6936                17.0737

                     46                     47                     48
                      A                      A                      A
 Frequencies --   3045.2097              3075.4145              3121.8793
 Red. masses --      1.0341                 1.0951                 1.1018
 Frc consts  --      5.6500                 6.1023                 6.3269
 IR Inten    --     17.5727                13.1931                17.5637

                     49                     50                     51
                      A                      A                      A
 Frequencies --   3126.6099              3152.8505              3175.3139
 Red. masses --      1.1030                 1.0837                 1.0978
 Frc consts  --      6.3526                 6.3468                 6.5217
 IR Inten    --     19.4091                 6.4299                25.9689

 - Thermochemistry -
 -------------------
 Temperature   298.150 Kelvin.  Pressure   1.00000 Atm.
 Atom     1 has atomic number  6 and mass  12.00000

 Molecular mass:   126.06808 amu.
 Principal axes and moments of inertia in atomic units:
                           1         2         3
     Eigenvalues --   576.110261551.420632016.00388
           X            0.99969   0.02480   0.00351
           Y           -0.02479   0.99969  -0.00207
           Z           -0.00356   0.00198   0.99999
 This molecule is an asymmetric top.
 Rotational symmetry number  1.
 Warning -- assumption of classical behavior for rotation
           may cause significant error
 Rotational temperatures (Kelvin)      0.15034     0.05583     0.04296
 Rotational constants (GHZ):           3.13263     1.16328     0.89521
 Zero-point vibrational energy     414695.8 (Joules/Mol)
                                   99.11466 (Kcal/Mol)
 Warning -- explicit consideration of  11 degrees of freedom as
           vibrations may cause significant error
 Vibrational temperatures:     91.26   149.14   217.56   259.40   335.86
          (Kelvin)            407.29   497.05   593.97   649.94   669.56
                              793.63   904.98  1009.19  1115.09  1206.69
                             1222.82  1298.24  1360.14  1418.40  1432.96
                             1524.57  1538.21  1559.98  1614.38  1618.53
                             1683.97  1746.75  1750.23  1871.32  1902.31
                             1929.62  1968.26  1981.50  2008.67  2024.81
                             2043.23  2114.26  2135.76  2155.30  2478.99
                             2645.93  4171.47  4194.49  4198.86  4356.99
                             4381.37  4424.83  4491.68  4498.49  4536.24
                             4568.56

 Zero-point correction=                           0.157949 (Hartree/Particle)
 Thermal correction to Energy=                    0.166786
 Thermal correction to Enthalpy=                  0.167730
 Thermal correction to Gibbs Free Energy=         0.123995
 Sum of electronic and zero-point Energies=           -423.045201
 Sum of electronic and thermal Energies=              -423.036364
 Sum of electronic and thermal Enthalpies=            -423.035419
 Sum of electronic and thermal Free Energies=         -423.079154

                     E (Thermal)             CV                S
                      KCal/Mol        Cal/Mol-Kelvin    Cal/Mol-Kelvin
 Total                  104.660             32.658             92.048
 Electronic               0.000              0.000              0.000
 Translational            0.889              2.981             40.409
 Rotational               0.889              2.981             28.979
 Vibrational            102.882             26.696             22.661
 Vibration     1          0.597              1.972              4.347
 Vibration     2          0.605              1.946              3.384
 Vibration     3          0.619              1.901              2.657
 Vibration     4          0.629              1.866              2.325
 Vibration     5          0.654              1.790              1.852
 Vibration     6          0.682              1.705              1.515
 Vibration     7          0.724              1.584              1.187
 Vibration     8          0.777              1.442              0.917
 Vibration     9          0.810              1.357              0.791
 Vibration    10          0.823              1.327              0.751
 Vibration    11          0.907              1.136              0.541

 Optimization completed on the basis of negligible forces.
    -- Stationary point found.
 Normal termination of Gaussian 09 at Tue Jan 28 02:33:26 2020.
