 Gaussian 09, Revision D.01,
 Gaussian 09:  ES64L-G09RevD.01 24-Apr-2013

 -----------------------------
 # b3lyp 6-31G(2df,p) opt Freq
 -----------------------------

 -----
 titel
 -----
 Symbolic Z-matrix:
 Charge =  0 Multiplicity = 1

 SCF Done:  E(RB3LYP) =  -423.198528103     A.U. after   14 cycles
 Optimization completed.
    -- Stationary point found.
 Normal termination of Gaussian 09 at Mon Jan 27 12:46:23 2020.

 ----------------------------------------------------------------------
 #N Geom=AllCheck Guess=TCheck SCRF=Check GenChk RB3LYP/6-31G(2df,p) Fr
 eq
 ----------------------------------------------------------------------

 Structure from the checkpoint file:  "/scratch/puck/g09_a78ae0c7-a594-4e66-b088-f554e19c912e/Gau-73876.chk"
 -----
 titel
 -----
 Charge =  0 Multiplicity = 1

                         Standard orientation:
 ---------------------------------------------------------------------
 Center     Atomic      Atomic             Coordinates (Angstroms)
 Number     Number       Type             X           Y           Z
 ---------------------------------------------------------------------
      1          6           0        2.423233    0.103610   -0.249920
      2          8           0        1.671904   -1.055493    0.121599
      3          6           0        0.366146   -0.669573    0.528230
      4          6           0       -0.733541   -1.412576   -0.251031
      5          8           0       -1.996068   -0.833472    0.043133
      6          6           0       -2.096205    0.514429   -0.382233
      7          6           0       -1.087264    1.426718    0.351938
      8          6           0        0.263812    0.803089    0.230410
      9          6           0        1.434095    1.238689   -0.224899
     10          1           0        3.259910    0.255128    0.452162
     11          1           0        2.863121   -0.055170   -1.245536
     12          1           0        0.224365   -0.876221    1.602495
     13          1           0       -0.507520   -1.351207   -1.327688
     14          1           0       -0.795094   -2.465605    0.035274
     15          1           0       -1.924645    0.582974   -1.468941
     16          1           0       -3.123976    0.824996   -0.175138
     17          1           0       -1.114222    2.439308   -0.063316
     18          1           0       -1.385123    1.487544    1.406944
     19          1           0        1.674844    2.243654   -0.549080
 ---------------------------------------------------------------------

 SCF Done:  E(RB3LYP) =  -423.198528103     A.U. after    1 cycles

 The electronic state is 1-A.
 Alpha  occ. eigenvalues --  -19.14334 -19.13475 -10.23374 -10.22996 -10.22826
 Alpha  occ. eigenvalues --  -10.22411 -10.19495 -10.18969 -10.18337  -1.04049
 Alpha  occ. eigenvalues --   -1.02834  -0.81285  -0.76178  -0.74972  -0.65651
 Alpha  occ. eigenvalues --   -0.62397  -0.58829  -0.54671  -0.49682  -0.48535
 Alpha  occ. eigenvalues --   -0.47327  -0.45974  -0.44736  -0.41888  -0.41376
 Alpha  occ. eigenvalues --   -0.40008  -0.38534  -0.36878  -0.33580  -0.32218
 Alpha  occ. eigenvalues --   -0.30578  -0.27273  -0.26705  -0.22352
 Alpha virt. eigenvalues --    0.01545   0.09858   0.10772   0.11893   0.12542
 Alpha virt. eigenvalues --    0.13636   0.14406   0.15810   0.16272   0.17150
 Alpha virt. eigenvalues --    0.17352   0.17874   0.18742   0.20558   0.22441

 Mulliken charges:
               1
     1  C   -0.111061
     2  O   -0.282205
     3  C    0.045474
     4  C   -0.103494
     5  O   -0.244818
     6  C   -0.066966
     7  C   -0.325291
     8  C    0.325441
     9  C   -0.258857
    10  H    0.102845
    11  H    0.107850
    12  H    0.081919
    13  H    0.091698
    14  H    0.112017
    15  H    0.093138
    16  H    0.109556
    17  H    0.105523
    18  H    0.117281
    19  H    0.099949
 Sum of Mulliken charges =   0.00000

 Dipole moment (field-independent basis, Debye):
    X=              0.0434    Y=              2.0839    Z=             -0.4721  Tot=              2.1372
 Quadrupole moment (field-independent basis, Debye-Ang):
   XX=            -54.2797   YY=            -52.7227   ZZ=            -52.5107
   XY=             -0.0082   XZ=             -0.4666   YZ=             -0.3353

  Exact polarizability:  96.577   2.060  75.466  -5.767  -2.453  61.764
 Approx polarizability: 135.323   7.010 108.929 -14.394  -6.584  97.228

                      1                      2                      3
                      A                      A                      A
 Frequencies --    108.0793               166.4128               257.7093
 Red. masses --      3.3258                 2.6459                 2.2428
 Frc consts  --      0.0229                 0.0432                 0.0878
 IR Inten    --      1.2444                 1.2215                 6.3320

                      4                      5                      6
                      A                      A                      A
 Frequencies --    324.7851               351.0867               374.7560
 Red. masses --      2.9193                 3.4334                 2.2755
 Frc consts  --      0.1814                 0.2493                 0.1883
 IR Inten    --      1.9868                 3.6591                 2.7002

                      7                      8                      9
                      A                      A                      A
 Frequencies --    444.7709               497.9129               606.9514
 Red. masses --      3.9817                 3.6853                 3.5776
 Frc consts  --      0.4641                 0.5383                 0.7765
 IR Inten    --      0.1530                 2.5857                 2.3605

                     10                     11                     12
                      A                      A                      A
 Frequencies --    679.4048               771.9706               809.7180
 Red. masses --      2.3230                 6.8895                 2.0151
 Frc consts  --      0.6318                 2.4190                 0.7784
 IR Inten    --     12.5805                 7.3191                 2.8387

                     13                     14                     15
                      A                      A                      A
 Frequencies --    822.7892               865.4818               915.1721
 Red. masses --      1.3612                 2.6322                 2.3432
 Frc consts  --      0.5429                 1.1617                 1.1563
 IR Inten    --      5.8617                 7.3883                 7.4362

                     16                     17                     18
                      A                      A                      A
 Frequencies --    940.5066               968.4692              1006.5154
 Red. masses --      2.7019                 3.0176                 2.7311
 Frc consts  --      1.4081                 1.6676                 1.6302
 IR Inten    --      5.2957                19.1871                19.0390

                     19                     20                     21
                      A                      A                      A
 Frequencies --   1034.5994              1047.3135              1075.1436
 Red. masses --      1.5945                 1.7228                 3.3146
 Frc consts  --      1.0056                 1.1134                 2.2574
 IR Inten    --     15.9864                 5.1494                29.8175

                     22                     23                     24
                      A                      A                      A
 Frequencies --   1111.2181              1116.6096              1126.5984
 Red. masses --      2.0913                 6.0250                 4.7792
 Frc consts  --      1.5215                 4.4260                 3.5739
 IR Inten    --      2.8928                99.8541                48.5839

                     25                     26                     27
                      A                      A                      A
 Frequencies --   1194.6564              1199.3675              1203.0216
 Red. masses --      1.1886                 1.2985                 1.6548
 Frc consts  --      0.9995                 1.1005                 1.4110
 IR Inten    --      2.0246                 2.0590                 3.3401

                     28                     29                     30
                      A                      A                      A
 Frequencies --   1237.1043              1290.2869              1305.5625
 Red. masses --      1.3765                 1.2910                 1.3701
 Frc consts  --      1.2412                 1.2663                 1.3759
 IR Inten    --     27.3257                 1.0251                 3.1216

                     31                     32                     33
                      A                      A                      A
 Frequencies --   1327.3981              1345.0083              1365.4577
 Red. masses --      1.3957                 1.3556                 1.5379
 Frc consts  --      1.4489                 1.4449                 1.6894
 IR Inten    --      5.5491                 6.7038                 5.8405

                     34                     35                     36
                      A                      A                      A
 Frequencies --   1375.7467              1387.1040              1411.2354
 Red. masses --      1.4491                 1.4414                 1.3354
 Frc consts  --      1.6159                 1.6340                 1.5670
 IR Inten    --      8.8239                 3.5091                 9.4424

                     37                     38                     39
                      A                      A                      A
 Frequencies --   1471.6663              1492.0288              1503.2181
 Red. masses --      1.1061                 1.0802                 1.1009
 Frc consts  --      1.4114                 1.4168                 1.4657
 IR Inten    --      4.4490                 0.1093                 4.0256

                     40                     41                     42
                      A                      A                      A
 Frequencies --   1523.8945              1738.0143              2956.4603
 Red. masses --      1.0865                 7.9875                 1.0791
 Frc consts  --      1.4865                14.2157                 5.5570
 IR Inten    --      1.7383                 4.0535                53.0562

                     43                     44                     45
                      A                      A                      A
 Frequencies --   2965.7577              2974.1799              2984.7550
 Red. masses --      1.0702                 1.0698                 1.0692
 Frc consts  --      5.5461                 5.5754                 5.6122
 IR Inten    --     89.1384                31.4555                68.9336

                     46                     47                     48
                      A                      A                      A
 Frequencies --   3002.0127              3022.7048              3083.0052
 Red. masses --      1.0924                 1.0630                 1.0978
 Frc consts  --      5.8003                 5.7222                 6.1476
 IR Inten    --     54.7567                26.3613                29.0110

                     49                     50                     51
                      A                      A                      A
 Frequencies --   3091.0322              3098.5159              3210.5595
 Red. masses --      1.0951                 1.0962                 1.0954
 Frc consts  --      6.1644                 6.2010                 6.6523
 IR Inten    --     38.8352                34.2129                 7.0183

 - Thermochemistry -
 -------------------
 Temperature   298.150 Kelvin.  Pressure   1.00000 Atm.
 Atom     1 has atomic number  6 and mass  12.00000

 Molecular mass:   126.06808 amu.
 Principal axes and moments of inertia in atomic units:
                           1         2         3
     Eigenvalues --   555.017001211.091991621.60334
           X            0.99996  -0.00873  -0.00167
           Y            0.00873   0.99996   0.00140
           Z            0.00166  -0.00141   1.00000
 This molecule is an asymmetric top.
 Rotational symmetry number  1.
 Warning -- assumption of classical behavior for rotation
           may cause significant error
 Rotational temperatures (Kelvin)      0.15606     0.07152     0.05341
 Rotational constants (GHZ):           3.25169     1.49018     1.11294
 Zero-point vibrational energy     425773.2 (Joules/Mol)
                                  101.76225 (Kcal/Mol)
 Warning -- explicit consideration of   9 degrees of freedom as
           vibrations may cause significant error
 Vibrational temperatures:    155.50   239.43   370.79   467.29   505.13
          (Kelvin)            539.19   639.93   716.38   873.27   977.51
                             1110.69  1165.00  1183.81  1245.23  1316.73
                             1353.18  1393.41  1448.15  1488.56  1506.85
                             1546.89  1598.79  1606.55  1620.92  1718.84
                             1725.62  1730.88  1779.91  1856.43  1878.41
                             1909.83  1935.16  1964.59  1979.39  1995.73
                             2030.45  2117.40  2146.69  2162.79  2192.54
                             2500.61  4253.68  4267.06  4279.18  4294.39
                             4319.22  4348.99  4435.75  4447.30  4458.07
                             4619.27

 Zero-point correction=                           0.162168 (Hartree/Particle)
 Thermal correction to Energy=                    0.169459
 Thermal correction to Enthalpy=                  0.170403
 Thermal correction to Gibbs Free Energy=         0.130437
 Sum of electronic and zero-point Energies=           -423.036360
 Sum of electronic and thermal Energies=              -423.029069
 Sum of electronic and thermal Enthalpies=            -423.028125
 Sum of electronic and thermal Free Energies=         -423.068091

                     E (Thermal)             CV                S
                      KCal/Mol        Cal/Mol-Kelvin    Cal/Mol-Kelvin
 Total                  106.337             28.887             84.116
 Electronic               0.000              0.000              0.000
 Translational            0.889              2.981             40.409
 Rotational               0.889              2.981             28.479
 Vibrational            104.560             22.925             15.228
 Vibration     1          0.606              1.943              3.303
 Vibration     2          0.624              1.884              2.476
 Vibration     3          0.667              1.750              1.677
 Vibration     4          0.709              1.626              1.286
 Vibration     5          0.728              1.573              1.161
 Vibration     6          0.746              1.524              1.060
 Vibration     7          0.804              1.372              0.812
 Vibration     8          0.853              1.255              0.663
 Vibration     9          0.966              1.017              0.438

 Normal termination of Gaussian 09 at Mon Jan 27 13:28:42 2020.
