 Gaussian 09, Revision D.01,
 Gaussian 09:  ES64L-G09RevD.01 24-Apr-2013

 -----------------------------
 # b3lyp 6-31G(2df,p) opt Freq
 -----------------------------

 -----
 titel
 -----
 Symbolic Z-matrix:
 Charge =  0 Multiplicity = 1

 SCF Done:  E(RB3LYP) =  -423.188005138     A.U. after   14 cycles
 Optimization completed.
    -- Stationary point found.
 Normal termination of Gaussian 09 at Tue Jan 28 09:14:47 2020.

 ----------------------------------------------------------------------
 #N Geom=AllCheck Guess=TCheck SCRF=Check GenChk RB3LYP/6-31G(2df,p) Fr
 eq
 ----------------------------------------------------------------------

 Structure from the checkpoint file:  "/scratch/puck/g09_8d8bac74-07a3-4555-8a95-655eed7eb160/Gau-130456.chk"
 -----
 titel
 -----
 Charge =  0 Multiplicity = 1

                         Standard orientation:
 ---------------------------------------------------------------------
 Center     Atomic      Atomic             Coordinates (Angstroms)
 Number     Number       Type             X           Y           Z
 ---------------------------------------------------------------------
      1          6           0       -2.659570   -0.029977    0.341151
      2          6           0       -1.615832   -0.882056   -0.389662
      3          6           0       -0.199891   -0.427422   -0.167027
      4          6           0        0.985965   -1.203317   -0.781659
      5          6           0        2.166040   -0.466078   -0.063150
      6          6           0        1.331548    0.529294    0.762088
      7          8           0        0.227959   -0.302434    1.245781
      8          6           0        0.293728    1.040775   -0.258416
      9          8           0       -0.089772    2.078224   -0.702527
     10          1           0       -2.475224   -0.035501    1.418406
     11          1           0       -2.626692    1.007661   -0.002324
     12          1           0       -3.666455   -0.417227    0.162086
     13          1           0       -1.695830   -1.932906   -0.082568
     14          1           0       -1.798263   -0.864727   -1.471507
     15          1           0        0.931613   -2.262499   -0.518355
     16          1           0        1.019558   -1.116713   -1.871269
     17          1           0        2.739441   -1.130431    0.586457
     18          1           0        2.854729    0.030850   -0.751807
     19          1           0        1.799703    1.147861    1.524903
 ---------------------------------------------------------------------

 SCF Done:  E(RB3LYP) =  -423.188005138     A.U. after    1 cycles

 The electronic state is 1-A.
 Alpha  occ. eigenvalues --  -19.15701 -19.14719 -10.27508 -10.24785 -10.24599
 Alpha  occ. eigenvalues --  -10.19917 -10.19779 -10.19380 -10.17357  -1.07474
 Alpha  occ. eigenvalues --   -1.04447  -0.80566  -0.78687  -0.70966  -0.68177
 Alpha  occ. eigenvalues --   -0.62639  -0.58746  -0.51067  -0.50366  -0.48160
 Alpha  occ. eigenvalues --   -0.46528  -0.45851  -0.42590  -0.41276  -0.39870
 Alpha  occ. eigenvalues --   -0.38614  -0.36969  -0.36487  -0.35627  -0.35193
 Alpha  occ. eigenvalues --   -0.34184  -0.33536  -0.27220  -0.24304
 Alpha virt. eigenvalues --   -0.01137   0.07597   0.09533   0.11542   0.12037
 Alpha virt. eigenvalues --    0.12498   0.14300   0.14752   0.16301   0.16450
 Alpha virt. eigenvalues --    0.17265   0.18076   0.19119   0.20205   0.21276

 Mulliken charges:
               1
     1  C   -0.396491
     2  C   -0.298722
     3  C    0.303805
     4  C   -0.273350
     5  C   -0.236258
     6  C   -0.035687
     7  O   -0.330235
     8  C    0.412308
     9  O   -0.323653
    10  H    0.135431
    11  H    0.141269
    12  H    0.111587
    13  H    0.111101
    14  H    0.115299
    15  H    0.114525
    16  H    0.113412
    17  H    0.118040
    18  H    0.115589
    19  H    0.102031
 Sum of Mulliken charges =   0.00000

 Dipole moment (field-independent basis, Debye):
    X=              1.0807    Y=             -2.0459    Z=             -0.4522  Tot=              2.3576
 Quadrupole moment (field-independent basis, Debye-Ang):
   XX=            -48.8649   YY=            -57.6513   ZZ=            -54.3638
   XY=              1.6712   XZ=              0.7069   YZ=              3.6047

  Exact polarizability:  84.412   0.029  74.422   2.813   1.048  65.813
 Approx polarizability: 108.335  -0.222 116.098   4.444  -6.931 108.642

                      1                      2                      3
                      A                      A                      A
 Frequencies --     78.4099               151.4332               164.9414
 Red. masses --      2.3089                 3.3994                 3.9379
 Frc consts  --      0.0084                 0.0459                 0.0631
 IR Inten    --      0.4533                 3.3970                 3.7492

                      4                      5                      6
                      A                      A                      A
 Frequencies --    197.6239               242.3899               275.0146
 Red. masses --      1.5638                 1.5424                 2.1936
 Frc consts  --      0.0360                 0.0534                 0.0978
 IR Inten    --      1.5095                 0.1173                 0.7508

                      7                      8                      9
                      A                      A                      A
 Frequencies --    389.5039               468.3362               479.0783
 Red. masses --      3.3263                 3.2428                 3.8412
 Frc consts  --      0.2973                 0.4191                 0.5194
 IR Inten    --      0.8665                 4.2464                 7.3002

                     10                     11                     12
                      A                      A                      A
 Frequencies --    625.6080               642.2048               722.2628
 Red. masses --      3.5818                 3.2166                 4.7298
 Frc consts  --      0.8260                 0.7816                 1.4537
 IR Inten    --      1.2003                 0.3542                 0.5821

                     13                     14                     15
                      A                      A                      A
 Frequencies --    750.9050               783.3832               829.0733
 Red. masses --      5.1809                 1.4265                 2.8709
 Frc consts  --      1.7212                 0.5158                 1.1627
 IR Inten    --      5.8236                 2.9591                55.9011

                     16                     17                     18
                      A                      A                      A
 Frequencies --    851.3549               909.5920               911.6593
 Red. masses --      1.4685                 4.4107                 2.4360
 Frc consts  --      0.6271                 2.1501                 1.1929
 IR Inten    --      4.0362                44.0491                 5.6883

                     19                     20                     21
                      A                      A                      A
 Frequencies --    954.9362               961.9427              1003.3110
 Red. masses --      2.9627                 1.7691                 2.1966
 Frc consts  --      1.5918                 0.9645                 1.3028
 IR Inten    --      8.8214                 7.5556                 1.9437

                     22                     23                     24
                      A                      A                      A
 Frequencies --   1005.7779              1063.1204              1105.8106
 Red. masses --      4.1209                 2.1731                 1.2617
 Frc consts  --      2.4561                 1.4471                 0.9090
 IR Inten    --      5.3940                 6.7363                 1.7480

                     25                     26                     27
                      A                      A                      A
 Frequencies --   1127.0385              1158.2192              1192.1856
 Red. masses --      2.2006                 1.9326                 1.5997
 Frc consts  --      1.6469                 1.5274                 1.3396
 IR Inten    --      7.4191                 2.0631                 4.4034

                     28                     29                     30
                      A                      A                      A
 Frequencies --   1231.9214              1251.9010              1262.2390
 Red. masses --      1.3752                 1.5462                 1.3669
 Frc consts  --      1.2297                 1.4277                 1.2831
 IR Inten    --      3.4452                 1.4620                 5.4354

                     31                     32                     33
                      A                      A                      A
 Frequencies --   1305.8077              1312.3578              1347.0259
 Red. masses --      1.3780                 1.3852                 1.6947
 Frc consts  --      1.3844                 1.4056                 1.8118
 IR Inten    --      0.6218                 0.1996                 4.7142

                     34                     35                     36
                      A                      A                      A
 Frequencies --   1392.4267              1413.1755              1468.2693
 Red. masses --      2.4736                 1.2376                 1.0791
 Frc consts  --      2.8257                 1.4562                 1.3707
 IR Inten    --      1.5151                 4.3900                 0.8654

                     37                     38                     39
                      A                      A                      A
 Frequencies --   1478.1474              1496.5345              1497.1686
 Red. masses --      1.0830                 1.1090                 1.0398
 Frc consts  --      1.3942                 1.4634                 1.3733
 IR Inten    --      0.8897                 2.8446                 7.4919

                     40                     41                     42
                      A                      A                      A
 Frequencies --   1511.5136              1911.5702              3024.3524
 Red. masses --      1.0626                12.5200                 1.0608
 Frc consts  --      1.4303                26.9547                 5.7169
 IR Inten    --      5.4781               280.6786                19.2851

                     43                     44                     45
                      A                      A                      A
 Frequencies --   3049.2734              3059.0277              3060.3676
 Red. masses --      1.0349                 1.0905                 1.0671
 Frc consts  --      5.6695                 6.0124                 5.8885
 IR Inten    --     21.5339                12.1081                23.3836

                     46                     47                     48
                      A                      A                      A
 Frequencies --   3070.5180              3105.4742              3120.1640
 Red. masses --      1.0600                 1.1074                 1.1019
 Frc consts  --      5.8879                 6.2925                 6.3206
 IR Inten    --     25.0189                 1.3541                24.6524

                     49                     50                     51
                      A                      A                      A
 Frequencies --   3123.6757              3128.8785              3154.2312
 Red. masses --      1.1067                 1.1024                 1.0918
 Frc consts  --      6.3623                 6.3584                 6.4003
 IR Inten    --     23.0883                18.5918                21.4397

 - Thermochemistry -
 -------------------
 Temperature   298.150 Kelvin.  Pressure   1.00000 Atm.
 Atom     1 has atomic number  6 and mass  12.00000

 Molecular mass:   126.06808 amu.
 Principal axes and moments of inertia in atomic units:
                           1         2         3
     Eigenvalues --   698.652671156.764261410.76631
           X            0.99997  -0.00109  -0.00741
           Y            0.00168   0.99684   0.07941
           Z            0.00730  -0.07942   0.99681
 This molecule is an asymmetric top.
 Rotational symmetry number  1.
 Warning -- assumption of classical behavior for rotation
           may cause significant error
 Rotational temperatures (Kelvin)      0.12397     0.07488     0.06139
 Rotational constants (GHZ):           2.58317     1.56016     1.27926
 Zero-point vibrational energy     417623.1 (Joules/Mol)
                                   99.81433 (Kcal/Mol)
 Warning -- explicit consideration of   9 degrees of freedom as
           vibrations may cause significant error
 Vibrational temperatures:    112.81   217.88   237.31   284.34   348.74
          (Kelvin)            395.68   560.41   673.83   689.29   900.11
                              923.99  1039.17  1080.38  1127.11  1192.85
                             1224.91  1308.70  1311.67  1373.94  1384.02
                             1443.54  1447.09  1529.59  1591.01  1621.56
                             1666.42  1715.29  1772.46  1801.20  1816.08
                             1878.76  1888.19  1938.07  2003.39  2033.24
                             2112.51  2126.72  2153.18  2154.09  2174.73
                             2750.32  4351.36  4387.22  4401.25  4403.18
                             4417.79  4468.08  4489.21  4494.27  4501.75
                             4538.23

 Zero-point correction=                           0.159064 (Hartree/Particle)
 Thermal correction to Energy=                    0.167444
 Thermal correction to Enthalpy=                  0.168389
 Thermal correction to Gibbs Free Energy=         0.126055
 Sum of electronic and zero-point Energies=           -423.028941
 Sum of electronic and thermal Energies=              -423.020561
 Sum of electronic and thermal Enthalpies=            -423.019617
 Sum of electronic and thermal Free Energies=         -423.061950

                     E (Thermal)             CV                S
                      KCal/Mol        Cal/Mol-Kelvin    Cal/Mol-Kelvin
 Total                  105.073             31.867             89.098
 Electronic               0.000              0.000              0.000
 Translational            0.889              2.981             40.409
 Rotational               0.889              2.981             28.524
 Vibrational            103.295             25.905             20.165
 Vibration     1          0.600              1.964              3.930
 Vibration     2          0.619              1.901              2.654
 Vibration     3          0.623              1.886              2.492
 Vibration     4          0.637              1.843              2.155
 Vibration     5          0.659              1.775              1.785
 Vibration     6          0.677              1.720              1.564
 Vibration     7          0.757              1.493              1.002
 Vibration     8          0.826              1.320              0.742
 Vibration     9          0.836              1.296              0.713

 Optimization completed.
    -- Stationary point found.
 Normal termination of Gaussian 09 at Tue Jan 28 09:56:12 2020.
