 Gaussian 09, Revision D.01,
 Gaussian 09:  ES64L-G09RevD.01 24-Apr-2013

 -----------------------------
 # b3lyp 6-31G(2df,p) opt Freq
 -----------------------------

 -----
 titel
 -----
 Symbolic Z-matrix:
 Charge =  0 Multiplicity = 1

 SCF Done:  E(RB3LYP) =  -423.156070526     A.U. after   13 cycles
 Optimization completed.
    -- Stationary point found.
 Normal termination of Gaussian 09 at Mon Jan 27 18:10:11 2020.

 ----------------------------------------------------------------------
 #N Geom=AllCheck Guess=TCheck SCRF=Check GenChk RB3LYP/6-31G(2df,p) Fr
 eq
 ----------------------------------------------------------------------

 Structure from the checkpoint file:  "/scratch/puck/g09_6e01931b-47aa-4e37-b433-6a73736954f4/Gau-53086.chk"
 -----
 titel
 -----
 Charge =  0 Multiplicity = 1

                         Standard orientation:
 ---------------------------------------------------------------------
 Center     Atomic      Atomic             Coordinates (Angstroms)
 Number     Number       Type             X           Y           Z
 ---------------------------------------------------------------------
      1          8           0       -2.248471   -0.549349   -0.400609
      2          6           0       -0.922483   -0.219829   -0.072020
      3          6           0       -0.694050    0.625719    1.228931
      4          6           0        0.123595    1.630057    0.405182
      5          6           0        1.174811    0.973832   -0.460639
      6          6           0        1.936386   -0.304492   -0.157828
      7          8           0        1.165374   -1.307766    0.481458
      8          6           0       -0.110076   -1.511225   -0.101071
      9          6           0       -0.262395    0.915640   -0.893098
     10          1           0       -2.751573    0.268217   -0.478782
     11          1           0       -1.646078    1.061939    1.547276
     12          1           0       -0.214284    0.137819    2.080015
     13          1           0        0.163506    2.696702    0.594150
     14          1           0        1.774580    1.693536   -1.014359
     15          1           0        2.344714   -0.690417   -1.109079
     16          1           0        2.782149   -0.112794    0.511239
     17          1           0       -0.027956   -1.877879   -1.137232
     18          1           0       -0.604358   -2.279269    0.500638
     19          1           0       -0.630659    1.300850   -1.837400
 ---------------------------------------------------------------------

 SCF Done:  E(RB3LYP) =  -423.156070526     A.U. after    1 cycles

 The electronic state is 1-A.
 Alpha  occ. eigenvalues --  -19.14172 -19.13668 -10.23657 -10.22742 -10.21858
 Alpha  occ. eigenvalues --  -10.19619 -10.19542 -10.18825 -10.17865  -1.03630
 Alpha  occ. eigenvalues --   -1.02205  -0.89124  -0.76227  -0.69580  -0.67437
 Alpha  occ. eigenvalues --   -0.62335  -0.55570  -0.54031  -0.52647  -0.47872
 Alpha  occ. eigenvalues --   -0.47278  -0.46106  -0.43334  -0.42545  -0.40369
 Alpha  occ. eigenvalues --   -0.38150  -0.37728  -0.36482  -0.32405  -0.30686
 Alpha  occ. eigenvalues --   -0.28862  -0.27714  -0.25320  -0.23758
 Alpha virt. eigenvalues --    0.07606   0.08703   0.10414   0.11871   0.13416
 Alpha virt. eigenvalues --    0.14384   0.15355   0.15828   0.16410   0.16825
 Alpha virt. eigenvalues --    0.17503   0.18085   0.19038   0.20407   0.23912

 Mulliken charges:
               1
     1  O   -0.492680
     2  C    0.392149
     3  C   -0.288899
     4  C   -0.079613
     5  C   -0.033502
     6  C   -0.104019
     7  O   -0.246216
     8  C   -0.108788
     9  C   -0.174327
    10  H    0.277744
    11  H    0.090449
    12  H    0.109488
    13  H    0.084406
    14  H    0.089875
    15  H    0.087733
    16  H    0.109048
    17  H    0.091199
    18  H    0.114763
    19  H    0.081191
 Sum of Mulliken charges =   0.00000

 Dipole moment (field-independent basis, Debye):
    X=             -0.1117    Y=              2.2015    Z=             -0.8211  Tot=              2.3523
 Quadrupole moment (field-independent basis, Debye-Ang):
   XX=            -51.5523   YY=            -53.3665   ZZ=            -53.2417
   XY=             -1.5779   XZ=             -1.5077   YZ=             -0.1400

  Exact polarizability:  80.674   1.269  73.657  -2.227   1.204  67.918
 Approx polarizability: 114.437   2.764 105.460   0.272   1.992 106.280

                      1                      2                      3
                      A                      A                      A
 Frequencies --    186.8763               267.7634               283.7626
 Red. masses --      2.4886                 2.1004                 2.5862
 Frc consts  --      0.0512                 0.0887                 0.1227
 IR Inten    --      1.0631                10.5182                23.8451

                      4                      5                      6
                      A                      A                      A
 Frequencies --    300.8475               370.0319               376.1027
 Red. masses --      1.5098                 2.2870                 3.3609
 Frc consts  --      0.0805                 0.1845                 0.2801
 IR Inten    --     56.9748                 4.5368                 3.3676

                      7                      8                      9
                      A                      A                      A
 Frequencies --    410.7509               485.3776               542.6352
 Red. masses --      3.0120                 4.3895                 3.0777
 Frc consts  --      0.2994                 0.6093                 0.5339
 IR Inten    --      5.2531                 1.2952                 1.1730

                     10                     11                     12
                      A                      A                      A
 Frequencies --    616.8139               720.5022               758.3070
 Red. masses --      4.8026                 2.5994                 3.1519
 Frc consts  --      1.0766                 0.7951                 1.0679
 IR Inten    --      2.2770                 2.5061                13.1751

                     13                     14                     15
                      A                      A                      A
 Frequencies --    770.7009               834.7186               882.8786
 Red. masses --      2.1968                 2.2105                 1.8294
 Frc consts  --      0.7688                 0.9075                 0.8402
 IR Inten    --      4.8111                 6.7774                 6.8401

                     16                     17                     18
                      A                      A                      A
 Frequencies --    898.3118               949.6319               966.9452
 Red. masses --      2.5365                 2.4404                 2.3578
 Frc consts  --      1.2060                 1.2966                 1.2988
 IR Inten    --     13.4426                32.6424                 5.9038

                     19                     20                     21
                      A                      A                      A
 Frequencies --    978.1224               999.9372              1039.9622
 Red. masses --      1.3275                 2.1210                 2.1812
 Frc consts  --      0.7483                 1.2495                 1.3899
 IR Inten    --      6.4265                 0.6281                 3.0299

                     22                     23                     24
                      A                      A                      A
 Frequencies --   1049.6182              1071.8146              1093.1506
 Red. masses --      1.4152                 1.8921                 1.7958
 Frc consts  --      0.9186                 1.2806                 1.2644
 IR Inten    --      0.4404                54.1787                12.5910

                     25                     26                     27
                      A                      A                      A
 Frequencies --   1127.4761              1134.1627              1164.1695
 Red. masses --      1.7360                 1.9185                 1.7039
 Frc consts  --      1.3002                 1.4540                 1.3606
 IR Inten    --      1.8296                 9.8949                27.1018

                     28                     29                     30
                      A                      A                      A
 Frequencies --   1176.2611              1202.2450              1240.1318
 Red. masses --      2.8427                 2.5817                 1.4774
 Frc consts  --      2.3174                 2.1986                 1.3387
 IR Inten    --     69.8372                31.8234                 2.1870

                     31                     32                     33
                      A                      A                      A
 Frequencies --   1258.5653              1292.2786              1313.9968
 Red. masses --      1.2770                 1.8539                 1.2533
 Frc consts  --      1.1917                 1.8241                 1.2750
 IR Inten    --     17.1379                30.9990                 1.8049

                     34                     35                     36
                      A                      A                      A
 Frequencies --   1325.8797              1376.0012              1385.3236
 Red. masses --      1.4531                 1.4557                 2.0334
 Frc consts  --      1.5050                 1.6239                 2.2991
 IR Inten    --      2.7396                33.6576                25.8638

                     37                     38                     39
                      A                      A                      A
 Frequencies --   1420.1581              1444.0495              1484.8784
 Red. masses --      1.6166                 2.0469                 1.1309
 Frc consts  --      1.9210                 2.5148                 1.4692
 IR Inten    --      6.6769                 3.5966                 3.1810

                     40                     41                     42
                      A                      A                      A
 Frequencies --   1491.4870              1499.2863              2945.3368
 Red. masses --      1.0862                 1.1011                 1.0716
 Frc consts  --      1.4237                 1.4583                 5.4771
 IR Inten    --      0.1666                 2.1027                76.8711

                     43                     44                     45
                      A                      A                      A
 Frequencies --   2978.3418              3052.5258              3064.1193
 Red. masses --      1.0688                 1.0593                 1.0898
 Frc consts  --      5.5862                 5.8155                 6.0286
 IR Inten    --     62.7720                34.8477                33.8387

                     46                     47                     48
                      A                      A                      A
 Frequencies --   3090.3169              3112.9600              3132.3477
 Red. masses --      1.0941                 1.1062                 1.0866
 Frc consts  --      6.1561                 6.3159                 6.2813
 IR Inten    --     24.6170                21.6597                15.1230

                     49                     50                     51
                      A                      A                      A
 Frequencies --   3167.3405              3179.2881              3805.7069
 Red. masses --      1.0885                 1.0973                 1.0660
 Frc consts  --      6.4336                 6.5349                 9.0966
 IR Inten    --     20.5019                21.2399                14.1741

 - Thermochemistry -
 -------------------
 Temperature   298.150 Kelvin.  Pressure   1.00000 Atm.
 Atom     1 has atomic number  8 and mass  15.99491

 Molecular mass:   126.06808 amu.
 Principal axes and moments of inertia in atomic units:
                           1         2         3
     Eigenvalues --   697.94155 938.538021252.72798
           X            0.99971  -0.00489  -0.02343
           Y            0.00516   0.99992   0.01126
           Z            0.02338  -0.01138   0.99966
 This molecule is an asymmetric top.
 Rotational symmetry number  1.
 Warning -- assumption of classical behavior for rotation
           may cause significant error
 Rotational temperatures (Kelvin)      0.12410     0.09229     0.06914
 Rotational constants (GHZ):           2.58581     1.92293     1.44065
 Zero-point vibrational energy     423000.7 (Joules/Mol)
                                  101.09960 (Kcal/Mol)
 Warning -- explicit consideration of  10 degrees of freedom as
           vibrations may cause significant error
 Vibrational temperatures:    268.87   385.25   408.27   432.85   532.39
          (Kelvin)            541.13   590.98   698.35   780.73   887.46
                             1036.64  1091.03  1108.87  1200.97  1270.26
                             1292.47  1366.31  1391.22  1407.30  1438.68
                             1496.27  1510.16  1542.10  1572.80  1622.18
                             1631.81  1674.98  1692.38  1729.76  1784.27
                             1810.79  1859.30  1890.55  1907.64  1979.76
                             1993.17  2043.29  2077.66  2136.41  2145.91
                             2157.14  4237.68  4285.16  4391.90  4408.58
                             4446.27  4478.85  4506.74  4557.09  4574.28
                             5475.56

 Zero-point correction=                           0.161112 (Hartree/Particle)
 Thermal correction to Energy=                    0.168347
 Thermal correction to Enthalpy=                  0.169291
 Thermal correction to Gibbs Free Energy=         0.130060
 Sum of electronic and zero-point Energies=           -422.994958
 Sum of electronic and thermal Energies=              -422.987724
 Sum of electronic and thermal Enthalpies=            -422.986779
 Sum of electronic and thermal Free Energies=         -423.026010

                     E (Thermal)             CV                S
                      KCal/Mol        Cal/Mol-Kelvin    Cal/Mol-Kelvin
 Total                  105.639             30.170             82.568
 Electronic               0.000              0.000              0.000
 Translational            0.889              2.981             40.409
 Rotational               0.889              2.981             28.197
 Vibrational            103.862             24.209             13.963
 Vibration     1          0.632              1.858              2.259
 Vibration     2          0.673              1.732              1.611
 Vibration     3          0.682              1.704              1.511
 Vibration     4          0.693              1.672              1.412
 Vibration     5          0.742              1.534              1.080
 Vibration     6          0.747              1.521              1.055
 Vibration     7          0.775              1.447              0.924
 Vibration     8          0.841              1.282              0.696
 Vibration     9          0.898              1.156              0.560
 Vibration    10          0.976              0.996              0.422

 Optimization completed.
    -- Stationary point found.
 Normal termination of Gaussian 09 at Mon Jan 27 18:57:44 2020.
