 Gaussian 09, Revision D.01,
 Gaussian 09:  ES64L-G09RevD.01 24-Apr-2013

 -----------------------------
 # b3lyp 6-31G(2df,p) opt Freq
 -----------------------------

 -----
 titel
 -----
 Symbolic Z-matrix:
 Charge =  0 Multiplicity = 1

 SCF Done:  E(RB3LYP) =  -423.160011734     A.U. after   14 cycles
 Optimization completed.
    -- Stationary point found.
 Normal termination of Gaussian 09 at Mon Jan 27 16:24:57 2020.

 ----------------------------------------------------------------------
 #N Geom=AllCheck Guess=TCheck SCRF=Check GenChk RB3LYP/6-31G(2df,p) Fr
 eq
 ----------------------------------------------------------------------

 Structure from the checkpoint file:  "/scratch/puck/g09_c6551a4b-6132-4727-9226-c593e4f2ce28/Gau-76283.chk"
 -----
 titel
 -----
 Charge =  0 Multiplicity = 1

                         Standard orientation:
 ---------------------------------------------------------------------
 Center     Atomic      Atomic             Coordinates (Angstroms)
 Number     Number       Type             X           Y           Z
 ---------------------------------------------------------------------
      1          6           0       -1.079657    1.196321    1.249983
      2          6           0       -0.830163    0.180934    0.147942
      3          6           0       -1.929539   -0.792593   -0.203607
      4          6           0       -1.575512    0.322543   -1.157222
      5          6           0        0.587651   -0.317894    0.074772
      6          6           0        1.030665   -1.491443    0.864888
      7          8           0        0.820675   -1.603662   -0.532690
      8          6           0        1.678260    0.647193   -0.300491
      9          8           0        1.551493    1.840677   -0.388209
     10          1           0       -0.857067    0.772482    2.236582
     11          1           0       -0.462265    2.086469    1.109765
     12          1           0       -2.129762    1.503526    1.251113
     13          1           0       -1.646044   -1.798508   -0.489141
     14          1           0       -2.855133   -0.717593    0.356851
     15          1           0       -1.059008    0.050312   -2.071286
     16          1           0       -2.256660    1.160095   -1.259480
     17          1           0        2.065704   -1.582536    1.192303
     18          1           0        0.287768   -1.977628    1.494607
     19          1           0        2.644886    0.136893   -0.511711
 ---------------------------------------------------------------------

 SCF Done:  E(RB3LYP) =  -423.160011734     A.U. after    1 cycles

 The electronic state is 1-A.
 Alpha  occ. eigenvalues --  -19.17681 -19.14980 -10.27802 -10.25828 -10.25457
 Alpha  occ. eigenvalues --  -10.20729 -10.18639 -10.18585 -10.17891  -1.09711
 Alpha  occ. eigenvalues --   -1.05520  -0.86881  -0.73632  -0.70191  -0.67152
 Alpha  occ. eigenvalues --   -0.61812  -0.60224  -0.53587  -0.51053  -0.50544
 Alpha  occ. eigenvalues --   -0.47405  -0.45072  -0.44478  -0.42313  -0.41020
 Alpha  occ. eigenvalues --   -0.40153  -0.38901  -0.36565  -0.36271  -0.33204
 Alpha  occ. eigenvalues --   -0.30049  -0.29703  -0.28010  -0.25390
 Alpha virt. eigenvalues --   -0.03753   0.08670   0.09801   0.10091   0.10994
 Alpha virt. eigenvalues --    0.12589   0.12882   0.13475   0.15775   0.16713
 Alpha virt. eigenvalues --    0.16807   0.19104   0.19885   0.20172   0.22596

 Mulliken charges:
               1
     1  C   -0.479612
     2  C    0.264471
     3  C   -0.312835
     4  C   -0.293064
     5  C    0.226361
     6  C   -0.216712
     7  O   -0.262703
     8  C    0.134497
     9  O   -0.253645
    10  H    0.109807
    11  H    0.150290
    12  H    0.115555
    13  H    0.127486
    14  H    0.109606
    15  H    0.120964
    16  H    0.115784
    17  H    0.124161
    18  H    0.132246
    19  H    0.087341
 Sum of Mulliken charges =   0.00000

 Dipole moment (field-independent basis, Debye):
    X=             -0.4366    Y=             -1.4337    Z=              1.6513  Tot=              2.2300
 Quadrupole moment (field-independent basis, Debye-Ang):
   XX=            -51.0940   YY=            -58.7763   ZZ=            -52.3059
   XY=             -3.8486   XZ=              1.3708   YZ=             -1.9615

  Exact polarizability:  80.029  -1.998  79.988   1.177  -4.505  67.058
 Approx polarizability: 106.031  -2.117 129.822   1.656  -6.969 102.614

                      1                      2                      3
                      A                      A                      A
 Frequencies --     65.1148               124.8016               179.1337
 Red. masses --      4.1046                 3.6114                 3.6656
 Frc consts  --      0.0103                 0.0331                 0.0693
 IR Inten    --      1.0166                 6.1587                 6.0009

                      4                      5                      6
                      A                      A                      A
 Frequencies --    202.6725               230.8644               269.4039
 Red. masses --      2.0216                 1.3886                 3.1088
 Frc consts  --      0.0489                 0.0436                 0.1329
 IR Inten    --      0.4046                 0.1866                 2.5822

                      7                      8                      9
                      A                      A                      A
 Frequencies --    311.9692               356.0980               372.8883
 Red. masses --      2.1121                 2.3067                 2.6364
 Frc consts  --      0.1211                 0.1723                 0.2160
 IR Inten    --      2.6617                 0.0613                 7.4863

                     10                     11                     12
                      A                      A                      A
 Frequencies --    436.7376               514.5731               553.7535
 Red. masses --      4.1872                 3.3561                 5.0944
 Frc consts  --      0.4706                 0.5236                 0.9204
 IR Inten    --      4.3399                 7.6030                 2.1931

                     13                     14                     15
                      A                      A                      A
 Frequencies --    637.8325               791.4634               849.9090
 Red. masses --      4.0348                 1.0402                 3.4897
 Frc consts  --      0.9671                 0.3839                 1.4852
 IR Inten    --     13.8121                 0.2688                23.7920

                     16                     17                     18
                      A                      A                      A
 Frequencies --    859.5339               876.6310               887.9032
 Red. masses --      2.9888                 2.0777                 2.2108
 Frc consts  --      1.3010                 0.9407                 1.0269
 IR Inten    --     14.6598                12.5299                12.1214

                     19                     20                     21
                      A                      A                      A
 Frequencies --    930.2220               957.4060               979.7920
 Red. masses --      1.5251                 1.7091                 2.0996
 Frc consts  --      0.7776                 0.9230                 1.1875
 IR Inten    --      8.1716                 4.4192                 9.4064

                     22                     23                     24
                      A                      A                      A
 Frequencies --   1036.4530              1052.6650              1074.7648
 Red. masses --      1.7556                 1.4982                 1.8804
 Frc consts  --      1.1111                 0.9781                 1.2797
 IR Inten    --      0.6609                11.3986                 2.0216

                     25                     26                     27
                      A                      A                      A
 Frequencies --   1089.0966              1129.8620              1135.6227
 Red. masses --      1.3949                 1.5815                 1.3586
 Frc consts  --      0.9748                 1.1895                 1.0323
 IR Inten    --      0.5849                 0.6419                 2.9601

                     28                     29                     30
                      A                      A                      A
 Frequencies --   1157.5329              1195.4166              1215.5630
 Red. masses --      1.3336                 1.2921                 2.4966
 Frc consts  --      1.0528                 1.0879                 2.1735
 IR Inten    --      1.9841                 0.2186                 9.5927

                     31                     32                     33
                      A                      A                      A
 Frequencies --   1298.8306              1326.5598              1380.4713
 Red. masses --      3.4579                 2.8257                 2.2423
 Frc consts  --      3.4369                 2.9297                 2.5177
 IR Inten    --      7.8590                 2.4099                 2.1911

                     34                     35                     36
                      A                      A                      A
 Frequencies --   1411.9753              1433.6515              1461.1168
 Red. masses --      1.2826                 1.5299                 1.0863
 Frc consts  --      1.5066                 1.8527                 1.3664
 IR Inten    --      4.5117                 8.6266                 4.0543

                     37                     38                     39
                      A                      A                      A
 Frequencies --   1488.5216              1497.3220              1514.3340
 Red. masses --      1.0490                 1.2855                 1.2195
 Frc consts  --      1.3694                 1.6980                 1.6477
 IR Inten    --      3.4185                 3.2159                 0.0424

                     40                     41                     42
                      A                      A                      A
 Frequencies --   1516.0370              1829.4183              2886.0635
 Red. masses --      1.1686                10.8351                 1.0841
 Frc consts  --      1.5824                21.3653                 5.3201
 IR Inten    --      6.7367               167.3134                98.6186

                     43                     44                     45
                      A                      A                      A
 Frequencies --   3030.5080              3085.1416              3095.1242
 Red. masses --      1.0396                 1.0495                 1.0975
 Frc consts  --      5.6255                 5.8856                 6.1945
 IR Inten    --     28.8833                18.1832                23.6442

                     46                     47                     48
                      A                      A                      A
 Frequencies --   3129.3604              3134.0382              3138.7671
 Red. masses --      1.0992                 1.0520                 1.0575
 Frc consts  --      6.3420                 6.0883                 6.1385
 IR Inten    --      6.5245                12.7893                12.3312

                     49                     50                     51
                      A                      A                      A
 Frequencies --   3178.0855              3216.2791              3232.1395
 Red. masses --      1.1198                 1.1178                 1.1157
 Frc consts  --      6.6640                 6.8129                 6.8672
 IR Inten    --     13.0847                 1.8614                 8.9245

 - Thermochemistry -
 -------------------
 Temperature   298.150 Kelvin.  Pressure   1.00000 Atm.
 Atom     1 has atomic number  6 and mass  12.00000

 Molecular mass:   126.06808 amu.
 Principal axes and moments of inertia in atomic units:
                           1         2         3
     Eigenvalues --   869.774021077.834751442.92345
           X            0.99479  -0.10170   0.00681
           Y            0.10170   0.99481   0.00020
           Z           -0.00680   0.00049   0.99998
 This molecule is an asymmetric top.
 Rotational symmetry number  1.
 Warning -- assumption of classical behavior for rotation
           may cause significant error
 Rotational temperatures (Kelvin)      0.09958     0.08036     0.06003
 Rotational constants (GHZ):           2.07495     1.67441     1.25075
 Zero-point vibrational energy     411272.7 (Joules/Mol)
                                   98.29653 (Kcal/Mol)
 Warning -- explicit consideration of  12 degrees of freedom as
           vibrations may cause significant error
 Vibrational temperatures:     93.69   179.56   257.73   291.60   332.16
          (Kelvin)            387.61   448.85   512.34   536.50   628.37
                              740.35   796.73   917.70  1138.74  1222.83
                             1236.68  1261.27  1277.49  1338.38  1377.49
                             1409.70  1491.22  1514.55  1546.34  1566.97
                             1625.62  1633.91  1665.43  1719.94  1748.92
                             1868.73  1908.62  1986.19  2031.51  2062.70
                             2102.22  2141.65  2154.31  2178.79  2181.24
                             2632.12  4152.40  4360.22  4438.83  4453.19
                             4502.45  4509.18  4515.98  4572.55  4627.50
                             4650.32

 Zero-point correction=                           0.156645 (Hartree/Particle)
 Thermal correction to Energy=                    0.165745
 Thermal correction to Enthalpy=                  0.166689
 Thermal correction to Gibbs Free Energy=         0.122897
 Sum of electronic and zero-point Energies=           -423.003366
 Sum of electronic and thermal Energies=              -422.994267
 Sum of electronic and thermal Enthalpies=            -422.993323
 Sum of electronic and thermal Free Energies=         -423.037114

                     E (Thermal)             CV                S
                      KCal/Mol        Cal/Mol-Kelvin    Cal/Mol-Kelvin
 Total                  104.006             34.048             92.167
 Electronic               0.000              0.000              0.000
 Translational            0.889              2.981             40.409
 Rotational               0.889              2.981             28.694
 Vibrational            102.229             28.086             23.064
 Vibration     1          0.597              1.971              4.296
 Vibration     2          0.610              1.928              3.025
 Vibration     3          0.629              1.868              2.337
 Vibration     4          0.639              1.836              2.109
 Vibration     5          0.653              1.794              1.872
 Vibration     6          0.674              1.729              1.600
 Vibration     7          0.700              1.651              1.352
 Vibration     8          0.732              1.563              1.139
 Vibration     9          0.744              1.528              1.068
 Vibration    10          0.797              1.390              0.837
 Vibration    11          0.870              1.218              0.623
 Vibration    12          0.909              1.131              0.536

 Normal termination of Gaussian 09 at Mon Jan 27 17:17:53 2020.
