 Gaussian 09, Revision D.01,
 Gaussian 09:  ES64L-G09RevD.01 24-Apr-2013

 -----------------------------
 # b3lyp 6-31G(2df,p) opt Freq
 -----------------------------

 -----
 titel
 -----
 Symbolic Z-matrix:
 Charge =  0 Multiplicity = 1

 SCF Done:  E(RB3LYP) =  -423.116397375     A.U. after   12 cycles
 Optimization completed.
    -- Stationary point found.
 Normal termination of Gaussian 09 at Tue Jan 28 02:52:03 2020.

 ----------------------------------------------------------------------
 #N Geom=AllCheck Guess=TCheck SCRF=Check GenChk RB3LYP/6-31G(2df,p) Fr
 eq
 ----------------------------------------------------------------------

 Structure from the checkpoint file:  "/scratch/puck/g09_deff8a48-663a-487d-bd4c-34663d175a10/Gau-105051.chk"
 -----
 titel
 -----
 Charge =  0 Multiplicity = 1

                         Standard orientation:
 ---------------------------------------------------------------------
 Center     Atomic      Atomic             Coordinates (Angstroms)
 Number     Number       Type             X           Y           Z
 ---------------------------------------------------------------------
      1          6           0        3.046384   -0.107497   -0.502766
      2          6           0        1.613652    0.366254   -0.373050
      3          8           0        1.264889    0.612715    1.029654
      4          6           0        0.311310   -0.449214    0.999929
      5          6           0        0.535852   -0.709488   -0.489494
      6          6           0       -0.767778   -0.153996    0.016504
      7          6           0       -1.558463    1.116396   -0.265591
      8          6           0       -2.773455    0.162245   -0.221233
      9          8           0       -1.919314   -0.994472   -0.025770
     10          1           0        3.284983   -0.318437   -1.551214
     11          1           0        3.731510    0.665647   -0.142054
     12          1           0        3.207266   -1.016870    0.083398
     13          1           0        1.448158    1.271182   -0.973286
     14          1           0        0.214311   -1.099753    1.862269
     15          1           0        0.595294   -1.631919   -1.052767
     16          1           0       -1.511508    1.878142    0.513388
     17          1           0       -1.370213    1.575144   -1.238453
     18          1           0       -3.453227    0.305880    0.625998
     19          1           0       -3.356186    0.076851   -1.144139
 ---------------------------------------------------------------------

 SCF Done:  E(RB3LYP) =  -423.116397375     A.U. after    1 cycles

 The electronic state is 1-A.
 Alpha  occ. eigenvalues --  -19.13855 -19.13751 -10.24202 -10.24164 -10.23522
 Alpha  occ. eigenvalues --  -10.23342 -10.19118 -10.19029 -10.17905  -1.05663
 Alpha  occ. eigenvalues --   -1.03772  -0.82210  -0.75713  -0.74470  -0.64935
 Alpha  occ. eigenvalues --   -0.63477  -0.54641  -0.53827  -0.50603  -0.49804
 Alpha  occ. eigenvalues --   -0.48361  -0.47306  -0.43131  -0.40299  -0.39104
 Alpha  occ. eigenvalues --   -0.38843  -0.38233  -0.35895  -0.35134  -0.32383
 Alpha  occ. eigenvalues --   -0.31592  -0.28801  -0.25312  -0.21417
 Alpha virt. eigenvalues --    0.06197   0.09381   0.10006   0.11228   0.11766
 Alpha virt. eigenvalues --    0.12962   0.13232   0.14561   0.16162   0.16813
 Alpha virt. eigenvalues --    0.17665   0.17768   0.19053   0.20545   0.22746

 Mulliken charges:
               1
     1  C   -0.399118
     2  C    0.141348
     3  O   -0.302211
     4  C   -0.007777
     5  C   -0.245865
     6  C    0.456157
     7  C   -0.358740
     8  C   -0.079791
     9  O   -0.324088
    10  H    0.115471
    11  H    0.127571
    12  H    0.125618
    13  H    0.079560
    14  H    0.107686
    15  H    0.105057
    16  H    0.125935
    17  H    0.113711
    18  H    0.109876
    19  H    0.109597
 Sum of Mulliken charges =   0.00000

 Dipole moment (field-independent basis, Debye):
    X=             -0.1157    Y=              0.5753    Z=             -1.2629  Tot=              1.3926
 Quadrupole moment (field-independent basis, Debye-Ang):
   XX=            -50.3859   YY=            -54.2850   ZZ=            -52.6513
   XY=             -4.4901   XZ=             -2.1779   YZ=             -1.8918

  Exact polarizability:  95.642  -1.531  65.214  -2.123  -1.515  67.130
 Approx polarizability: 115.582   1.314  99.907  -1.732   0.094 106.504

                      1                      2                      3
                      A                      A                      A
 Frequencies --     80.4139               115.7756               167.9257
 Red. masses --      2.3455                 3.0385                 3.1349
 Frc consts  --      0.0089                 0.0240                 0.0521
 IR Inten    --      1.7016                 0.5957                 3.4468

                      4                      5                      6
                      A                      A                      A
 Frequencies --    228.9127               265.9716               288.4496
 Red. masses --      1.4326                 2.0531                 2.9504
 Frc consts  --      0.0442                 0.0856                 0.1446
 IR Inten    --      0.1750                 1.1353                 1.5226

                      7                      8                      9
                      A                      A                      A
 Frequencies --    407.1805               426.7358               504.2296
 Red. masses --      2.8374                 4.3887                 3.4706
 Frc consts  --      0.2772                 0.4709                 0.5199
 IR Inten    --      2.9252                 3.4843                 1.2220

                     10                     11                     12
                      A                      A                      A
 Frequencies --    618.8882               770.0465               789.4466
 Red. masses --      4.2549                 2.2505                 1.2553
 Frc consts  --      0.9602                 0.7863                 0.4609
 IR Inten    --      3.7772                 5.6426                 0.2964

                     13                     14                     15
                      A                      A                      A
 Frequencies --    802.3537               863.7757               872.7280
 Red. masses --      1.4095                 2.5214                 3.5258
 Frc consts  --      0.5346                 1.1084                 1.5822
 IR Inten    --      3.7176                29.6566                13.6395

                     16                     17                     18
                      A                      A                      A
 Frequencies --    906.2316               919.4120               959.9344
 Red. masses --      2.1625                 2.8486                 2.8245
 Frc consts  --      1.0464                 1.4188                 1.5335
 IR Inten    --      3.7785                 5.8838                 2.3823

                     19                     20                     21
                      A                      A                      A
 Frequencies --    973.5854              1012.8313              1017.6233
 Red. masses --      2.3429                 5.5733                 1.8610
 Frc consts  --      1.3084                 3.3685                 1.1355
 IR Inten    --     14.3716                90.3429                 7.9530

                     22                     23                     24
                      A                      A                      A
 Frequencies --   1033.0190              1075.3198              1096.5108
 Red. masses --      2.7279                 1.9106                 2.0990
 Frc consts  --      1.7152                 1.3017                 1.4869
 IR Inten    --     94.1904                 4.4181                13.6151

                     25                     26                     27
                      A                      A                      A
 Frequencies --   1109.4454              1129.9200              1161.3292
 Red. masses --      2.2088                 2.4325                 1.9568
 Frc consts  --      1.6019                 1.8298                 1.5549
 IR Inten    --     22.8861                28.7935                13.1036

                     28                     29                     30
                      A                      A                      A
 Frequencies --   1167.5170              1206.8927              1208.4075
 Red. masses --      1.4116                 1.4564                 1.2574
 Frc consts  --      1.1337                 1.2498                 1.0818
 IR Inten    --      1.3967                14.0127                 0.6235

                     31                     32                     33
                      A                      A                      A
 Frequencies --   1225.3057              1260.8416              1304.9885
 Red. masses --      1.5169                 1.6848                 1.5693
 Frc consts  --      1.3419                 1.5781                 1.5746
 IR Inten    --      1.7806                 2.8303                17.7676

                     34                     35                     36
                      A                      A                      A
 Frequencies --   1351.6574              1384.3812              1405.2249
 Red. masses --      1.4713                 1.4063                 1.3527
 Frc consts  --      1.5837                 1.5880                 1.5738
 IR Inten    --      1.6300                13.9706                12.7600

                     37                     38                     39
                      A                      A                      A
 Frequencies --   1441.9275              1483.6625              1490.0507
 Red. masses --      4.2818                 1.0541                 1.1213
 Frc consts  --      5.2453                 1.3671                 1.4668
 IR Inten    --     28.3861                 3.4894                 1.9419

                     40                     41                     42
                      A                      A                      A
 Frequencies --   1491.2646              1530.1188              3012.9505
 Red. masses --      1.0585                 1.1612                 1.0838
 Frc consts  --      1.3869                 1.6018                 5.7967
 IR Inten    --      3.1147                 0.4693                42.7762

                     43                     44                     45
                      A                      A                      A
 Frequencies --   3031.9902              3034.8612              3075.1538
 Red. masses --      1.0555                 1.0356                 1.0846
 Frc consts  --      5.7169                 5.6199                 6.0432
 IR Inten    --     89.5632                12.4654                18.2422

                     46                     47                     48
                      A                      A                      A
 Frequencies --   3080.5248              3106.6571              3119.9610
 Red. masses --      1.0861                 1.1003                 1.1027
 Frc consts  --      6.0724                 6.2565                 6.3245
 IR Inten    --     33.9776                18.0412                22.5817

                     49                     50                     51
                      A                      A                      A
 Frequencies --   3135.6408              3173.2041              3198.9130
 Red. masses --      1.1074                 1.0911                 1.0958
 Frc consts  --      6.4153                 6.4729                 6.6067
 IR Inten    --     17.1358                17.8266                 5.0313

 - Thermochemistry -
 -------------------
 Temperature   298.150 Kelvin.  Pressure   1.00000 Atm.
 Atom     1 has atomic number  6 and mass  12.00000

 Molecular mass:   126.06808 amu.
 Principal axes and moments of inertia in atomic units:
                           1         2         3
     Eigenvalues --   393.171601695.520881738.46132
           X            0.99972  -0.02208  -0.00813
           Y            0.02032   0.98442  -0.17465
           Z            0.01186   0.17444   0.98460
 This molecule is an asymmetric top.
 Rotational symmetry number  1.
 Rotational temperatures (Kelvin)      0.22030     0.05108     0.04982
 Rotational constants (GHZ):           4.59021     1.06442     1.03813
 Zero-point vibrational energy     415822.5 (Joules/Mol)
                                   99.38396 (Kcal/Mol)
 Warning -- explicit consideration of  10 degrees of freedom as
           vibrations may cause significant error
 Vibrational temperatures:    115.70   166.58   241.61   329.35   382.67
          (Kelvin)            415.01   585.84   613.98   725.47   890.44
                             1107.92  1135.84  1154.41  1242.78  1255.66
                             1303.86  1322.83  1381.13  1400.77  1457.24
                             1464.13  1486.28  1547.14  1577.63  1596.24
                             1625.70  1670.89  1679.79  1736.45  1738.63
                             1762.94  1814.07  1877.58  1944.73  1991.81
                             2021.80  2074.61  2134.66  2143.85  2145.59
                             2201.50  4334.96  4362.35  4366.48  4424.45
                             4432.18  4469.78  4488.92  4511.48  4565.53
                             4602.52

 Zero-point correction=                           0.158378 (Hartree/Particle)
 Thermal correction to Energy=                    0.166592
 Thermal correction to Enthalpy=                  0.167536
 Thermal correction to Gibbs Free Energy=         0.125405
 Sum of electronic and zero-point Energies=           -422.958019
 Sum of electronic and thermal Energies=              -422.949806
 Sum of electronic and thermal Enthalpies=            -422.948862
 Sum of electronic and thermal Free Energies=         -422.990992

                     E (Thermal)             CV                S
                      KCal/Mol        Cal/Mol-Kelvin    Cal/Mol-Kelvin
 Total                  104.538             31.244             88.672
 Electronic               0.000              0.000              0.000
 Translational            0.889              2.981             40.409
 Rotational               0.889              2.981             28.540
 Vibrational            102.760             25.282             19.723
 Vibration     1          0.600              1.962              3.881
 Vibration     2          0.608              1.936              3.170
 Vibration     3          0.625              1.882              2.459
 Vibration     4          0.652              1.797              1.887
 Vibration     5          0.672              1.735              1.622
 Vibration     6          0.685              1.695              1.483
 Vibration     7          0.772              1.455              0.937
 Vibration     8          0.788              1.412              0.869
 Vibration     9          0.860              1.241              0.648
 Vibration    10          0.979              0.992              0.418

 Optimization completed.
    -- Stationary point found.
 Normal termination of Gaussian 09 at Tue Jan 28 03:42:21 2020.
