 Gaussian 09, Revision D.01,
 Gaussian 09:  ES64L-G09RevD.01 24-Apr-2013

 -----------------------------
 # b3lyp 6-31G(2df,p) opt Freq
 -----------------------------

 -----
 titel
 -----
 Symbolic Z-matrix:
 Charge =  0 Multiplicity = 1

 SCF Done:  E(RB3LYP) =  -423.150655505     A.U. after   14 cycles
 Optimization completed.
    -- Stationary point found.
 Normal termination of Gaussian 09 at Tue Jan 28 09:08:27 2020.

 ----------------------------------------------------------------------
 #N Geom=AllCheck Guess=TCheck SCRF=Check GenChk RB3LYP/6-31G(2df,p) Fr
 eq
 ----------------------------------------------------------------------

 Structure from the checkpoint file:  "/scratch/puck/g09_27f18f3d-09ad-49fd-aee3-d79499c035e2/Gau-20206.chk"
 -----
 titel
 -----
 Charge =  0 Multiplicity = 1

                         Standard orientation:
 ---------------------------------------------------------------------
 Center     Atomic      Atomic             Coordinates (Angstroms)
 Number     Number       Type             X           Y           Z
 ---------------------------------------------------------------------
      1          8           0        1.805101   -1.705035   -0.277572
      2          6           0        0.957184   -1.178141    0.710501
      3          6           0        0.200915    0.070908    0.215181
      4          6           0       -0.965958    0.465248    1.170458
      5          6           0       -2.223265   -0.024665    0.430726
      6          6           0       -1.783873    0.080663   -1.029018
      7          8           0       -0.420692   -0.329823   -1.028478
      8          6           0        1.115625    1.189347   -0.028663
      9          6           0        1.855797    2.119972   -0.203141
     10          1           0        1.271324   -1.762062   -1.080005
     11          1           0        0.200953   -1.912402    1.036113
     12          1           0        1.577884   -0.918797    1.573694
     13          1           0       -0.842291    0.008330    2.155758
     14          1           0       -0.987768    1.548435    1.304177
     15          1           0       -2.442094   -1.067484    0.680555
     16          1           0       -3.108731    0.573922    0.657946
     17          1           0       -2.328716   -0.577760   -1.710737
     18          1           0       -1.873926    1.114445   -1.396082
     19          1           0        2.519544    2.932237   -0.369284
 ---------------------------------------------------------------------

 SCF Done:  E(RB3LYP) =  -423.150655505     A.U. after    1 cycles

 The electronic state is 1-A.
 Alpha  occ. eigenvalues --  -19.14877 -19.12796 -10.25957 -10.23500 -10.22789
 Alpha  occ. eigenvalues --  -10.19725 -10.19531 -10.17816 -10.17357  -1.04852
 Alpha  occ. eigenvalues --   -1.00973  -0.80270  -0.78107  -0.72567  -0.66938
 Alpha  occ. eigenvalues --   -0.61072  -0.60706  -0.53333  -0.51488  -0.50036
 Alpha  occ. eigenvalues --   -0.48588  -0.45533  -0.43174  -0.42641  -0.40852
 Alpha  occ. eigenvalues --   -0.38386  -0.36223  -0.35376  -0.33403  -0.32490
 Alpha  occ. eigenvalues --   -0.28783  -0.27043  -0.26099  -0.25225
 Alpha virt. eigenvalues --    0.03789   0.05371   0.08026   0.10476   0.11216
 Alpha virt. eigenvalues --    0.12658   0.12941   0.14014   0.15605   0.16913
 Alpha virt. eigenvalues --    0.17064   0.17544   0.19008   0.20474   0.22016

 Mulliken charges:
               1
     1  O   -0.419660
     2  C   -0.079433
     3  C    0.138479
     4  C   -0.292299
     5  C   -0.217860
     6  C   -0.076142
     7  O   -0.293818
     8  C    0.364263
     9  C   -0.480011
    10  H    0.293597
    11  H    0.078754
    12  H    0.114101
    13  H    0.116237
    14  H    0.122634
    15  H    0.112186
    16  H    0.107580
    17  H    0.112388
    18  H    0.101947
    19  H    0.197058
 Sum of Mulliken charges =   0.00000

 Dipole moment (field-independent basis, Debye):
    X=             -2.6458    Y=              0.8645    Z=              0.8080  Tot=              2.8983
 Quadrupole moment (field-independent basis, Debye-Ang):
   XX=            -53.0530   YY=            -51.9110   ZZ=            -51.9213
   XY=              4.7392   XZ=              0.5215   YZ=             -0.1058

  Exact polarizability:  85.894  11.109  79.257  -0.161  -2.357  65.837
 Approx polarizability: 117.805  20.607 120.279  -2.090  -2.861  97.233

                      1                      2                      3
                      A                      A                      A
 Frequencies --     36.8896               110.4831               162.6887
 Red. masses --      3.0513                 4.3969                 3.1475
 Frc consts  --      0.0024                 0.0316                 0.0491
 IR Inten    --      0.6603                 2.3274                 0.8431

                      4                      5                      6
                      A                      A                      A
 Frequencies --    176.5550               222.9227               275.3561
 Red. masses --      3.3642                 2.5685                 2.2085
 Frc consts  --      0.0618                 0.0752                 0.0987
 IR Inten    --      0.5823                 1.6200                 1.5557

                      7                      8                      9
                      A                      A                      A
 Frequencies --    373.2475               421.5866               463.6488
 Red. masses --      2.8534                 3.9901                 1.1723
 Frc consts  --      0.2342                 0.4178                 0.1485
 IR Inten    --      6.3293                 4.9375               103.4900

                     10                     11                     12
                      A                      A                      A
 Frequencies --    495.2587               549.5856               596.7836
 Red. masses --      6.2155                 6.0562                 1.8907
 Frc consts  --      0.8982                 1.0778                 0.3967
 IR Inten    --      5.8311                11.0857                 2.0291

                     13                     14                     15
                      A                      A                      A
 Frequencies --    622.6778               657.5656               668.4395
 Red. masses --      1.2464                 1.3160                 3.3890
 Frc consts  --      0.2847                 0.3353                 0.8922
 IR Inten    --     37.0356                29.1406                21.4558

                     16                     17                     18
                      A                      A                      A
 Frequencies --    745.4699               857.0575               884.5713
 Red. masses --      4.1823                 1.6829                 2.1768
 Frc consts  --      1.3694                 0.7283                 1.0035
 IR Inten    --     14.8461                 0.3026                18.9468

                     19                     20                     21
                      A                      A                      A
 Frequencies --    903.1224               932.6381               988.9416
 Red. masses --      1.9167                 2.5328                 2.2011
 Frc consts  --      0.9211                 1.2980                 1.2683
 IR Inten    --     15.4522                 3.8532                 4.2462

                     22                     23                     24
                      A                      A                      A
 Frequencies --   1008.7763              1057.0992              1080.5279
 Red. masses --      1.7242                 2.2292                 5.7248
 Frc consts  --      1.0337                 1.4677                 3.9380
 IR Inten    --      1.1728                14.5894               136.6312

                     25                     26                     27
                      A                      A                      A
 Frequencies --   1094.5212              1137.4154              1181.8647
 Red. masses --      4.1687                 3.0108                 2.1563
 Frc consts  --      2.9424                 2.2949                 1.7746
 IR Inten    --    109.3081                27.6904                 9.4812

                     28                     29                     30
                      A                      A                      A
 Frequencies --   1207.2454              1229.0704              1255.3877
 Red. masses --      1.3553                 1.5013                 1.3511
 Frc consts  --      1.1638                 1.3362                 1.2546
 IR Inten    --      8.8421                 0.7862                18.3358

                     31                     32                     33
                      A                      A                      A
 Frequencies --   1273.1424              1323.2753              1338.1993
 Red. masses --      1.4439                 1.4214                 1.2939
 Frc consts  --      1.3789                 1.4665                 1.3652
 IR Inten    --      8.4076                 2.5571                 3.0900

                     34                     35                     36
                      A                      A                      A
 Frequencies --   1382.8795              1383.7672              1435.8709
 Red. masses --      1.2601                 1.2941                 1.2603
 Frc consts  --      1.4198                 1.4599                 1.5309
 IR Inten    --     19.3736                 4.9044                72.2809

                     37                     38                     39
                      A                      A                      A
 Frequencies --   1485.2140              1494.2177              1497.8733
 Red. masses --      1.0883                 1.0845                 1.0945
 Frc consts  --      1.4144                 1.4266                 1.4468
 IR Inten    --      1.4053                 3.2698                 5.4345

                     40                     41                     42
                      A                      A                      A
 Frequencies --   1520.8205              2233.3514              2960.1721
 Red. masses --      1.0982                 5.9172                 1.0704
 Frc consts  --      1.4965                17.3893                 5.5261
 IR Inten    --      1.4965                 0.4675                63.0123

                     43                     44                     45
                      A                      A                      A
 Frequencies --   2991.1817              3055.9969              3071.0088
 Red. masses --      1.0703                 1.0620                 1.0616
 Frc consts  --      5.6419                 5.8438                 5.8991
 IR Inten    --     57.3576                18.3039                15.3575

                     46                     47                     48
                      A                      A                      A
 Frequencies --   3084.1625              3093.8272              3106.4067
 Red. masses --      1.0914                 1.0927                 1.1042
 Frc consts  --      6.1166                 6.1624                 6.2777
 IR Inten    --     29.0656                32.2304                11.0942

                     49                     50                     51
                      A                      A                      A
 Frequencies --   3124.2910              3501.1683              3782.9624
 Red. masses --      1.1056                 1.1622                 1.0650
 Frc consts  --      6.3587                 8.3937                 8.9799
 IR Inten    --     29.2714                63.8501                33.1450

 - Thermochemistry -
 -------------------
 Temperature   298.150 Kelvin.  Pressure   1.00000 Atm.
 Atom     1 has atomic number  8 and mass  15.99491

 Molecular mass:   126.06808 amu.
 Principal axes and moments of inertia in atomic units:
                           1         2         3
     Eigenvalues --   835.680111220.687241530.28181
           X            0.99986   0.01699   0.00005
           Y           -0.01698   0.99971  -0.01697
           Z           -0.00034   0.01697   0.99986
 This molecule is an asymmetric top.
 Rotational symmetry number  1.
 Warning -- assumption of classical behavior for rotation
           may cause significant error
 Rotational temperatures (Kelvin)      0.10364     0.07095     0.05660
 Rotational constants (GHZ):           2.15961     1.47846     1.17935
 Zero-point vibrational energy     415924.7 (Joules/Mol)
                                   99.40840 (Kcal/Mol)
 Warning -- explicit consideration of  12 degrees of freedom as
           vibrations may cause significant error
 Vibrational temperatures:     53.08   158.96   234.07   254.02   320.74
          (Kelvin)            396.18   537.02   606.57   667.09   712.57
                              790.73   858.64   895.89   946.09   961.73
                             1072.56  1233.11  1272.70  1299.39  1341.86
                             1422.86  1451.40  1520.93  1554.64  1574.77
                             1636.49  1700.44  1736.95  1768.36  1806.22
                             1831.77  1903.90  1925.37  1989.65  1990.93
                             2065.90  2136.89  2149.84  2155.10  2188.12
                             3213.29  4259.02  4303.64  4396.89  4418.49
                             4437.42  4451.32  4469.42  4495.15  5037.39
                             5442.83

 Zero-point correction=                           0.158417 (Hartree/Particle)
 Thermal correction to Energy=                    0.167519
 Thermal correction to Enthalpy=                  0.168463
 Thermal correction to Gibbs Free Energy=         0.124078
 Sum of electronic and zero-point Energies=           -422.992238
 Sum of electronic and thermal Energies=              -422.983137
 Sum of electronic and thermal Enthalpies=            -422.982193
 Sum of electronic and thermal Free Energies=         -423.026577

                     E (Thermal)             CV                S
                      KCal/Mol        Cal/Mol-Kelvin    Cal/Mol-Kelvin
 Total                  105.120             34.193             93.415
 Electronic               0.000              0.000              0.000
 Translational            0.889              2.981             40.409
 Rotational               0.889              2.981             28.836
 Vibrational            103.342             28.232             24.171
 Vibration     1          0.594              1.982              5.419
 Vibration     2          0.606              1.941              3.260
 Vibration     3          0.623              1.888              2.518
 Vibration     4          0.628              1.871              2.365
 Vibration     5          0.649              1.806              1.935
 Vibration     6          0.677              1.719              1.562
 Vibration     7          0.745              1.527              1.066
 Vibration     8          0.784              1.423              0.887
 Vibration     9          0.821              1.331              0.756
 Vibration    10          0.851              1.261              0.670
 Vibration    11          0.905              1.141              0.545
 Vibration    12          0.955              1.039              0.455

 Optimization completed.
    -- Stationary point found.
 Normal termination of Gaussian 09 at Tue Jan 28 09:51:30 2020.
