 Gaussian 09, Revision D.01,
 Gaussian 09:  ES64L-G09RevD.01 24-Apr-2013

 -----------------------------
 # b3lyp 6-31G(2df,p) opt Freq
 -----------------------------

 -----
 titel
 -----
 Symbolic Z-matrix:
 Charge =  0 Multiplicity = 1

 SCF Done:  E(RB3LYP) =  -423.114402918     A.U. after   14 cycles
 Optimization completed.
    -- Stationary point found.
 Normal termination of Gaussian 09 at Tue Jan 28 12:50:02 2020.

 ----------------------------------------------------------------------
 #N Geom=AllCheck Guess=TCheck SCRF=Check GenChk RB3LYP/6-31G(2df,p) Fr
 eq
 ----------------------------------------------------------------------

 Structure from the checkpoint file:  "/scratch/puck/g09_e5bb0589-7eae-42cb-bd3b-a680788a8565/Gau-10829.chk"
 -----
 titel
 -----
 Charge =  0 Multiplicity = 1

                         Standard orientation:
 ---------------------------------------------------------------------
 Center     Atomic      Atomic             Coordinates (Angstroms)
 Number     Number       Type             X           Y           Z
 ---------------------------------------------------------------------
      1          6           0       -2.346615    1.320340   -0.245734
      2          6           0       -1.316580    0.263210   -0.043036
      3          8           0       -0.854274   -0.485302   -1.175687
      4          6           0       -0.243570   -1.401908   -0.221138
      5          6           0       -1.168910   -0.860969    0.926053
      6          6           0       -0.162943    0.290711    0.984557
      7          6           0        0.940258   -0.589077    0.377801
      8          6           0        1.979821    0.012672   -0.557177
      9          8           0        2.846825    0.917863    0.118725
     10          1           0       -2.635232    1.757048    0.714959
     11          1           0       -1.958786    2.122805   -0.882414
     12          1           0       -3.241533    0.907208   -0.721154
     13          1           0       -0.144957   -2.417763   -0.598083
     14          1           0       -1.813307   -1.313925    1.666471
     15          1           0       -0.082712    1.053903    1.749321
     16          1           0        1.423452   -1.167319    1.172431
     17          1           0        2.628277   -0.777130   -0.953859
     18          1           0        1.478067    0.489882   -1.408646
     19          1           0        2.317561    1.674927    0.388718
 ---------------------------------------------------------------------

 SCF Done:  E(RB3LYP) =  -423.114402918     A.U. after    1 cycles

 The electronic state is 1-A.
 Alpha  occ. eigenvalues --  -19.13628 -19.12829 -10.24669 -10.24444 -10.21563
 Alpha  occ. eigenvalues --  -10.19672 -10.19538 -10.19038 -10.18930  -1.06191
 Alpha  occ. eigenvalues --   -1.00749  -0.85843  -0.76983  -0.72057  -0.65611
 Alpha  occ. eigenvalues --   -0.62622  -0.55207  -0.54196  -0.50598  -0.50037
 Alpha  occ. eigenvalues --   -0.46473  -0.44794  -0.43070  -0.41861  -0.40343
 Alpha  occ. eigenvalues --   -0.39911  -0.37564  -0.35527  -0.33626  -0.32218
 Alpha  occ. eigenvalues --   -0.29311  -0.27814  -0.25038  -0.22969
 Alpha virt. eigenvalues --    0.06826   0.08459   0.09237   0.11646   0.11992
 Alpha virt. eigenvalues --    0.14149   0.14424   0.14710   0.15834   0.16338
 Alpha virt. eigenvalues --    0.17604   0.18545   0.19045   0.20588   0.20911

 Mulliken charges:
               1
     1  C   -0.506142
     2  C    0.480082
     3  O   -0.325114
     4  C    0.030978
     5  C   -0.201076
     6  C   -0.194885
     7  C   -0.000358
     8  C   -0.098128
     9  O   -0.423153
    10  H    0.127374
    11  H    0.132587
    12  H    0.134216
    13  H    0.085272
    14  H    0.099787
    15  H    0.086921
    16  H    0.082369
    17  H    0.103756
    18  H    0.103628
    19  H    0.281886
 Sum of Mulliken charges =   0.00000

 Dipole moment (field-independent basis, Debye):
    X=             -1.8039    Y=              0.2482    Z=              1.4699  Tot=              2.3402
 Quadrupole moment (field-independent basis, Debye-Ang):
   XX=            -59.2171   YY=            -47.6753   ZZ=            -54.5534
   XY=             -2.5459   XZ=             -2.4824   YZ=              0.4073

  Exact polarizability:  82.610  -3.699  74.429  -0.370   0.913  66.256
 Approx polarizability: 109.782  -2.101 111.165   2.358   2.221 105.447

                      1                      2                      3
                      A                      A                      A
 Frequencies --     66.9075               164.0683               171.7899
 Red. masses --      3.5140                 2.1658                 2.2795
 Frc consts  --      0.0093                 0.0343                 0.0396
 IR Inten    --      2.3373                 2.1513                 0.6445

                      4                      5                      6
                      A                      A                      A
 Frequencies --    203.6043               267.9105               295.9146
 Red. masses --      1.3174                 1.7854                 1.7148
 Frc consts  --      0.0322                 0.0755                 0.0885
 IR Inten    --      0.4671                47.0233                56.6449

                      7                      8                      9
                      A                      A                      A
 Frequencies --    311.2100               414.0837               556.5610
 Red. masses --      2.4851                 4.0579                 4.2536
 Frc consts  --      0.1418                 0.4099                 0.7763
 IR Inten    --     11.8263                 2.8746                 2.6205

                     10                     11                     12
                      A                      A                      A
 Frequencies --    599.6482               628.3225               739.2759
 Red. masses --      2.8422                 3.7651                 3.7574
 Frc consts  --      0.6021                 0.8758                 1.2099
 IR Inten    --      3.0394                 3.4953                 9.7075

                     13                     14                     15
                      A                      A                      A
 Frequencies --    769.7313               793.9137               825.8949
 Red. masses --      2.9201                 2.0384                 1.5878
 Frc consts  --      1.0193                 0.7570                 0.6381
 IR Inten    --      5.6754                 9.3423                11.0271

                     16                     17                     18
                      A                      A                      A
 Frequencies --    879.8558               889.9470               917.7629
 Red. masses --      1.6023                 2.3611                 2.0877
 Frc consts  --      0.7308                 1.1018                 1.0360
 IR Inten    --     11.2613                12.4856                10.3673

                     19                     20                     21
                      A                      A                      A
 Frequencies --    931.5636               961.1992              1012.0595
 Red. masses --      2.1246                 3.5834                 1.6438
 Frc consts  --      1.0863                 1.9506                 0.9920
 IR Inten    --     12.3304                24.0105                16.5268

                     22                     23                     24
                      A                      A                      A
 Frequencies --   1033.4733              1061.9481              1074.0903
 Red. masses --      2.7641                 3.8028                 2.4617
 Frc consts  --      1.7394                 2.5267                 1.6733
 IR Inten    --     11.9433                96.4180                 5.6621

                     25                     26                     27
                      A                      A                      A
 Frequencies --   1096.9439              1104.6702              1130.1696
 Red. masses --      1.6660                 1.6961                 2.7198
 Frc consts  --      1.1811                 1.2195                 2.0468
 IR Inten    --      0.0239                28.2641                 6.9753

                     28                     29                     30
                      A                      A                      A
 Frequencies --   1147.9341              1185.1946              1208.8102
 Red. masses --      1.5075                 1.5515                 1.5905
 Frc consts  --      1.1704                 1.2840                 1.3693
 IR Inten    --      3.7007                 5.8557                 5.6784

                     31                     32                     33
                      A                      A                      A
 Frequencies --   1227.9511              1258.2723              1302.5347
 Red. masses --      1.6363                 1.8583                 1.5488
 Frc consts  --      1.4537                 1.7335                 1.5482
 IR Inten    --      6.6786                 3.4414                 8.1552

                     34                     35                     36
                      A                      A                      A
 Frequencies --   1352.9962              1395.6420              1400.7148
 Red. masses --      1.4613                 1.2409                 1.3183
 Frc consts  --      1.5761                 1.4241                 1.5240
 IR Inten    --      4.3599                22.7677                 4.2952

                     37                     38                     39
                      A                      A                      A
 Frequencies --   1419.3012              1456.9093              1473.7231
 Red. masses --      1.3637                 3.9807                 1.0649
 Frc consts  --      1.6186                 4.9783                 1.3627
 IR Inten    --     35.5246                14.7988                 3.2423

                     40                     41                     42
                      A                      A                      A
 Frequencies --   1501.1887              1508.0574              3021.6580
 Red. masses --      1.0958                 1.0860                 1.0588
 Frc consts  --      1.4549                 1.4552                 5.6959
 IR Inten    --      4.3872                 1.8986                29.4595

                     43                     44                     45
                      A                      A                      A
 Frequencies --   3035.9359              3056.2029              3075.0816
 Red. masses --      1.0353                 1.0879                 1.1013
 Frc consts  --      5.6220                 5.9872                 6.1357
 IR Inten    --     23.7592                 9.8696                46.8382

                     46                     47                     48
                      A                      A                      A
 Frequencies --   3102.0398              3115.1624              3143.8545
 Red. masses --      1.1011                 1.1008                 1.0924
 Frc consts  --      6.2427                 6.2940                 6.3612
 IR Inten    --     15.3366                13.5162                34.8521

                     49                     50                     51
                      A                      A                      A
 Frequencies --   3186.4557              3211.1780              3817.0507
 Red. masses --      1.0911                 1.0997                 1.0661
 Frc consts  --      6.5270                 6.6812                 9.1519
 IR Inten    --     13.1230                 8.9405                10.5516

 - Thermochemistry -
 -------------------
 Temperature   298.150 Kelvin.  Pressure   1.00000 Atm.
 Atom     1 has atomic number  6 and mass  12.00000

 Molecular mass:   126.06808 amu.
 Principal axes and moments of inertia in atomic units:
                           1         2         3
     Eigenvalues --   578.998611458.546031584.04530
           X            0.99940  -0.03330  -0.00974
           Y            0.03309   0.99924  -0.02056
           Z            0.01041   0.02022   0.99974
 This molecule is an asymmetric top.
 Rotational symmetry number  1.
 Warning -- assumption of classical behavior for rotation
           may cause significant error
 Rotational temperatures (Kelvin)      0.14959     0.05938     0.05468
 Rotational constants (GHZ):           3.11700     1.23736     1.13932
 Zero-point vibrational energy     415740.4 (Joules/Mol)
                                   99.36434 (Kcal/Mol)
 Warning -- explicit consideration of  10 degrees of freedom as
           vibrations may cause significant error
 Vibrational temperatures:     96.26   236.06   247.17   292.94   385.46
          (Kelvin)            425.75   447.76   595.77   800.77   862.76
                              904.01  1063.65  1107.47  1142.26  1188.28
                             1265.91  1280.43  1320.45  1340.31  1382.95
                             1456.13  1486.94  1527.90  1545.37  1578.26
                             1589.37  1626.06  1651.62  1705.23  1739.21
                             1766.75  1810.37  1874.05  1946.66  2008.02
                             2015.31  2042.06  2096.16  2120.36  2159.87
                             2169.76  4347.49  4368.03  4397.19  4424.35
                             4463.14  4482.02  4523.30  4584.59  4620.16
                             5491.88

 Zero-point correction=                           0.158347 (Hartree/Particle)
 Thermal correction to Energy=                    0.166774
 Thermal correction to Enthalpy=                  0.167719
 Thermal correction to Gibbs Free Energy=         0.125214
 Sum of electronic and zero-point Energies=           -422.956056
 Sum of electronic and thermal Energies=              -422.947629
 Sum of electronic and thermal Enthalpies=            -422.946684
 Sum of electronic and thermal Free Energies=         -422.989189

                     E (Thermal)             CV                S
                      KCal/Mol        Cal/Mol-Kelvin    Cal/Mol-Kelvin
 Total                  104.653             32.342             89.458
 Electronic               0.000              0.000              0.000
 Translational            0.889              2.981             40.409
 Rotational               0.889              2.981             28.683
 Vibrational            102.875             26.380             20.367
 Vibration     1          0.598              1.970              4.242
 Vibration     2          0.623              1.887              2.502
 Vibration     3          0.626              1.877              2.416
 Vibration     4          0.639              1.835              2.100
 Vibration     5          0.673              1.732              1.610
 Vibration     6          0.690              1.681              1.440
 Vibration     7          0.700              1.652              1.356
 Vibration     8          0.778              1.440              0.912
 Vibration     9          0.912              1.125              0.531
 Vibration    10          0.958              1.033              0.450

 Optimization completed.
    -- Stationary point found.
 Normal termination of Gaussian 09 at Tue Jan 28 14:45:14 2020.
