 Gaussian 09, Revision D.01,
 Gaussian 09:  ES64L-G09RevD.01 24-Apr-2013

 -----------------------------
 # b3lyp 6-31G(2df,p) opt Freq
 -----------------------------

 -----
 titel
 -----
 Symbolic Z-matrix:
 Charge =  0 Multiplicity = 1

 SCF Done:  E(RB3LYP) =  -423.160536977     A.U. after   14 cycles
 Optimization completed.
    -- Stationary point found.
 Normal termination of Gaussian 09 at Tue Jan 28 09:37:29 2020.

 ----------------------------------------------------------------------
 #N Geom=AllCheck Guess=TCheck SCRF=Check GenChk RB3LYP/6-31G(2df,p) Fr
 eq
 ----------------------------------------------------------------------

 Structure from the checkpoint file:  "/scratch/puck/g09_36bb1e85-df01-4769-8ae4-617947b64b9a/Gau-132157.chk"
 -----
 titel
 -----
 Charge =  0 Multiplicity = 1

                         Standard orientation:
 ---------------------------------------------------------------------
 Center     Atomic      Atomic             Coordinates (Angstroms)
 Number     Number       Type             X           Y           Z
 ---------------------------------------------------------------------
      1          8           0       -2.867999    0.432668    0.422909
      2          6           0       -2.041582   -0.136961   -0.580833
      3          6           0       -0.586103   -0.067170   -0.202480
      4          6           0        0.136391    1.274278   -0.085596
      5          6           0        1.628901    0.970195   -0.257210
      6          6           0        2.336067    0.085135    0.734266
      7          6           0        1.792664   -0.515413   -0.541051
      8          6           0        0.411574   -1.122921   -0.457832
      9          8           0       -0.214342   -1.009436    0.831928
     10          1           0       -2.691203   -0.057045    1.234315
     11          1           0       -2.311597   -1.184973   -0.779034
     12          1           0       -2.228312    0.440112   -1.492751
     13          1           0       -0.205998    1.932636   -0.891885
     14          1           0       -0.099535    1.773805    0.859110
     15          1           0        2.228164    1.698918   -0.791635
     16          1           0        3.412748    0.193901    0.808575
     17          1           0        1.832709   -0.175113    1.657018
     18          1           0        2.468866   -0.893073   -1.298401
     19          1           0        0.185419   -2.037882   -0.999596
 ---------------------------------------------------------------------

 SCF Done:  E(RB3LYP) =  -423.160536977     A.U. after    1 cycles

 The electronic state is 1-A.
 Alpha  occ. eigenvalues --  -19.15024 -19.13559 -10.23808 -10.23525 -10.23088
 Alpha  occ. eigenvalues --  -10.19260 -10.19236 -10.18763 -10.18311  -1.07160
 Alpha  occ. eigenvalues --   -1.01549  -0.86711  -0.75604  -0.69779  -0.68111
 Alpha  occ. eigenvalues --   -0.58760  -0.56733  -0.56091  -0.53301  -0.48995
 Alpha  occ. eigenvalues --   -0.46163  -0.45311  -0.44683  -0.41561  -0.40354
 Alpha  occ. eigenvalues --   -0.39338  -0.36332  -0.35436  -0.33670  -0.31734
 Alpha  occ. eigenvalues --   -0.28805  -0.28165  -0.26885  -0.25088
 Alpha virt. eigenvalues --    0.07258   0.08076   0.08990   0.11466   0.12332
 Alpha virt. eigenvalues --    0.13850   0.15223   0.15711   0.16138   0.17128
 Alpha virt. eigenvalues --    0.17773   0.18341   0.19367   0.22136   0.22833

 Mulliken charges:
               1
     1  O   -0.417418
     2  C   -0.148027
     3  C    0.373732
     4  C   -0.295982
     5  C   -0.047738
     6  C   -0.281976
     7  C   -0.061467
     8  C   -0.043104
     9  O   -0.303373
    10  H    0.292731
    11  H    0.092486
    12  H    0.109694
    13  H    0.106195
    14  H    0.119642
    15  H    0.086635
    16  H    0.107004
    17  H    0.133581
    18  H    0.085034
    19  H    0.092352
 Sum of Mulliken charges =   0.00000

 Dipole moment (field-independent basis, Debye):
    X=              1.2844    Y=             -0.2478    Z=             -1.2962  Tot=              1.8415
 Quadrupole moment (field-independent basis, Debye-Ang):
   XX=            -55.7090   YY=            -53.1056   ZZ=            -51.0946
   XY=              2.8690   XZ=             -1.1567   YZ=              1.0630

  Exact polarizability:  85.410  -1.608  70.672   1.193   1.459  64.996
 Approx polarizability: 109.385  -5.929 109.099  -0.965  -0.104 105.411

                      1                      2                      3
                      A                      A                      A
 Frequencies --     67.1366               136.6478               233.7003
 Red. masses --      3.7406                 4.1689                 2.6960
 Frc consts  --      0.0099                 0.0459                 0.0868
 IR Inten    --      4.5848                 0.1380                 0.7468

                      4                      5                      6
                      A                      A                      A
 Frequencies --    295.3840               338.9489               375.8791
 Red. masses --      3.0191                 1.7804                 4.0324
 Frc consts  --      0.1552                 0.1205                 0.3357
 IR Inten    --      2.5393                20.3494                 0.4762

                      7                      8                      9
                      A                      A                      A
 Frequencies --    417.2868               436.7613               571.3878
 Red. masses --      1.7066                 1.7028                 3.4989
 Frc consts  --      0.1751                 0.1914                 0.6730
 IR Inten    --     69.0488                45.8505                 4.6240

                     10                     11                     12
                      A                      A                      A
 Frequencies --    677.0882               691.0824               718.8825
 Red. masses --      3.8431                 4.5658                 4.7365
 Frc consts  --      1.0381                 1.2848                 1.4422
 IR Inten    --     21.7022                 1.0257                 3.1194

                     13                     14                     15
                      A                      A                      A
 Frequencies --    786.4031               806.2728               850.7265
 Red. masses --      2.0828                 1.5897                 3.5254
 Frc consts  --      0.7589                 0.6089                 1.5033
 IR Inten    --     11.8117                 3.7344                11.2725

                     16                     17                     18
                      A                      A                      A
 Frequencies --    875.0758               890.7283               944.9135
 Red. masses --      1.8857                 2.4143                 2.8342
 Frc consts  --      0.8508                 1.1286                 1.4909
 IR Inten    --      0.6135                 6.5991                22.7913

                     19                     20                     21
                      A                      A                      A
 Frequencies --    957.6900               999.3501              1025.7504
 Red. masses --      1.9111                 2.3072                 1.9207
 Frc consts  --      1.0327                 1.3576                 1.1907
 IR Inten    --     32.2728                 2.8022                23.5377

                     22                     23                     24
                      A                      A                      A
 Frequencies --   1048.3841              1072.5781              1085.5293
 Red. masses --      2.3695                 1.8521                 1.6401
 Frc consts  --      1.5344                 1.2554                 1.1387
 IR Inten    --     29.8194                17.8913                17.5045

                     25                     26                     27
                      A                      A                      A
 Frequencies --   1087.3948              1104.5744              1115.8585
 Red. masses --      1.3821                 1.3235                 1.4895
 Frc consts  --      0.9629                 0.9514                 1.0927
 IR Inten    --      6.2750                 1.4667                 3.8035

                     28                     29                     30
                      A                      A                      A
 Frequencies --   1174.8440              1198.1030              1217.3514
 Red. masses --      1.3581                 1.5670                 1.3858
 Frc consts  --      1.1044                 1.3253                 1.2100
 IR Inten    --      6.8091                 5.7282                 0.9691

                     31                     32                     33
                      A                      A                      A
 Frequencies --   1255.1789              1279.1539              1322.9808
 Red. masses --      1.5441                 1.4830                 2.0619
 Frc consts  --      1.4333                 1.4297                 2.1263
 IR Inten    --      5.6149                 6.5290                14.2188

                     34                     35                     36
                      A                      A                      A
 Frequencies --   1341.3773              1367.9081              1389.9456
 Red. masses --      1.6280                 1.7806                 1.4835
 Frc consts  --      1.7258                 1.9631                 1.6886
 IR Inten    --      2.7144                 1.9686                 1.2656

                     37                     38                     39
                      A                      A                      A
 Frequencies --   1422.5264              1444.4297              1477.5989
 Red. masses --      1.3071                 2.2576                 1.2325
 Frc consts  --      1.5584                 2.7752                 1.5854
 IR Inten    --     44.2906                24.9108                 2.8600

                     40                     41                     42
                      A                      A                      A
 Frequencies --   1481.8898              1489.7697              2994.3605
 Red. masses --      1.2886                 1.0897                 1.0674
 Frc consts  --      1.6672                 1.4249                 5.6390
 IR Inten    --      3.6053                 1.0701                47.1344

                     43                     44                     45
                      A                      A                      A
 Frequencies --   3046.8124              3075.2400              3088.4044
 Red. masses --      1.0614                 1.0952                 1.1019
 Frc consts  --      5.8054                 6.1022                 6.1927
 IR Inten    --     20.6451                24.4633                16.5697

                     46                     47                     48
                      A                      A                      A
 Frequencies --   3139.9323              3144.9958              3167.0584
 Red. masses --      1.0551                 1.0900                 1.0898
 Frc consts  --      6.1290                 6.3523                 6.4404
 IR Inten    --     18.4503                20.4639                18.0331

                     49                     50                     51
                      A                      A                      A
 Frequencies --   3186.0187              3234.9175              3800.3528
 Red. masses --      1.0930                 1.1149                 1.0659
 Frc consts  --      6.5371                 6.8739                 9.0699
 IR Inten    --     17.7857                 4.2326                21.0550

 - Thermochemistry -
 -------------------
 Temperature   298.150 Kelvin.  Pressure   1.00000 Atm.
 Atom     1 has atomic number  8 and mass  15.99491

 Molecular mass:   126.06808 amu.
 Principal axes and moments of inertia in atomic units:
                           1         2         3
     Eigenvalues --   463.292121475.093021620.98047
           X            0.99992   0.00982   0.00803
           Y           -0.01014   0.99908   0.04158
           Z           -0.00761  -0.04166   0.99910
 This molecule is an asymmetric top.
 Rotational symmetry number  1.
 Warning -- assumption of classical behavior for rotation
           may cause significant error
 Rotational temperatures (Kelvin)      0.18695     0.05872     0.05343
 Rotational constants (GHZ):           3.89547     1.22348     1.11336
 Zero-point vibrational energy     420801.8 (Joules/Mol)
                                  100.57404 (Kcal/Mol)
 Warning -- explicit consideration of   9 degrees of freedom as
           vibrations may cause significant error
 Vibrational temperatures:     96.59   196.61   336.24   424.99   487.67
          (Kelvin)            540.81   600.38   628.40   822.10   974.18
                              994.31  1034.31  1131.46  1160.05  1224.00
                             1259.04  1281.56  1359.52  1377.90  1437.84
                             1475.82  1508.39  1543.20  1561.83  1564.52
                             1589.23  1605.47  1690.34  1723.80  1751.49
                             1805.92  1840.41  1903.47  1929.94  1968.11
                             1999.82  2046.70  2078.21  2125.93  2132.11
                             2143.44  4308.21  4383.68  4424.58  4443.52
                             4517.66  4524.94  4556.68  4583.96  4654.32
                             5467.85

 Zero-point correction=                           0.160275 (Hartree/Particle)
 Thermal correction to Energy=                    0.168104
 Thermal correction to Enthalpy=                  0.169048
 Thermal correction to Gibbs Free Energy=         0.127821
 Sum of electronic and zero-point Energies=           -423.000262
 Sum of electronic and thermal Energies=              -422.992433
 Sum of electronic and thermal Enthalpies=            -422.991489
 Sum of electronic and thermal Free Energies=         -423.032716

                     E (Thermal)             CV                S
                      KCal/Mol        Cal/Mol-Kelvin    Cal/Mol-Kelvin
 Total                  105.487             31.028             86.770
 Electronic               0.000              0.000              0.000
 Translational            0.889              2.981             40.409
 Rotational               0.889              2.981             28.495
 Vibrational            103.709             25.066             17.866
 Vibration     1          0.598              1.970              4.236
 Vibration     2          0.614              1.917              2.850
 Vibration     3          0.654              1.789              1.850
 Vibration     4          0.690              1.682              1.443
 Vibration     5          0.719              1.598              1.217
 Vibration     6          0.747              1.522              1.056
 Vibration     7          0.780              1.433              0.901
 Vibration     8          0.797              1.390              0.837
 Vibration     9          0.928              1.093              0.502

 Optimization completed.
    -- Stationary point found.
 Normal termination of Gaussian 09 at Tue Jan 28 10:21:58 2020.
