 Gaussian 09, Revision D.01,
 Gaussian 09:  ES64L-G09RevD.01 24-Apr-2013

 -----------------------------
 # b3lyp 6-31G(2df,p) opt Freq
 -----------------------------

 -----
 titel
 -----
 Symbolic Z-matrix:
 Charge =  0 Multiplicity = 1

 SCF Done:  E(RB3LYP) =  -423.174731996     A.U. after   13 cycles
 Optimization completed.
    -- Stationary point found.
 Normal termination of Gaussian 09 at Mon Jan 27 11:29:33 2020.

 ----------------------------------------------------------------------
 #N Geom=AllCheck Guess=TCheck SCRF=Check GenChk RB3LYP/6-31G(2df,p) Fr
 eq
 ----------------------------------------------------------------------

 Structure from the checkpoint file:  "/scratch/puck/g09_8b813eb8-a339-493c-8853-0cecedd91e47/Gau-61605.chk"
 -----
 titel
 -----
 Charge =  0 Multiplicity = 1

                         Standard orientation:
 ---------------------------------------------------------------------
 Center     Atomic      Atomic             Coordinates (Angstroms)
 Number     Number       Type             X           Y           Z
 ---------------------------------------------------------------------
      1          6           0       -2.059663   -0.760046    0.032244
      2          6           0       -2.059664    0.760043    0.032248
      3          6           0       -0.775893    0.000000    0.031767
      4          6           0        0.305744    0.000004    1.108646
      5          6           0        1.102591   -1.237751    0.649289
      6          8           0        1.035670   -1.161516   -0.793525
      7          6           0        0.267513   -0.000003   -1.067573
      8          8           0        1.035666    1.161511   -0.793533
      9          6           0        1.102588    1.237757    0.649281
     10          1           0       -2.359411   -1.268470    0.943318
     11          1           0       -2.356473   -1.270909   -0.878157
     12          1           0       -2.356494    1.270927   -0.878134
     13          1           0       -2.359397    1.268445    0.943341
     14          1           0       -0.005598    0.000007    2.153010
     15          1           0        2.150928   -1.214597    0.968837
     16          1           0        0.647328   -2.176469    0.987639
     17          1           0       -0.029116   -0.000007   -2.115248
     18          1           0        2.150926    1.214609    0.968828
     19          1           0        0.647323    2.176476    0.987624
 ---------------------------------------------------------------------

 SCF Done:  E(RB3LYP) =  -423.174731996     A.U. after    1 cycles

 The electronic state is 1-A.
 Alpha  occ. eigenvalues --  -19.13501 -19.13500 -10.27177 -10.22938 -10.22937
 Alpha  occ. eigenvalues --  -10.20142 -10.19834 -10.19214 -10.19191  -1.07257
 Alpha  occ. eigenvalues --   -0.99286  -0.86711  -0.78525  -0.70487  -0.66534
 Alpha  occ. eigenvalues --   -0.60898  -0.57259  -0.56402  -0.52237  -0.49127
 Alpha  occ. eigenvalues --   -0.48930  -0.47042  -0.43043  -0.41348  -0.39675
 Alpha  occ. eigenvalues --   -0.38683  -0.37250  -0.36479  -0.33425  -0.32201
 Alpha  occ. eigenvalues --   -0.29953  -0.29952  -0.25912  -0.24312
 Alpha virt. eigenvalues --    0.08680   0.09731   0.11444   0.11471   0.12179
 Alpha virt. eigenvalues --    0.12188   0.14649   0.15339   0.15813   0.16883
 Alpha virt. eigenvalues --    0.17944   0.18221   0.19392   0.21854   0.22141

 Mulliken charges:
               1
     1  C   -0.355712
     2  C   -0.355712
     3  C    0.418567
     4  C   -0.192986
     5  C   -0.072762
     6  O   -0.274473
     7  C    0.136762
     8  O   -0.274472
     9  C   -0.072763
    10  H    0.113121
    11  H    0.120519
    12  H    0.120520
    13  H    0.113120
    14  H    0.077654
    15  H    0.102506
    16  H    0.101131
    17  H    0.091344
    18  H    0.102507
    19  H    0.101131
 Sum of Mulliken charges =   0.00000

 Dipole moment (field-independent basis, Debye):
    X=             -1.4215    Y=              0.0000    Z=              2.1081  Tot=              2.5426
 Quadrupole moment (field-independent basis, Debye-Ang):
   XX=            -54.1946   YY=            -55.0918   ZZ=            -50.5859
   XY=              0.0000   XZ=              3.9633   YZ=              0.0000

  Exact polarizability:  79.611   0.000  72.727   4.260   0.000  69.273
 Approx polarizability: 107.702   0.000 107.665   3.156   0.000 106.380

                      1                      2                      3
                      A                      A                      A
 Frequencies --    161.9487               200.8018               247.0150
 Red. masses --      3.2189                 3.1861                 2.1935
 Frc consts  --      0.0497                 0.0757                 0.0789
 IR Inten    --      0.0424                 2.0752                 0.0095

                      4                      5                      6
                      A                      A                      A
 Frequencies --    254.8498               376.7995               458.0913
 Red. masses --      2.6683                 2.1663                 4.3264
 Frc consts  --      0.1021                 0.1812                 0.5349
 IR Inten    --      2.4652                 0.4053                 9.2966

                      7                      8                      9
                      A                      A                      A
 Frequencies --    578.1050               584.8249               628.4689
 Red. masses --      4.5309                 3.6075                 5.5590
 Frc consts  --      0.8922                 0.7269                 1.2936
 IR Inten    --      1.2505                 0.5253                 0.2597

                     10                     11                     12
                      A                      A                      A
 Frequencies --    770.1411               787.4808               853.4649
 Red. masses --      1.6192                 1.6797                 2.4438
 Frc consts  --      0.5658                 0.6137                 1.0488
 IR Inten    --      1.8931                 1.5607                 0.1910

                     13                     14                     15
                      A                      A                      A
 Frequencies --    904.7206               909.8749               919.8439
 Red. masses --      2.5004                 4.7248                 1.8051
 Frc consts  --      1.2058                 2.3046                 0.8999
 IR Inten    --     27.7877                28.9659                21.7725

                     16                     17                     18
                      A                      A                      A
 Frequencies --    924.9276               957.7974               962.8508
 Red. masses --      3.1718                 2.8495                 1.8191
 Frc consts  --      1.5987                 1.5402                 0.9936
 IR Inten    --     40.2784                84.2544                31.7438

                     19                     20                     21
                      A                      A                      A
 Frequencies --    967.5740               985.3764              1001.0218
 Red. masses --      1.7326                 2.8056                 2.6405
 Frc consts  --      0.9557                 1.6050                 1.5589
 IR Inten    --      1.1513                26.7713                 4.4426

                     22                     23                     24
                      A                      A                      A
 Frequencies --   1054.0980              1060.9923              1079.5123
 Red. masses --      1.4489                 2.7758                 3.0045
 Frc consts  --      0.9485                 1.8410                 2.0629
 IR Inten    --      4.6984                 1.0694                47.2356

                     25                     26                     27
                      A                      A                      A
 Frequencies --   1082.4492              1112.9998              1169.7508
 Red. masses --      1.4247                 2.3120                 1.3863
 Frc consts  --      0.9835                 1.6874                 1.1176
 IR Inten    --      0.5172                44.0094                 6.0190

                     28                     29                     30
                      A                      A                      A
 Frequencies --   1181.6165              1191.9778              1248.8629
 Red. masses --      1.2777                 1.1157                 1.4160
 Frc consts  --      1.0511                 0.9339                 1.3012
 IR Inten    --      0.2029                 2.0562                 0.0996

                     31                     32                     33
                      A                      A                      A
 Frequencies --   1253.9746              1281.1717              1282.3637
 Red. masses --      1.4369                 1.8464                 2.7530
 Frc consts  --      1.3312                 1.7856                 2.6673
 IR Inten    --      3.5011                 6.4138                19.5360

                     34                     35                     36
                      A                      A                      A
 Frequencies --   1309.4494              1368.1327              1376.9325
 Red. masses --      1.1555                 1.3313                 1.4972
 Frc consts  --      1.1673                 1.4682                 1.6725
 IR Inten    --      0.3678                 8.2175                 1.3373

                     37                     38                     39
                      A                      A                      A
 Frequencies --   1429.5161              1467.6263              1514.9980
 Red. masses --      1.8307                 1.0870                 1.6697
 Frc consts  --      2.2041                 1.3795                 2.2579
 IR Inten    --      8.2455                 1.2583                 0.5243

                     40                     41                     42
                      A                      A                      A
 Frequencies --   1516.6415              1533.3615              3019.7120
 Red. masses --      1.0899                 1.1443                 1.0560
 Frc consts  --      1.4771                 1.5852                 5.6732
 IR Inten    --      0.7783                 0.0846                67.9249

                     43                     44                     45
                      A                      A                      A
 Frequencies --   3021.4420              3060.7315              3065.7690
 Red. masses --      1.0574                 1.1101                 1.1094
 Frc consts  --      5.6875                 6.1273                 6.1433
 IR Inten    --     55.1644                15.7997                63.6851

                     46                     47                     48
                      A                      A                      A
 Frequencies --   3123.3028              3123.4405              3126.5656
 Red. masses --      1.0504                 1.0875                 1.0596
 Frc consts  --      6.0373                 6.2512                 6.1026
 IR Inten    --     16.8124                20.0389                15.9515

                     49                     50                     51
                      A                      A                      A
 Frequencies --   3145.2688              3200.1159              3213.8298
 Red. masses --      1.0922                 1.1177                 1.1153
 Frc consts  --      6.3659                 6.7437                 6.7872
 IR Inten    --     18.9949                 0.0089                15.6540

 - Thermochemistry -
 -------------------
 Temperature   298.150 Kelvin.  Pressure   1.00000 Atm.
 Atom     1 has atomic number  6 and mass  12.00000

 Molecular mass:   126.06808 amu.
 Principal axes and moments of inertia in atomic units:
                           1         2         3
     Eigenvalues --   669.942991006.887031142.65833
           X            0.99928   0.00000   0.03789
           Y            0.00000   1.00000   0.00000
           Z           -0.03789   0.00000   0.99928
 This molecule is an asymmetric top.
 Rotational symmetry number  1.
 Warning -- assumption of classical behavior for rotation
           may cause significant error
 Rotational temperatures (Kelvin)      0.12929     0.08602     0.07580
 Rotational constants (GHZ):           2.69387     1.79240     1.57942
 Zero-point vibrational energy     424988.8 (Joules/Mol)
                                  101.57477 (Kcal/Mol)
 Warning -- explicit consideration of   8 degrees of freedom as
           vibrations may cause significant error
 Vibrational temperatures:    233.01   288.91   355.40   366.67   542.13
          (Kelvin)            659.09   831.76   841.43   904.23  1108.06
                             1133.01  1227.94  1301.69  1309.11  1323.45
                             1330.76  1378.06  1385.33  1392.12  1417.74
                             1440.25  1516.61  1526.53  1553.18  1557.40
                             1601.36  1683.01  1700.08  1714.99  1796.83
                             1804.19  1843.32  1845.03  1884.00  1968.44
                             1981.10  2056.75  2111.58  2179.74  2182.11
                             2206.16  4344.69  4347.18  4403.70  4410.95
                             4493.73  4493.93  4498.42  4525.33  4604.25
                             4623.98

 Zero-point correction=                           0.161870 (Hartree/Particle)
 Thermal correction to Energy=                    0.168867
 Thermal correction to Enthalpy=                  0.169811
 Thermal correction to Gibbs Free Energy=         0.130740
 Sum of electronic and zero-point Energies=           -423.012862
 Sum of electronic and thermal Energies=              -423.005865
 Sum of electronic and thermal Enthalpies=            -423.004921
 Sum of electronic and thermal Free Energies=         -423.043992

                     E (Thermal)             CV                S
                      KCal/Mol        Cal/Mol-Kelvin    Cal/Mol-Kelvin
 Total                  105.966             28.657             82.231
 Electronic               0.000              0.000              0.000
 Translational            0.889              2.981             40.409
 Rotational               0.889              2.981             28.135
 Vibrational            104.188             22.696             13.688
 Vibration     1          0.622              1.889              2.527
 Vibration     2          0.638              1.839              2.126
 Vibration     3          0.661              1.768              1.752
 Vibration     4          0.665              1.755              1.697
 Vibration     5          0.747              1.520              1.052
 Vibration     6          0.816              1.343              0.772
 Vibration     7          0.935              1.079              0.489
 Vibration     8          0.942              1.064              0.477

 Normal termination of Gaussian 09 at Mon Jan 27 13:54:04 2020.
