 Gaussian 09, Revision D.01,
 Gaussian 09:  ES64L-G09RevD.01 24-Apr-2013

 -----------------------------
 # b3lyp 6-31G(2df,p) opt Freq
 -----------------------------

 -----
 titel
 -----
 Symbolic Z-matrix:
 Charge =  0 Multiplicity = 1

 SCF Done:  E(RB3LYP) =  -423.155976498     A.U. after   14 cycles
 Optimization completed.
    -- Stationary point found.
 Normal termination of Gaussian 09 at Mon Jan 27 16:07:13 2020.

 ----------------------------------------------------------------------
 #N Geom=AllCheck Guess=TCheck SCRF=Check GenChk RB3LYP/6-31G(2df,p) Fr
 eq
 ----------------------------------------------------------------------

 Structure from the checkpoint file:  "/scratch/puck/g09_cadaaefa-8924-4e29-8398-96ef92f183a4/Gau-83585.chk"
 -----
 titel
 -----
 Charge =  0 Multiplicity = 1

                         Standard orientation:
 ---------------------------------------------------------------------
 Center     Atomic      Atomic             Coordinates (Angstroms)
 Number     Number       Type             X           Y           Z
 ---------------------------------------------------------------------
      1          6           0        1.605774    1.241104   -0.844227
      2          6           0        0.435583    0.852140    0.039180
      3          6           0       -0.472376    2.008623    0.421407
      4          6           0        0.543842   -0.222245    1.093074
      5          6           0        1.415514   -1.380577    0.625900
      6          8           0        0.690730   -1.484877   -0.629855
      7          6           0       -0.249385   -0.495624   -0.192662
      8          6           0       -1.671129   -0.774714   -0.455143
      9          8           0       -2.610382   -0.158654   -0.006671
     10          1           0        2.324903    1.847516   -0.282466
     11          1           0        2.121571    0.369672   -1.250213
     12          1           0        1.252694    1.841529   -1.688941
     13          1           0       -0.856467    2.508361   -0.473658
     14          1           0       -1.331610    1.679456    1.006584
     15          1           0        0.094180    2.746944    1.000171
     16          1           0        0.147560   -0.091092    2.091837
     17          1           0        2.482886   -1.186273    0.475185
     18          1           0        1.283590   -2.291921    1.218874
     19          1           0       -1.809032   -1.648184   -1.130332
 ---------------------------------------------------------------------

 SCF Done:  E(RB3LYP) =  -423.155976498     A.U. after    1 cycles

 The electronic state is 1-A.
 Alpha  occ. eigenvalues --  -19.15376 -19.13718 -10.27220 -10.25202 -10.24847
 Alpha  occ. eigenvalues --  -10.22073 -10.21328 -10.18293 -10.18065  -1.06830
 Alpha  occ. eigenvalues --   -1.04208  -0.86074  -0.74019  -0.72817  -0.69470
 Alpha  occ. eigenvalues --   -0.64473  -0.56120  -0.53027  -0.51391  -0.48045
 Alpha  occ. eigenvalues --   -0.47762  -0.44581  -0.44077  -0.42072  -0.40210
 Alpha  occ. eigenvalues --   -0.39673  -0.38730  -0.38510  -0.35792  -0.34552
 Alpha  occ. eigenvalues --   -0.32514  -0.29045  -0.25809  -0.23932
 Alpha virt. eigenvalues --   -0.03433   0.07460   0.09256   0.10972   0.11575
 Alpha virt. eigenvalues --    0.12721   0.13365   0.14999   0.15555   0.17024
 Alpha virt. eigenvalues --    0.17846   0.18390   0.19644   0.20605   0.21320

 Mulliken charges:
               1
     1  C   -0.461889
     2  C    0.243891
     3  C   -0.461386
     4  C   -0.202703
     5  C   -0.116377
     6  O   -0.319021
     7  C    0.308670
     8  C    0.070628
     9  O   -0.273595
    10  H    0.118880
    11  H    0.139930
    12  H    0.123222
    13  H    0.124598
    14  H    0.148723
    15  H    0.116096
    16  H    0.115028
    17  H    0.113606
    18  H    0.119367
    19  H    0.092332
 Sum of Mulliken charges =   0.00000

 Dipole moment (field-independent basis, Debye):
    X=              2.4477    Y=              0.2813    Z=              0.9503  Tot=              2.6407
 Quadrupole moment (field-independent basis, Debye-Ang):
   XX=            -59.5211   YY=            -52.1757   ZZ=            -51.7487
   XY=              0.9220   XZ=              2.4357   YZ=             -2.2373

  Exact polarizability:  86.249   0.074  81.491   2.909   0.664  65.549
 Approx polarizability: 128.769  -2.390 114.172   5.266   5.238 104.382

                      1                      2                      3
                      A                      A                      A
 Frequencies --    106.5181               171.9060               176.4050
 Red. masses --      3.9312                 2.2030                 1.0768
 Frc consts  --      0.0263                 0.0384                 0.0197
 IR Inten    --      5.0682                 4.8916                 0.1733

                      4                      5                      6
                      A                      A                      A
 Frequencies --    180.5127               235.4992               255.5766
 Red. masses --      2.2375                 1.3891                 3.1463
 Frc consts  --      0.0430                 0.0454                 0.1211
 IR Inten    --      2.6863                 1.4943                 6.9002

                      7                      8                      9
                      A                      A                      A
 Frequencies --    280.6002               320.9706               363.7253
 Red. masses --      2.7621                 2.7573                 2.3184
 Frc consts  --      0.1281                 0.1674                 0.1807
 IR Inten    --      0.7839                 3.5504                 0.0398

                     10                     11                     12
                      A                      A                      A
 Frequencies --    445.0553               490.0487               567.7099
 Red. masses --      5.4723                 2.3823                 4.8039
 Frc consts  --      0.6386                 0.3371                 0.9122
 IR Inten    --      1.4979                 2.5805                 4.4554

                     13                     14                     15
                      A                      A                      A
 Frequencies --    662.5924               701.8412               753.8146
 Red. masses --      4.5139                 3.2303                 4.5042
 Frc consts  --      1.1676                 0.9375                 1.5080
 IR Inten    --      7.5776                 4.0257                33.2740

                     16                     17                     18
                      A                      A                      A
 Frequencies --    879.4471               933.8702               964.9234
 Red. masses --      3.5848                 1.4729                 2.0632
 Frc consts  --      1.6335                 0.7568                 1.1318
 IR Inten    --      4.4444                15.7305                10.2301

                     19                     20                     21
                      A                      A                      A
 Frequencies --    975.2635               992.2305              1006.4741
 Red. masses --      1.4131                 3.6466                 1.6855
 Frc consts  --      0.7919                 2.1152                 1.0060
 IR Inten    --      3.3014                20.4834                28.8121

                     22                     23                     24
                      A                      A                      A
 Frequencies --   1011.6343              1052.6752              1087.5997
 Red. masses --      1.6265                 1.7927                 2.0080
 Frc consts  --      0.9807                 1.1705                 1.3995
 IR Inten    --     15.0350                 1.0612                 8.7500

                     25                     26                     27
                      A                      A                      A
 Frequencies --   1101.8278              1148.8707              1165.0314
 Red. masses --      3.3916                 1.8524                 1.1878
 Frc consts  --      2.4260                 1.4406                 0.9498
 IR Inten    --     60.7544                32.2175                 1.7705

                     28                     29                     30
                      A                      A                      A
 Frequencies --   1205.7456              1227.1951              1306.8668
 Red. masses --      3.7541                 1.8628                 2.3112
 Frc consts  --      3.2157                 1.6529                 2.3257
 IR Inten    --     45.4736                 0.7067                 2.9642

                     31                     32                     33
                      A                      A                      A
 Frequencies --   1335.4274              1402.9697              1408.2857
 Red. masses --      1.4867                 1.6000                 1.6618
 Frc consts  --      1.5621                 1.8556                 1.9419
 IR Inten    --      2.9754                12.2452                19.8550

                     34                     35                     36
                      A                      A                      A
 Frequencies --   1418.2642              1427.4311              1478.1579
 Red. masses --      1.5645                 1.2551                 1.0529
 Frc consts  --      1.8542                 1.5068                 1.3554
 IR Inten    --     22.0398                 7.3870                 4.2446

                     37                     38                     39
                      A                      A                      A
 Frequencies --   1491.3175              1499.0488              1513.7014
 Red. masses --      1.0460                 1.0794                 1.1215
 Frc consts  --      1.3706                 1.4291                 1.5141
 IR Inten    --      4.6700                 6.8730                 0.9673

                     40                     41                     42
                      A                      A                      A
 Frequencies --   1524.9234              1799.2288              2891.9690
 Red. masses --      1.0921                10.1364                 1.0825
 Frc consts  --      1.4963                19.3333                 5.3340
 IR Inten    --      3.3363               175.5334               106.8014

                     43                     44                     45
                      A                      A                      A
 Frequencies --   3033.9197              3034.6604              3038.8097
 Red. masses --      1.0420                 1.0503                 1.0404
 Frc consts  --      5.6512                 5.6989                 5.6604
 IR Inten    --      9.7178                75.8453                37.3024

                     46                     47                     48
                      A                      A                      A
 Frequencies --   3084.0066              3093.7070              3096.9600
 Red. masses --      1.1115                 1.1008                 1.1000
 Frc consts  --      6.2283                 6.2073                 6.2162
 IR Inten    --     29.5942                 0.2091                34.9905

                     49                     50                     51
                      A                      A                      A
 Frequencies --   3137.7274              3146.7593              3198.9967
 Red. masses --      1.0978                 1.0979                 1.0933
 Frc consts  --      6.3679                 6.4051                 6.5918
 IR Inten    --     10.4271                 4.9081                 5.7584

 - Thermochemistry -
 -------------------
 Temperature   298.150 Kelvin.  Pressure   1.00000 Atm.
 Atom     1 has atomic number  6 and mass  12.00000

 Molecular mass:   126.06808 amu.
 Principal axes and moments of inertia in atomic units:
                           1         2         3
     Eigenvalues --   825.223931044.847311490.36678
           X            0.99994   0.00927  -0.00606
           Y           -0.00939   0.99976  -0.01976
           Z            0.00588   0.01982   0.99979
 This molecule is an asymmetric top.
 Rotational symmetry number  1.
 Warning -- assumption of classical behavior for rotation
           may cause significant error
 Rotational temperatures (Kelvin)      0.10496     0.08290     0.05812
 Rotational constants (GHZ):           2.18697     1.72728     1.21094
 Zero-point vibrational energy     411687.1 (Joules/Mol)
                                   98.39557 (Kcal/Mol)
 Warning -- explicit consideration of  12 degrees of freedom as
           vibrations may cause significant error
 Vibrational temperatures:    153.26   247.33   253.81   259.72   338.83
          (Kelvin)            367.72   403.72   461.80   523.32   640.33
                              705.07   816.81   953.32  1009.79  1084.57
                             1265.33  1343.63  1388.31  1403.18  1427.60
                             1448.09  1455.51  1514.56  1564.81  1585.28
                             1652.97  1676.22  1734.80  1765.66  1880.29
                             1921.38  2018.56  2026.21  2040.56  2053.75
                             2126.74  2145.67  2156.79  2177.88  2194.02
                             2588.69  4160.89  4365.13  4366.19  4372.16
                             4437.19  4451.15  4455.83  4514.48  4527.48
                             4602.64

 Zero-point correction=                           0.156803 (Hartree/Particle)
 Thermal correction to Energy=                    0.165863
 Thermal correction to Enthalpy=                  0.166807
 Thermal correction to Gibbs Free Energy=         0.123481
 Sum of electronic and zero-point Energies=           -422.999173
 Sum of electronic and thermal Energies=              -422.990114
 Sum of electronic and thermal Enthalpies=            -422.989170
 Sum of electronic and thermal Free Energies=         -423.032495

                     E (Thermal)             CV                S
                      KCal/Mol        Cal/Mol-Kelvin    Cal/Mol-Kelvin
 Total                  104.080             33.911             91.186
 Electronic               0.000              0.000              0.000
 Translational            0.889              2.981             40.409
 Rotational               0.889              2.981             28.643
 Vibrational            102.303             27.949             22.134
 Vibration     1          0.605              1.944              3.331
 Vibration     2          0.626              1.877              2.415
 Vibration     3          0.628              1.871              2.366
 Vibration     4          0.629              1.866              2.323
 Vibration     5          0.655              1.786              1.837
 Vibration     6          0.666              1.753              1.692
 Vibration     7          0.680              1.710              1.530
 Vibration     8          0.706              1.633              1.305
 Vibration     9          0.737              1.547              1.106
 Vibration    10          0.804              1.372              0.811
 Vibration    11          0.846              1.272              0.683
 Vibration    12          0.924              1.101              0.509

 Normal termination of Gaussian 09 at Mon Jan 27 16:54:20 2020.
