 Gaussian 09, Revision D.01,
 Gaussian 09:  ES64L-G09RevD.01 24-Apr-2013

 -----------------------------
 # b3lyp 6-31G(2df,p) opt Freq
 -----------------------------

 -----
 titel
 -----
 Symbolic Z-matrix:
 Charge =  0 Multiplicity = 1

 SCF Done:  E(RB3LYP) =  -423.132624348     A.U. after   13 cycles
 Optimization completed.
    -- Stationary point found.
 Normal termination of Gaussian 09 at Mon Jan 27 22:04:15 2020.

 ----------------------------------------------------------------------
 #N Geom=AllCheck Guess=TCheck SCRF=Check GenChk RB3LYP/6-31G(2df,p) Fr
 eq
 ----------------------------------------------------------------------

 Structure from the checkpoint file:  "/scratch/puck/g09_c3a0bb53-ed36-412d-82df-b69a38517706/Gau-62994.chk"
 -----
 titel
 -----
 Charge =  0 Multiplicity = 1

                         Standard orientation:
 ---------------------------------------------------------------------
 Center     Atomic      Atomic             Coordinates (Angstroms)
 Number     Number       Type             X           Y           Z
 ---------------------------------------------------------------------
      1          8           0        0.162204    1.947227   -0.077496
      2          6           0        0.026548    0.681155   -0.652720
      3          6           0       -1.060554   -0.296487   -0.142506
      4          6           0       -2.518650   -0.314808   -0.473419
      5          6           0       -2.056921    0.066619    0.916200
      6          6           0       -0.037296   -1.447191   -0.073721
      7          6           0        1.051059   -0.378628   -0.209910
      8          6           0        2.504880   -0.398959   -0.317539
      9          8           0        1.857491   -0.031232    0.917354
     10          1           0        0.668487    1.815249    0.736560
     11          1           0       -0.017229    0.807604   -1.741203
     12          1           0       -2.904465    0.469510   -1.117600
     13          1           0       -3.002423   -1.277999   -0.603398
     14          1           0       -2.107872    1.112654    1.200295
     15          1           0       -2.229944   -0.635722    1.725366
     16          1           0        0.000201   -2.029482    0.850250
     17          1           0       -0.079163   -2.127512   -0.930636
     18          1           0        3.041996   -1.345663   -0.286647
     19          1           0        3.018456    0.413197   -0.830155
 ---------------------------------------------------------------------

 SCF Done:  E(RB3LYP) =  -423.132624348     A.U. after    1 cycles

 The electronic state is 1-A.
 Alpha  occ. eigenvalues --  -19.16111 -19.13589 -10.24380 -10.23928 -10.23176
 Alpha  occ. eigenvalues --  -10.19395 -10.19082 -10.18379 -10.18295  -1.07935
 Alpha  occ. eigenvalues --   -1.01920  -0.86934  -0.79140  -0.67372  -0.66208
 Alpha  occ. eigenvalues --   -0.60056  -0.58154  -0.55190  -0.51377  -0.49834
 Alpha  occ. eigenvalues --   -0.47180  -0.46483  -0.44389  -0.41475  -0.40696
 Alpha  occ. eigenvalues --   -0.38424  -0.36449  -0.35829  -0.32290  -0.31900
 Alpha  occ. eigenvalues --   -0.28631  -0.27942  -0.27254  -0.25582
 Alpha virt. eigenvalues --    0.06446   0.08602   0.10340   0.11506   0.11737
 Alpha virt. eigenvalues --    0.12620   0.13235   0.14986   0.16256   0.16299
 Alpha virt. eigenvalues --    0.17243   0.17833   0.19926   0.22878   0.23216

 Mulliken charges:
               1
     1  O   -0.430516
     2  C    0.008784
     3  C    0.327680
     4  C   -0.346685
     5  C   -0.308335
     6  C   -0.397170
     7  C    0.376390
     8  C   -0.269443
     9  O   -0.276984
    10  H    0.292127
    11  H    0.087200
    12  H    0.116399
    13  H    0.110630
    14  H    0.125410
    15  H    0.111049
    16  H    0.119847
    17  H    0.108925
    18  H    0.121227
    19  H    0.123462
 Sum of Mulliken charges =   0.00000

 Dipole moment (field-independent basis, Debye):
    X=              0.3477    Y=             -1.7327    Z=             -0.8543  Tot=              1.9629
 Quadrupole moment (field-independent basis, Debye-Ang):
   XX=            -51.3341   YY=            -54.5785   ZZ=            -52.7307
   XY=              0.0975   XZ=             -2.4549   YZ=              1.2518

  Exact polarizability:  92.133  -0.604  71.193  -1.655   0.477  65.633
 Approx polarizability: 116.575  -0.429 103.884   0.194   2.705 105.344

                      1                      2                      3
                      A                      A                      A
 Frequencies --     66.1162               206.7449               210.7622
 Red. masses --      3.8977                 4.2081                 3.5109
 Frc consts  --      0.0100                 0.1060                 0.0919
 IR Inten    --      0.2885                 1.7773                 8.0745

                      4                      5                      6
                      A                      A                      A
 Frequencies --    227.7791               260.4563               327.0589
 Red. masses --      2.3722                 2.7228                 3.2143
 Frc consts  --      0.0725                 0.1088                 0.2026
 IR Inten    --      0.8131                11.5940                 0.6413

                      7                      8                      9
                      A                      A                      A
 Frequencies --    368.9129               418.2696               467.2739
 Red. masses --      1.8521                 1.2637                 4.0228
 Frc consts  --      0.1485                 0.1303                 0.5175
 IR Inten    --      5.2884                77.8597                 1.8126

                     10                     11                     12
                      A                      A                      A
 Frequencies --    498.6974               603.8902               699.8421
 Red. masses --      2.9569                 3.7755                 3.5503
 Frc consts  --      0.4333                 0.8112                 1.0245
 IR Inten    --      4.6987                 8.3360                 6.5528

                     13                     14                     15
                      A                      A                      A
 Frequencies --    783.6066               799.2964               806.4163
 Red. masses --      1.0937                 3.8388                 1.8783
 Frc consts  --      0.3957                 1.4450                 0.7197
 IR Inten    --      0.8681                31.7792                 4.5208

                     16                     17                     18
                      A                      A                      A
 Frequencies --    863.5884               879.7570               901.4701
 Red. masses --      2.1299                 2.1042                 1.8634
 Frc consts  --      0.9359                 0.9595                 0.8922
 IR Inten    --      1.7496                 3.1102                 6.9170

                     19                     20                     21
                      A                      A                      A
 Frequencies --    949.0043               963.2756               991.7972
 Red. masses --      3.4505                 1.8025                 2.8275
 Frc consts  --      1.8309                 0.9854                 1.6387
 IR Inten    --     17.9159                 8.9140                26.4278

                     22                     23                     24
                      A                      A                      A
 Frequencies --   1052.4668              1062.4898              1080.5684
 Red. masses --      1.3984                 2.5915                 1.4202
 Frc consts  --      0.9126                 1.7236                 0.9771
 IR Inten    --      2.7853                 9.9527                 1.8762

                     25                     26                     27
                      A                      A                      A
 Frequencies --   1110.0885              1125.0508              1132.9419
 Red. masses --      1.3382                 1.3095                 2.7979
 Frc consts  --      0.9716                 0.9766                 2.1159
 IR Inten    --      5.9413                 3.2520               108.7238

                     28                     29                     30
                      A                      A                      A
 Frequencies --   1165.7651              1182.3311              1190.3993
 Red. masses --      1.6024                 1.8377                 1.2925
 Frc consts  --      1.2830                 1.5136                 1.0791
 IR Inten    --      1.9435                 1.1471                 0.4025

                     31                     32                     33
                      A                      A                      A
 Frequencies --   1204.7602              1237.8976              1263.6730
 Red. masses --      1.4433                 1.4701                 2.1675
 Frc consts  --      1.2343                 1.3273                 2.0393
 IR Inten    --      0.9440                 3.4015                 2.1317

                     34                     35                     36
                      A                      A                      A
 Frequencies --   1324.3355              1373.9023              1426.9211
 Red. masses --      1.5452                 2.8235                 1.4479
 Frc consts  --      1.5967                 3.1402                 1.7369
 IR Inten    --     13.9189                 3.7404                31.6262

                     37                     38                     39
                      A                      A                      A
 Frequencies --   1446.8798              1463.0863              1477.1371
 Red. masses --      1.4550                 1.0884                 1.2224
 Frc consts  --      1.7946                 1.3727                 1.5715
 IR Inten    --     33.8327                 1.6575                21.2551

                     40                     41                     42
                      A                      A                      A
 Frequencies --   1503.6832              1534.5349              3036.9713
 Red. masses --      1.4942                 1.8008                 1.0832
 Frc consts  --      1.9905                 2.4984                 5.8863
 IR Inten    --      0.2613                 7.2713                31.7834

                     43                     44                     45
                      A                      A                      A
 Frequencies --   3049.2196              3085.2892              3107.8016
 Red. masses --      1.0617                 1.0507                 1.1054
 Frc consts  --      5.8159                 5.8925                 6.2906
 IR Inten    --     26.4464                25.0247                12.4534

                     46                     47                     48
                      A                      A                      A
 Frequencies --   3120.3013              3126.8041              3173.1651
 Red. masses --      1.0524                 1.0553                 1.1193
 Frc consts  --      6.0370                 6.0787                 6.6403
 IR Inten    --     18.3772                12.8965                15.8718

                     49                     50                     51
                      A                      A                      A
 Frequencies --   3199.9831              3217.5328              3743.4287
 Red. masses --      1.1176                 1.1159                 1.0651
 Frc consts  --      6.7424                 6.8063                 8.7936
 IR Inten    --      2.5322                10.8402                42.4503

 - Thermochemistry -
 -------------------
 Temperature   298.150 Kelvin.  Pressure   1.00000 Atm.
 Atom     1 has atomic number  8 and mass  15.99491

 Molecular mass:   126.06808 amu.
 Principal axes and moments of inertia in atomic units:
                           1         2         3
     Eigenvalues --   574.637491342.855601592.77034
           X            0.99990   0.00087  -0.01414
           Y           -0.00073   0.99995   0.01037
           Z            0.01415  -0.01036   0.99985
 This molecule is an asymmetric top.
 Rotational symmetry number  1.
 Warning -- assumption of classical behavior for rotation
           may cause significant error
 Rotational temperatures (Kelvin)      0.15073     0.06450     0.05438
 Rotational constants (GHZ):           3.14066     1.34396     1.13308
 Zero-point vibrational energy     415782.6 (Joules/Mol)
                                   99.37443 (Kcal/Mol)
 Warning -- explicit consideration of  11 degrees of freedom as
           vibrations may cause significant error
 Vibrational temperatures:     95.13   297.46   303.24   327.72   374.74
          (Kelvin)            470.56   530.78   601.80   672.30   717.51
                              868.86  1006.92  1127.43  1150.01  1160.25
                             1242.51  1265.77  1297.01  1365.40  1385.94
                             1426.97  1514.26  1528.68  1554.69  1597.17
                             1618.70  1630.05  1677.27  1701.11  1712.72
                             1733.38  1781.06  1818.14  1905.42  1976.74
                             2053.02  2081.73  2105.05  2125.27  2163.46
                             2207.85  4369.52  4387.14  4439.04  4471.43
                             4489.41  4498.77  4565.47  4604.06  4629.31
                             5385.95

 Zero-point correction=                           0.158363 (Hartree/Particle)
 Thermal correction to Energy=                    0.166689
 Thermal correction to Enthalpy=                  0.167633
 Thermal correction to Gibbs Free Energy=         0.125581
 Sum of electronic and zero-point Energies=           -422.974261
 Sum of electronic and thermal Energies=              -422.965935
 Sum of electronic and thermal Enthalpies=            -422.964991
 Sum of electronic and thermal Free Energies=         -423.007043

                     E (Thermal)             CV                S
                      KCal/Mol        Cal/Mol-Kelvin    Cal/Mol-Kelvin
 Total                  104.599             32.608             88.506
 Electronic               0.000              0.000              0.000
 Translational            0.889              2.981             40.409
 Rotational               0.889              2.981             28.599
 Vibrational            102.822             26.646             19.499
 Vibration     1          0.598              1.970              4.266
 Vibration     2          0.641              1.830              2.072
 Vibration     3          0.643              1.824              2.037
 Vibration     4          0.651              1.799              1.896
 Vibration     5          0.669              1.745              1.659
 Vibration     6          0.711              1.621              1.275
 Vibration     7          0.741              1.536              1.084
 Vibration     8          0.781              1.431              0.898
 Vibration     9          0.825              1.323              0.745
 Vibration    10          0.854              1.253              0.661
 Vibration    11          0.962              1.024              0.443

 Optimization completed.
    -- Stationary point found.
 Normal termination of Gaussian 09 at Mon Jan 27 22:49:01 2020.
