 Gaussian 09, Revision D.01,
 Gaussian 09:  ES64L-G09RevD.01 24-Apr-2013

 -----------------------------
 # b3lyp 6-31G(2df,p) opt Freq
 -----------------------------

 -----
 titel
 -----
 Symbolic Z-matrix:
 Charge =  0 Multiplicity = 1

 SCF Done:  E(RB3LYP) =  -423.139636580     A.U. after   14 cycles
 Optimization completed.
    -- Stationary point found.
 Normal termination of Gaussian 09 at Tue Jan 28 08:46:17 2020.

 ----------------------------------------------------------------------
 #N Geom=AllCheck Guess=TCheck SCRF=Check GenChk RB3LYP/6-31G(2df,p) Fr
 eq
 ----------------------------------------------------------------------

 Structure from the checkpoint file:  "/scratch/puck/g09_1ef371d4-a02d-4ab8-9b08-c103bbfcec7c/Gau-187594.chk"
 -----
 titel
 -----
 Charge =  0 Multiplicity = 1

                         Standard orientation:
 ---------------------------------------------------------------------
 Center     Atomic      Atomic             Coordinates (Angstroms)
 Number     Number       Type             X           Y           Z
 ---------------------------------------------------------------------
      1          6           0       -2.603057   -0.638570    0.335109
      2          6           0       -1.444637   -0.549698   -0.666129
      3          6           0       -0.335048    0.372413   -0.192371
      4          8           0       -0.871343    1.657517   -0.090171
      5          6           0        0.633381    0.018342    1.028729
      6          8           0        1.574661    0.980141    0.430333
      7          6           0        1.126225    0.373558   -0.834315
      8          6           0        1.565203   -1.071829   -0.667543
      9          6           0        1.227524   -1.314728    0.605470
     10          1           0       -3.404261   -1.273248   -0.054572
     11          1           0       -2.271821   -1.069846    1.286521
     12          1           0       -3.016017    0.351632    0.540362
     13          1           0       -1.039344   -1.543441   -0.865022
     14          1           0       -1.813340   -0.151716   -1.619163
     15          1           0       -0.143594    2.214328    0.221200
     16          1           0        0.381259    0.223451    2.068332
     17          1           0        1.381081    0.946661   -1.725021
     18          1           0        1.987913   -1.718531   -1.421966
     19          1           0        1.294041   -2.217482    1.194324
 ---------------------------------------------------------------------

 SCF Done:  E(RB3LYP) =  -423.139636580     A.U. after    1 cycles

 The electronic state is 1-A.
 Alpha  occ. eigenvalues --  -19.13984 -19.13944 -10.24814 -10.24048 -10.24020
 Alpha  occ. eigenvalues --  -10.19045 -10.18959 -10.17998 -10.17201  -1.06543
 Alpha  occ. eigenvalues --   -1.01147  -0.81407  -0.76680  -0.69889  -0.68276
 Alpha  occ. eigenvalues --   -0.61646  -0.55455  -0.54853  -0.53449  -0.50613
 Alpha  occ. eigenvalues --   -0.45607  -0.42602  -0.42125  -0.40756  -0.39041
 Alpha  occ. eigenvalues --   -0.37594  -0.36719  -0.36509  -0.34809  -0.33886
 Alpha  occ. eigenvalues --   -0.33183  -0.25889  -0.25829  -0.24401
 Alpha virt. eigenvalues --   -0.00575   0.09034   0.09475   0.11656   0.12339
 Alpha virt. eigenvalues --    0.14567   0.14904   0.15633   0.15799   0.16684
 Alpha virt. eigenvalues --    0.17357   0.18457   0.19047   0.20316   0.20654

 Mulliken charges:
               1
     1  C   -0.380619
     2  C   -0.252146
     3  C    0.485350
     4  O   -0.488352
     5  C   -0.063124
     6  O   -0.313162
     7  C   -0.069689
     8  C   -0.083223
     9  C   -0.082434
    10  H    0.110623
    11  H    0.109366
    12  H    0.138701
    13  H    0.104083
    14  H    0.107167
    15  H    0.286073
    16  H    0.083040
    17  H    0.081713
    18  H    0.113349
    19  H    0.113284
 Sum of Mulliken charges =   0.00000

 Dipole moment (field-independent basis, Debye):
    X=             -0.0787    Y=             -1.5025    Z=             -0.3130  Tot=              1.5367
 Quadrupole moment (field-independent basis, Debye-Ang):
   XX=            -57.7983   YY=            -52.1000   ZZ=            -49.7109
   XY=             -0.3148   XZ=             -2.1345   YZ=             -0.2615

  Exact polarizability:  76.572  -3.601  73.920  -3.794  -1.837  73.633
 Approx polarizability: 105.819  -5.422 113.195  -6.547  -4.337 123.869

                      1                      2                      3
                      A                      A                      A
 Frequencies --     77.6615               165.0846               209.2368
 Red. masses --      2.4034                 3.0121                 1.2276
 Frc consts  --      0.0085                 0.0484                 0.0317
 IR Inten    --      0.1747                 0.2008                 0.5167

                      4                      5                      6
                      A                      A                      A
 Frequencies --    284.0078               308.0107               397.9458
 Red. masses --      2.4377                 3.8135                 3.1421
 Frc consts  --      0.1158                 0.2132                 0.2932
 IR Inten    --      3.8027                 1.1292                 4.6025

                      7                      8                      9
                      A                      A                      A
 Frequencies --    403.4553               504.8317               564.2683
 Red. masses --      3.8111                 3.2499                 2.9508
 Frc consts  --      0.3655                 0.4880                 0.5536
 IR Inten    --      9.0227                 7.3994                 1.1223

                     10                     11                     12
                      A                      A                      A
 Frequencies --    619.2085               625.9329               641.6730
 Red. masses --      1.0914                 3.8385                 2.5023
 Frc consts  --      0.2465                 0.8861                 0.6070
 IR Inten    --     67.1241                 1.9959                 2.5424

                     13                     14                     15
                      A                      A                      A
 Frequencies --    728.0084               771.3926               793.8695
 Red. masses --      2.0484                 3.2880                 1.6385
 Frc consts  --      0.6397                 1.1527                 0.6084
 IR Inten    --     39.8978                 2.0363                 1.5582

                     16                     17                     18
                      A                      A                      A
 Frequencies --    834.5403               857.7788               904.1201
 Red. masses --      2.7930                 3.6614                 1.6360
 Frc consts  --      1.1461                 1.5873                 0.7879
 IR Inten    --     35.3424                15.0821                 3.8362

                     19                     20                     21
                      A                      A                      A
 Frequencies --    921.9091               928.1226               953.1607
 Red. masses --      1.6888                 3.0292                 3.3012
 Frc consts  --      0.8457                 1.5374                 1.7671
 IR Inten    --      3.3237                15.4428                 7.8561

                     22                     23                     24
                      A                      A                      A
 Frequencies --    972.9664               999.3889              1029.3287
 Red. masses --      2.8084                 1.6458                 2.1910
 Frc consts  --      1.5664                 0.9685                 1.3678
 IR Inten    --     15.1373                 6.0931                31.1739

                     25                     26                     27
                      A                      A                      A
 Frequencies --   1086.4252              1121.7388              1141.5829
 Red. masses --      2.1474                 1.6073                 1.8964
 Frc consts  --      1.4934                 1.1916                 1.4561
 IR Inten    --     39.8307                16.4570                 2.1502

                     28                     29                     30
                      A                      A                      A
 Frequencies --   1142.5074              1168.8009              1236.5805
 Red. masses --      1.5969                 1.7611                 1.2287
 Frc consts  --      1.2281                 1.4174                 1.1070
 IR Inten    --      9.3227                29.4990                 1.5611

                     31                     32                     33
                      A                      A                      A
 Frequencies --   1241.0555              1300.9693              1317.5539
 Red. masses --      1.9209                 1.4300                 1.6642
 Frc consts  --      1.7431                 1.4260                 1.7021
 IR Inten    --     61.8621                 1.3529                15.5294

                     34                     35                     36
                      A                      A                      A
 Frequencies --   1322.0084              1344.4914              1405.9849
 Red. masses --      1.4978                 1.3714                 1.2719
 Frc consts  --      1.5424                 1.4606                 1.4814
 IR Inten    --      7.2364                45.3072                 7.5657

                     37                     38                     39
                      A                      A                      A
 Frequencies --   1429.3990              1480.0754              1497.3005
 Red. masses --      1.7940                 1.0814                 1.0410
 Frc consts  --      2.1597                 1.3957                 1.3750
 IR Inten    --     90.3127                 4.1107                 3.7910

                     40                     41                     42
                      A                      A                      A
 Frequencies --   1510.8176              1603.4846              3036.8413
 Red. masses --      1.0718                 5.6225                 1.0440
 Frc consts  --      1.4414                 8.5174                 5.6726
 IR Inten    --      7.7992                 0.1974                14.7824

                     43                     44                     45
                      A                      A                      A
 Frequencies --   3043.1026              3099.4804              3109.1994
 Red. masses --      1.0617                 1.0953                 1.0979
 Frc consts  --      5.7926                 6.1994                 6.2532
 IR Inten    --     24.8946                25.7692                13.7982

                     46                     47                     48
                      A                      A                      A
 Frequencies --   3132.8221              3133.3875              3136.8970
 Red. masses --      1.0894                 1.0997                 1.0934
 Frc consts  --      6.2998                 6.3615                 6.3392
 IR Inten    --     49.6931                24.6447                 8.5367

                     49                     50                     51
                      A                      A                      A
 Frequencies --   3232.3995              3258.1052              3744.3866
 Red. masses --      1.0871                 1.1106                 1.0637
 Frc consts  --      6.6923                 6.9462                 8.7866
 IR Inten    --      2.3405                 4.4572                35.8187

 - Thermochemistry -
 -------------------
 Temperature   298.150 Kelvin.  Pressure   1.00000 Atm.
 Atom     1 has atomic number  6 and mass  12.00000

 Molecular mass:   126.06808 amu.
 Principal axes and moments of inertia in atomic units:
                           1         2         3
     Eigenvalues --   649.307791150.364351391.53601
           X            0.99970   0.01818  -0.01639
           Y           -0.01830   0.99981  -0.00661
           Z            0.01627   0.00691   0.99984
 This molecule is an asymmetric top.
 Rotational symmetry number  1.
 Warning -- assumption of classical behavior for rotation
           may cause significant error
 Rotational temperatures (Kelvin)      0.13339     0.07529     0.06224
 Rotational constants (GHZ):           2.77948     1.56884     1.29694
 Zero-point vibrational energy     417337.0 (Joules/Mol)
                                   99.74594 (Kcal/Mol)
 Warning -- explicit consideration of  10 degrees of freedom as
           vibrations may cause significant error
 Vibrational temperatures:    111.74   237.52   301.04   408.62   443.16
          (Kelvin)            572.55   580.48   726.34   811.86   890.90
                              900.58   923.22  1047.44  1109.86  1142.20
                             1200.72  1234.15  1300.83  1326.42  1335.36
                             1371.38  1399.88  1437.90  1480.97  1563.12
                             1613.93  1642.48  1643.81  1681.64  1779.16
                             1785.60  1871.80  1895.66  1902.07  1934.42
                             2022.90  2056.58  2129.50  2154.28  2173.73
                             2307.05  4369.33  4378.34  4459.46  4473.44
                             4507.43  4508.24  4513.29  4650.70  4687.68
                             5387.33

 Zero-point correction=                           0.158955 (Hartree/Particle)
 Thermal correction to Energy=                    0.166954
 Thermal correction to Enthalpy=                  0.167898
 Thermal correction to Gibbs Free Energy=         0.126621
 Sum of electronic and zero-point Energies=           -422.980681
 Sum of electronic and thermal Energies=              -422.972683
 Sum of electronic and thermal Enthalpies=            -422.971739
 Sum of electronic and thermal Free Energies=         -423.013016

                     E (Thermal)             CV                S
                      KCal/Mol        Cal/Mol-Kelvin    Cal/Mol-Kelvin
 Total                  104.765             32.148             86.875
 Electronic               0.000              0.000              0.000
 Translational            0.889              2.981             40.409
 Rotational               0.889              2.981             28.432
 Vibrational            102.988             26.186             18.034
 Vibration     1          0.599              1.964              3.949
 Vibration     2          0.623              1.885              2.491
 Vibration     3          0.642              1.827              2.050
 Vibration     4          0.682              1.703              1.509
 Vibration     5          0.698              1.658              1.373
 Vibration     6          0.764              1.475              0.970
 Vibration     7          0.769              1.463              0.950
 Vibration     8          0.860              1.239              0.646
 Vibration     9          0.920              1.109              0.515
 Vibration    10          0.979              0.991              0.418

 Optimization completed.
    -- Stationary point found.
 Normal termination of Gaussian 09 at Tue Jan 28 09:22:22 2020.
