 Gaussian 09, Revision D.01,
 Gaussian 09:  ES64L-G09RevD.01 24-Apr-2013

 -----------------------------
 # b3lyp 6-31G(2df,p) opt Freq
 -----------------------------

 -----
 titel
 -----
 Symbolic Z-matrix:
 Charge =  0 Multiplicity = 1

 SCF Done:  E(RB3LYP) =  -423.109758163     A.U. after   14 cycles
 Optimization completed.
    -- Stationary point found.
 Normal termination of Gaussian 09 at Tue Jan 28 14:26:10 2020.

 ----------------------------------------------------------------------
 #N Geom=AllCheck Guess=TCheck SCRF=Check GenChk RB3LYP/6-31G(2df,p) Fr
 eq
 ----------------------------------------------------------------------

 Structure from the checkpoint file:  "/scratch/puck/g09_4216f5c4-349f-457c-8dfb-7f5c0cd55ba8/Gau-147954.chk"
 -----
 titel
 -----
 Charge =  0 Multiplicity = 1

                         Standard orientation:
 ---------------------------------------------------------------------
 Center     Atomic      Atomic             Coordinates (Angstroms)
 Number     Number       Type             X           Y           Z
 ---------------------------------------------------------------------
      1          6           0        3.570751    0.241188    0.313300
      2          8           0        2.472871   -0.234580   -0.427184
      3          6           0        1.234340    0.066890    0.176898
      4          6           0        0.131836   -0.508427   -0.706748
      5          6           0       -1.254313   -0.249937   -0.146120
      6          6           0       -2.297025   -1.294174   -0.232258
      7          8           0       -1.610733   -1.063580    0.992346
      8          6           0       -1.667461    1.133607   -0.063015
      9          6           0       -1.987378    2.291403   -0.016591
     10          1           0        3.607399   -0.201870    1.321259
     11          1           0        4.477544   -0.038908   -0.228408
     12          1           0        3.546328    1.337176    0.423175
     13          1           0        1.173766   -0.373285    1.185699
     14          1           0        1.109251    1.156652    0.285929
     15          1           0        0.209038   -0.072218   -1.708616
     16          1           0        0.278495   -1.588479   -0.800559
     17          1           0       -3.344692   -0.999809   -0.246647
     18          1           0       -2.061095   -2.229246   -0.739151
     19          1           0       -2.277645    3.311968    0.033221
 ---------------------------------------------------------------------

 SCF Done:  E(RB3LYP) =  -423.109758163     A.U. after    1 cycles

 The electronic state is 1-A.
 Alpha  occ. eigenvalues --  -19.16068 -19.13847 -10.26917 -10.24338 -10.22648
 Alpha  occ. eigenvalues --  -10.22248 -10.19249 -10.19072 -10.18598  -1.08136
 Alpha  occ. eigenvalues --   -1.03193  -0.79803  -0.75406  -0.70038  -0.66901
 Alpha  occ. eigenvalues --   -0.63765  -0.60872  -0.53729  -0.51066  -0.49880
 Alpha  occ. eigenvalues --   -0.48039  -0.46739  -0.44905  -0.43098  -0.40551
 Alpha  occ. eigenvalues --   -0.38961  -0.37911  -0.35621  -0.33378  -0.31648
 Alpha  occ. eigenvalues --   -0.28619  -0.27900  -0.26401  -0.25317
 Alpha virt. eigenvalues --    0.02197   0.04039   0.09268   0.10220   0.11483
 Alpha virt. eigenvalues --    0.11957   0.12996   0.13763   0.14917   0.15792
 Alpha virt. eigenvalues --    0.16624   0.17630   0.18277   0.18824   0.20960

 Mulliken charges:
               1
     1  C   -0.229113
     2  O   -0.231998
     3  C   -0.052001
     4  C   -0.296553
     5  C    0.197888
     6  C   -0.213467
     7  O   -0.262838
     8  C    0.317057
     9  C   -0.444488
    10  H    0.105102
    11  H    0.126065
    12  H    0.103869
    13  H    0.102294
    14  H    0.098375
    15  H    0.118934
    16  H    0.116486
    17  H    0.124182
    18  H    0.118705
    19  H    0.201500
 Sum of Mulliken charges =   0.00000

 Dipole moment (field-independent basis, Debye):
    X=             -0.1189    Y=              0.7167    Z=             -0.7503  Tot=              1.0444
 Quadrupole moment (field-independent basis, Debye-Ang):
   XX=            -48.8773   YY=            -48.2653   ZZ=            -56.1797
   XY=              0.6012   XZ=              5.1206   YZ=              2.1756

  Exact polarizability:  87.997  -1.660  91.100   1.218   2.149  57.610
 Approx polarizability: 104.038  -5.732 144.441   0.173   0.771  91.867

                      1                      2                      3
                      A                      A                      A
 Frequencies --     53.2480                79.2472               110.9108
 Red. masses --      3.5185                 1.9965                 3.6494
 Frc consts  --      0.0059                 0.0074                 0.0264
 IR Inten    --      1.3669                 2.7901                 2.4353

                      4                      5                      6
                      A                      A                      A
 Frequencies --    119.5936               174.2558               222.4922
 Red. masses --      2.8109                 3.3593                 3.4444
 Frc consts  --      0.0237                 0.0601                 0.1005
 IR Inten    --      1.1514                 1.9067                 2.5893

                      7                      8                      9
                      A                      A                      A
 Frequencies --    235.6303               300.9817               329.7245
 Red. masses --      1.2579                 3.7435                 3.1884
 Frc consts  --      0.0411                 0.1998                 0.2042
 IR Inten    --      3.9941                 0.1245                 0.2378

                     10                     11                     12
                      A                      A                      A
 Frequencies --    400.3154               464.7598               551.6463
 Red. masses --      3.6317                 3.1197                 6.7890
 Frc consts  --      0.3429                 0.3970                 1.2172
 IR Inten    --      3.2387                 3.7488                 8.4917

                     13                     14                     15
                      A                      A                      A
 Frequencies --    579.9562               625.1135               663.8517
 Red. masses --      4.9173                 1.2147                 1.2497
 Frc consts  --      0.9745                 0.2797                 0.3245
 IR Inten    --      6.1523                40.4145                33.6987

                     16                     17                     18
                      A                      A                      A
 Frequencies --    719.4620               788.8512               847.0697
 Red. masses --      4.8649                 1.5087                 2.3225
 Frc consts  --      1.4837                 0.5531                 0.9819
 IR Inten    --     18.0636                 3.1866                15.4926

                     19                     20                     21
                      A                      A                      A
 Frequencies --    919.1091               956.0710              1000.9946
 Red. masses --      1.5386                 5.7768                 3.9039
 Frc consts  --      0.7658                 3.1111                 2.3047
 IR Inten    --      3.5797                18.5587                34.2834

                     22                     23                     24
                      A                      A                      A
 Frequencies --   1066.3797              1080.7524              1134.0995
 Red. masses --      1.9654                 2.2649                 1.2904
 Frc consts  --      1.3168                 1.5586                 0.9778
 IR Inten    --      3.2037                 2.6692                 1.9913

                     25                     26                     27
                      A                      A                      A
 Frequencies --   1163.2311              1169.0943              1181.1805
 Red. masses --      4.4208                 1.3770                 1.2770
 Frc consts  --      3.5244                 1.1089                 1.0497
 IR Inten    --    173.0354                 6.6821                 1.1206

                     28                     29                     30
                      A                      A                      A
 Frequencies --   1222.9921              1227.9753              1264.6845
 Red. masses --      1.6291                 1.6590                 1.8898
 Frc consts  --      1.4356                 1.4739                 1.7809
 IR Inten    --     14.6299                39.1825                 8.9144

                     31                     32                     33
                      A                      A                      A
 Frequencies --   1302.1960              1318.2792              1379.4469
 Red. masses --      1.3891                 1.4541                 2.5039
 Frc consts  --      1.3879                 1.4888                 2.8073
 IR Inten    --      1.4295                10.1762                14.0244

                     34                     35                     36
                      A                      A                      A
 Frequencies --   1427.8682              1474.2314              1481.4302
 Red. masses --      1.4310                 1.0904                 1.1657
 Frc consts  --      1.7189                 1.3963                 1.5073
 IR Inten    --     21.7639                 3.4914                 0.9736

                     37                     38                     39
                      A                      A                      A
 Frequencies --   1485.5298              1505.3824              1519.0709
 Red. masses --      1.0467                 1.0607                 1.2271
 Frc consts  --      1.3609                 1.4162                 1.6683
 IR Inten    --      4.9661                11.0228                 1.0602

                     40                     41                     42
                      A                      A                      A
 Frequencies --   1534.0302              2237.2917              2961.4957
 Red. masses --      1.0929                 5.9532                 1.0468
 Frc consts  --      1.5152                17.5569                 5.4091
 IR Inten    --      1.7509                 1.2430                30.8021

                     43                     44                     45
                      A                      A                      A
 Frequencies --   2973.4674              2997.2581              3012.9570
 Red. masses --      1.0439                 1.1053                 1.1034
 Frc consts  --      5.4382                 5.8502                 5.9014
 IR Inten    --     65.2605                48.7375                49.6241

                     46                     47                     48
                      A                      A                      A
 Frequencies --   3050.5938              3083.4703              3101.7967
 Red. masses --      1.0591                 1.0503                 1.1041
 Frc consts  --      5.8069                 5.8838                 6.2585
 IR Inten    --     13.3811                25.1634                18.6012

                     49                     50                     51
                      A                      A                      A
 Frequencies --   3113.0051              3176.9795              3500.7722
 Red. masses --      1.0958                 1.1199                 1.1621
 Frc consts  --      6.2569                 6.6600                 8.3915
 IR Inten    --     31.9876                18.7582                68.2063

 - Thermochemistry -
 -------------------
 Temperature   298.150 Kelvin.  Pressure   1.00000 Atm.
 Atom     1 has atomic number  6 and mass  12.00000

 Molecular mass:   126.06808 amu.
 Principal axes and moments of inertia in atomic units:
                           1         2         3
     Eigenvalues --   641.798692063.119162457.80430
           X            0.99979   0.01086   0.01709
           Y           -0.01142   0.99939   0.03293
           Z           -0.01672  -0.03312   0.99931
 This molecule is an asymmetric top.
 Rotational symmetry number  1.
 Warning -- assumption of classical behavior for rotation
           may cause significant error
 Rotational temperatures (Kelvin)      0.13495     0.04198     0.03524
 Rotational constants (GHZ):           2.81201     0.87476     0.73429
 Zero-point vibrational energy     408466.3 (Joules/Mol)
                                   97.62578 (Kcal/Mol)
 Warning -- explicit consideration of  13 degrees of freedom as
           vibrations may cause significant error
 Vibrational temperatures:     76.61   114.02   159.58   172.07   250.71
          (Kelvin)            320.12   339.02   433.05   474.40   575.96
                              668.68   793.70   834.43   899.40   955.13
                             1035.14  1134.98  1218.74  1322.39  1375.57
                             1440.21  1534.28  1554.96  1631.71  1673.63
                             1682.06  1699.45  1759.61  1766.78  1819.60
                             1873.57  1896.71  1984.71  2054.38  2121.09
                             2131.45  2137.34  2165.91  2185.60  2207.12
                             3218.96  4260.93  4278.15  4312.38  4334.97
                             4389.12  4436.42  4462.79  4478.91  4570.96
                             5036.82

 Zero-point correction=                           0.155577 (Hartree/Particle)
 Thermal correction to Energy=                    0.165684
 Thermal correction to Enthalpy=                  0.166628
 Thermal correction to Gibbs Free Energy=         0.119648
 Sum of electronic and zero-point Energies=           -422.954182
 Sum of electronic and thermal Energies=              -422.944074
 Sum of electronic and thermal Enthalpies=            -422.943130
 Sum of electronic and thermal Free Energies=         -422.990111

                     E (Thermal)             CV                S
                      KCal/Mol        Cal/Mol-Kelvin    Cal/Mol-Kelvin
 Total                  103.968             35.763             98.879
 Electronic               0.000              0.000              0.000
 Translational            0.889              2.981             40.409
 Rotational               0.889              2.981             29.566
 Vibrational            102.191             29.801             28.904
 Vibration     1          0.596              1.976              4.693
 Vibration     2          0.600              1.963              3.909
 Vibration     3          0.607              1.940              3.253
 Vibration     4          0.609              1.933              3.107
 Vibration     5          0.627              1.874              2.389
 Vibration     6          0.648              1.807              1.939
 Vibration     7          0.655              1.786              1.836
 Vibration     8          0.693              1.672              1.411
 Vibration     9          0.713              1.616              1.261
 Vibration    10          0.766              1.469              0.961
 Vibration    11          0.822              1.328              0.752
 Vibration    12          0.907              1.136              0.541
 Vibration    13          0.937              1.075              0.485

 Optimization completed.
    -- Stationary point found.
 Normal termination of Gaussian 09 at Tue Jan 28 14:58:28 2020.
