 Gaussian 09, Revision D.01,
 Gaussian 09:  ES64L-G09RevD.01 24-Apr-2013

 -----------------------------
 # b3lyp 6-31G(2df,p) opt Freq
 -----------------------------

 -----
 titel
 -----
 Symbolic Z-matrix:
 Charge =  0 Multiplicity = 1

 SCF Done:  E(RB3LYP) =  -423.207466568     A.U. after   14 cycles
 Optimization completed.
    -- Stationary point found.
 Normal termination of Gaussian 09 at Mon Jan 27 11:12:20 2020.

 ----------------------------------------------------------------------
 #N Geom=AllCheck Guess=TCheck SCRF=Check GenChk RB3LYP/6-31G(2df,p) Fr
 eq
 ----------------------------------------------------------------------

 Structure from the checkpoint file:  "/scratch/puck/g09_4208eee3-2cfa-4d6c-9a7c-921f0b1d24f6/Gau-69651.chk"
 -----
 titel
 -----
 Charge =  0 Multiplicity = 1

                         Standard orientation:
 ---------------------------------------------------------------------
 Center     Atomic      Atomic             Coordinates (Angstroms)
 Number     Number       Type             X           Y           Z
 ---------------------------------------------------------------------
      1          6           0        3.669162   -0.498184   -0.184360
      2          8           0        2.280692   -0.449697   -0.404701
      3          6           0        1.625249    0.458350    0.463087
      4          6           0        0.155021    0.403453    0.216559
      5          6           0       -0.664250    1.438394   -0.102156
      6          8           0       -1.951633    1.016291   -0.224901
      7          6           0       -1.959341   -0.330018    0.012972
      8          6           0       -3.274718   -1.015745   -0.080565
      9          6           0       -0.697831   -0.752609    0.289987
     10          1           0        3.911458   -0.814284    0.843483
     11          1           0        4.086363   -1.225587   -0.884959
     12          1           0        4.147838    0.478802   -0.360573
     13          1           0        1.852378    0.193151    1.511149
     14          1           0        1.999021    1.484248    0.306652
     15          1           0       -0.494903    2.490502   -0.264480
     16          1           0       -3.996127   -0.601710    0.633121
     17          1           0       -3.710704   -0.915132   -1.081093
     18          1           0       -3.153454   -2.079739    0.133762
     19          1           0       -0.394094   -1.764861    0.506615
 ---------------------------------------------------------------------

 SCF Done:  E(RB3LYP) =  -423.207466568     A.U. after    1 cycles

 The electronic state is 1-A.
 Alpha  occ. eigenvalues --  -19.19288 -19.13666 -10.23114 -10.22727 -10.22172
 Alpha  occ. eigenvalues --  -10.21944 -10.18830 -10.17811 -10.16868  -1.09642
 Alpha  occ. eigenvalues --   -1.02942  -0.80136  -0.77506  -0.71543  -0.68006
 Alpha  occ. eigenvalues --   -0.64139  -0.57507  -0.54106  -0.50895  -0.47942
 Alpha  occ. eigenvalues --   -0.46840  -0.45078  -0.44998  -0.41512  -0.40705
 Alpha  occ. eigenvalues --   -0.39694  -0.39436  -0.38181  -0.36284  -0.34833
 Alpha  occ. eigenvalues --   -0.31674  -0.26636  -0.25030  -0.21227
 Alpha virt. eigenvalues --    0.02348   0.06483   0.10229   0.11213   0.13293
 Alpha virt. eigenvalues --    0.13372   0.15093   0.15388   0.16456   0.16896
 Alpha virt. eigenvalues --    0.18087   0.18205   0.18727   0.20662   0.22782

 Mulliken charges:
               1
     1  C   -0.218349
     2  O   -0.230993
     3  C   -0.193659
     4  C    0.271291
     5  C   -0.124780
     6  O   -0.182484
     7  C    0.379865
     8  C   -0.488506
     9  C   -0.373231
    10  H    0.100900
    11  H    0.126840
    12  H    0.101683
    13  H    0.091666
    14  H    0.088559
    15  H    0.130723
    16  H    0.136868
    17  H    0.138317
    18  H    0.135634
    19  H    0.109653
 Sum of Mulliken charges =   0.00000

 Dipole moment (field-independent basis, Debye):
    X=              0.4853    Y=             -0.0331    Z=              0.8175  Tot=              0.9513
 Quadrupole moment (field-independent basis, Debye-Ang):
   XX=            -46.3767   YY=            -50.0858   ZZ=            -54.8461
   XY=              3.1278   XZ=              1.2853   YZ=             -0.7018

  Exact polarizability: 109.290   2.843  79.457   3.770  -2.969  53.938
 Approx polarizability: 140.393  -2.270 125.989   8.575  -7.047  83.318

                      1                      2                      3
                      A                      A                      A
 Frequencies --     50.5450                88.7210               100.1614
 Red. masses --      2.9625                 2.3159                 3.1387
 Frc consts  --      0.0045                 0.0107                 0.0186
 IR Inten    --      0.9741                 4.3492                 1.1133

                      4                      5                      6
                      A                      A                      A
 Frequencies --    131.3652               210.6362               230.0882
 Red. masses --      1.1441                 2.6075                 1.3230
 Frc consts  --      0.0116                 0.0682                 0.0413
 IR Inten    --      0.0450                 0.9791                 3.0620

                      7                      8                      9
                      A                      A                      A
 Frequencies --    280.1837               341.1104               371.4837
 Red. masses --      2.5110                 3.4065                 3.0852
 Frc consts  --      0.1161                 0.2335                 0.2509
 IR Inten    --      0.6937                 0.9327                 0.3828

                     10                     11                     12
                      A                      A                      A
 Frequencies --    413.0535               618.9648               638.0187
 Red. masses --      4.0787                 3.3515                 4.3010
 Frc consts  --      0.4100                 0.7565                 1.0315
 IR Inten    --      1.7002                 4.1905                 1.3635

                     13                     14                     15
                      A                      A                      A
 Frequencies --    667.1888               743.7914               780.1313
 Red. masses --      3.4925                 1.4112                 2.7661
 Frc consts  --      0.9160                 0.4600                 0.9919
 IR Inten    --      2.6594                 9.5568                10.6981

                     16                     17                     18
                      A                      A                      A
 Frequencies --    818.3962               940.1791               976.6354
 Red. masses --      1.4842                 2.8442                 3.8913
 Frc consts  --      0.5857                 1.4813                 2.1868
 IR Inten    --     28.0880                23.7633                18.6951

                     19                     20                     21
                      A                      A                      A
 Frequencies --    996.7800              1012.6519              1029.2330
 Red. masses --      2.5309                 1.7763                 2.2514
 Frc consts  --      1.4816                 1.0732                 1.4052
 IR Inten    --     12.4246                 8.4643                 1.3135

                     22                     23                     24
                      A                      A                      A
 Frequencies --   1065.0136              1144.2448              1161.3238
 Red. masses --      1.4777                 5.4426                 2.0261
 Frc consts  --      0.9875                 4.1985                 1.6099
 IR Inten    --      1.8653               181.2941                41.0670

                     25                     26                     27
                      A                      A                      A
 Frequencies --   1178.3795              1183.0794              1220.1037
 Red. masses --      2.9963                 1.3521                 1.6177
 Frc consts  --      2.4514                 1.1150                 1.4188
 IR Inten    --      8.1693                 1.5980                29.6659

                     28                     29                     30
                      A                      A                      A
 Frequencies --   1232.3349              1262.5395              1301.4686
 Red. masses --      1.6303                 1.2492                 2.4047
 Frc consts  --      1.4587                 1.1732                 2.3998
 IR Inten    --     15.3915                 3.7790                 7.7690

                     31                     32                     33
                      A                      A                      A
 Frequencies --   1409.9992              1413.9992              1419.2851
 Red. masses --      3.8885                 1.2766                 1.3556
 Frc consts  --      4.5548                 1.5039                 1.6089
 IR Inten    --      5.7203                29.8270                20.6181

                     34                     35                     36
                      A                      A                      A
 Frequencies --   1473.0889              1479.5805              1484.7773
 Red. masses --      1.0426                 1.1563                 1.0541
 Frc consts  --      1.3329                 1.4914                 1.3692
 IR Inten    --      5.2160                 0.9448                 5.2619

                     37                     38                     39
                      A                      A                      A
 Frequencies --   1490.8001              1502.1983              1521.4877
 Red. masses --      1.1200                 1.0734                 1.0803
 Frc consts  --      1.4665                 1.4271                 1.4734
 IR Inten    --      7.5091                 6.6012                 1.5621

                     40                     41                     42
                      A                      A                      A
 Frequencies --   1597.4440              1663.8591              2939.8104
 Red. masses --      5.6997                 6.5041                 1.0597
 Frc consts  --      8.5694                10.6088                 5.3961
 IR Inten    --     38.4328                 3.5995                39.1206

                     43                     44                     45
                      A                      A                      A
 Frequencies --   2964.4624              2975.0399              3005.7152
 Red. masses --      1.0439                 1.0916                 1.1029
 Frc consts  --      5.4049                 5.6925                 5.8704
 IR Inten    --     82.8909                62.8188                57.6433

                     46                     47                     48
                      A                      A                      A
 Frequencies --   3030.4276              3080.4075              3113.3735
 Red. masses --      1.0382                 1.1002                 1.0953
 Frc consts  --      5.6175                 6.1508                 6.2553
 IR Inten    --     33.1649                15.4247                29.2613

                     49                     50                     51
                      A                      A                      A
 Frequencies --   3130.2824              3257.8066              3271.0566
 Red. masses --      1.0982                 1.0969                 1.0980
 Frc consts  --      6.3402                 6.8589                 6.9220
 IR Inten    --      9.9493                 2.3161                 0.3255

 - Thermochemistry -
 -------------------
 Temperature   298.150 Kelvin.  Pressure   1.00000 Atm.
 Atom     1 has atomic number  6 and mass  12.00000

 Molecular mass:   126.06808 amu.
 Principal axes and moments of inertia in atomic units:
                           1         2         3
     Eigenvalues --   378.780432268.197472546.10516
           X            0.99985   0.01658   0.00426
           Y           -0.01657   0.99986  -0.00308
           Z           -0.00431   0.00301   0.99999
 This molecule is an asymmetric top.
 Rotational symmetry number  1.
 Rotational temperatures (Kelvin)      0.22866     0.03819     0.03402
 Rotational constants (GHZ):           4.76461     0.79567     0.70882
 Zero-point vibrational energy     415180.2 (Joules/Mol)
                                   99.23045 (Kcal/Mol)
 Warning -- explicit consideration of  11 degrees of freedom as
           vibrations may cause significant error
 Vibrational temperatures:     72.72   127.65   144.11   189.01   303.06
          (Kelvin)            331.05   403.12   490.78   534.48   594.29
                              890.55   917.97   959.93  1070.15  1122.43
                             1177.49  1352.71  1405.16  1434.14  1456.98
                             1480.83  1532.32  1646.31  1670.88  1695.42
                             1702.19  1755.45  1773.05  1816.51  1872.52
                             2028.67  2034.43  2042.03  2119.44  2128.78
                             2136.26  2144.93  2161.33  2189.08  2298.36
                             2393.92  4229.73  4265.19  4280.41  4324.55
                             4360.10  4432.01  4479.44  4503.77  4687.25
                             4706.32

 Zero-point correction=                           0.158134 (Hartree/Particle)
 Thermal correction to Energy=                    0.167558
 Thermal correction to Enthalpy=                  0.168502
 Thermal correction to Gibbs Free Energy=         0.122919
 Sum of electronic and zero-point Energies=           -423.049333
 Sum of electronic and thermal Energies=              -423.039909
 Sum of electronic and thermal Enthalpies=            -423.038965
 Sum of electronic and thermal Free Energies=         -423.084548

                     E (Thermal)             CV                S
                      KCal/Mol        Cal/Mol-Kelvin    Cal/Mol-Kelvin
 Total                  105.144             33.271             95.937
 Electronic               0.000              0.000              0.000
 Translational            0.889              2.981             40.409
 Rotational               0.889              2.981             29.171
 Vibrational            103.367             27.309             26.358
 Vibration     1          0.595              1.977              4.796
 Vibration     2          0.602              1.957              3.688
 Vibration     3          0.604              1.949              3.451
 Vibration     4          0.612              1.922              2.926
 Vibration     5          0.643              1.825              2.038
 Vibration     6          0.652              1.795              1.878
 Vibration     7          0.680              1.710              1.533
 Vibration     8          0.721              1.593              1.207
 Vibration     9          0.743              1.531              1.074
 Vibration    10          0.777              1.442              0.916
 Vibration    11          0.979              0.992              0.418

 Optimization completed.
    -- Stationary point found.
 Normal termination of Gaussian 09 at Mon Jan 27 11:45:45 2020.
