 Gaussian 09, Revision D.01,
 Gaussian 09:  ES64L-G09RevD.01 24-Apr-2013

 -----------------------------
 # b3lyp 6-31G(2df,p) opt Freq
 -----------------------------

 -----
 titel
 -----
 Symbolic Z-matrix:
 Charge =  0 Multiplicity = 1

 SCF Done:  E(RB3LYP) =  -423.115673948     A.U. after   12 cycles
 Optimization completed.
    -- Stationary point found.
 Normal termination of Gaussian 09 at Mon Jan 27 23:39:07 2020.

 ----------------------------------------------------------------------
 #N Geom=AllCheck Guess=TCheck SCRF=Check GenChk RB3LYP/6-31G(2df,p) Fr
 eq
 ----------------------------------------------------------------------

 Structure from the checkpoint file:  "/scratch/puck/g09_bb1ea6af-c395-43a3-9c1b-d522803067c8/Gau-103836.chk"
 -----
 titel
 -----
 Charge =  0 Multiplicity = 1

                         Standard orientation:
 ---------------------------------------------------------------------
 Center     Atomic      Atomic             Coordinates (Angstroms)
 Number     Number       Type             X           Y           Z
 ---------------------------------------------------------------------
      1          6           0       -0.697130    1.896020   -0.343615
      2          6           0       -0.356227    0.459041   -0.092080
      3          6           0       -1.328379   -0.566777    0.505066
      4          8           0       -2.685802   -0.249479    0.420635
      5          6           0       -0.691585   -0.828520   -0.822518
      6          8           0        0.622377   -1.365066   -0.644871
      7          6           0        1.026239   -0.144264    0.005429
      8          6           0        2.053788   -0.128533    1.086814
      9          6           0        2.351643    0.475281   -0.282208
     10          1           0       -0.432247    2.527688    0.513944
     11          1           0       -0.168858    2.285824   -1.219789
     12          1           0       -1.770498    2.005443   -0.520945
     13          1           0       -1.027639   -1.173608    1.361380
     14          1           0       -2.888196    0.397502    1.105206
     15          1           0       -1.230375   -1.046110   -1.737245
     16          1           0        1.914235    0.538945    1.931201
     17          1           0        2.530134   -1.072718    1.327136
     18          1           0        2.412879    1.555149   -0.370800
     19          1           0        3.017862   -0.075239   -0.937530
 ---------------------------------------------------------------------

 SCF Done:  E(RB3LYP) =  -423.115673948     A.U. after    1 cycles

 The electronic state is 1-A.
 Alpha  occ. eigenvalues --  -19.15190 -19.13895 -10.24256 -10.23450 -10.23317
 Alpha  occ. eigenvalues --  -10.19932 -10.18666 -10.18555 -10.18501  -1.05865
 Alpha  occ. eigenvalues --   -1.03122  -0.84864  -0.82725  -0.72059  -0.63043
 Alpha  occ. eigenvalues --   -0.60913  -0.59254  -0.53322  -0.51603  -0.49937
 Alpha  occ. eigenvalues --   -0.47537  -0.45862  -0.42210  -0.41816  -0.41156
 Alpha  occ. eigenvalues --   -0.39155  -0.37302  -0.36414  -0.33886  -0.31407
 Alpha  occ. eigenvalues --   -0.31107  -0.28408  -0.24273  -0.22138
 Alpha virt. eigenvalues --    0.06097   0.08492   0.09896   0.11419   0.12795
 Alpha virt. eigenvalues --    0.13690   0.14257   0.14618   0.15919   0.16155
 Alpha virt. eigenvalues --    0.17500   0.19836   0.20493   0.21495   0.22566

 Mulliken charges:
               1
     1  C   -0.514079
     2  C    0.130544
     3  C    0.005893
     4  O   -0.428815
     5  C    0.029531
     6  O   -0.323695
     7  C    0.430960
     8  C   -0.340243
     9  C   -0.346027
    10  H    0.116079
    11  H    0.129363
    12  H    0.130907
    13  H    0.091095
    14  H    0.291006
    15  H    0.113113
    16  H    0.114048
    17  H    0.127261
    18  H    0.115596
    19  H    0.127463
 Sum of Mulliken charges =   0.00000

 Dipole moment (field-independent basis, Debye):
    X=             -0.0471    Y=              2.2194    Z=              1.2004  Tot=              2.5237
 Quadrupole moment (field-independent basis, Debye-Ang):
   XX=            -53.8807   YY=            -54.1480   ZZ=            -50.3238
   XY=             -1.7975   XZ=             -1.7238   YZ=              0.1980

  Exact polarizability:  87.299   1.319  72.014   0.296   0.031  68.169
 Approx polarizability: 116.071   3.259 107.185  -0.423   3.533 104.267

                      1                      2                      3
                      A                      A                      A
 Frequencies --    116.2852               183.2048               197.3436
 Red. masses --      4.0848                 1.1567                 2.0794
 Frc consts  --      0.0325                 0.0229                 0.0477
 IR Inten    --      0.1525                 1.2841                 0.3010

                      4                      5                      6
                      A                      A                      A
 Frequencies --    208.4351               245.3635               281.9413
 Red. masses --      2.3547                 3.0740                 2.1557
 Frc consts  --      0.0603                 0.1090                 0.1010
 IR Inten    --      3.6683                 0.8508                 9.3238

                      7                      8                      9
                      A                      A                      A
 Frequencies --    340.1132               355.2937               435.7881
 Red. masses --      1.3840                 2.7509                 3.1643
 Frc consts  --      0.0943                 0.2046                 0.3541
 IR Inten    --    112.1745                 0.5356                10.7199

                     10                     11                     12
                      A                      A                      A
 Frequencies --    464.5910               523.4842               609.1299
 Red. masses --      4.7058                 3.8976                 4.2851
 Frc consts  --      0.5984                 0.6293                 0.9368
 IR Inten    --      4.7205                 3.1418                 1.6785

                     13                     14                     15
                      A                      A                      A
 Frequencies --    672.0438               756.2974               822.3955
 Red. masses --      3.4074                 1.0782                 2.7878
 Frc consts  --      0.9067                 0.3634                 1.1109
 IR Inten    --      0.6022                 2.6604                15.1014

                     16                     17                     18
                      A                      A                      A
 Frequencies --    848.3402               874.6046               889.3225
 Red. masses --      2.3047                 1.7469                 1.5522
 Frc consts  --      0.9773                 0.7873                 0.7233
 IR Inten    --      8.1599                 6.3917                 2.6224

                     19                     20                     21
                      A                      A                      A
 Frequencies --    968.0988               975.1021               979.9381
 Red. masses --      2.8892                 2.1247                 2.3301
 Frc consts  --      1.5954                 1.1903                 1.3183
 IR Inten    --     27.6256                 9.2796                 2.1466

                     22                     23                     24
                      A                      A                      A
 Frequencies --   1012.4567              1045.6391              1056.9253
 Red. masses --      2.8031                 1.5136                 1.9268
 Frc consts  --      1.6929                 0.9750                 1.2682
 IR Inten    --     75.4455                11.3582                 1.2105

                     25                     26                     27
                      A                      A                      A
 Frequencies --   1066.8342              1080.1705              1114.8693
 Red. masses --      1.5013                 1.6300                 1.8780
 Frc consts  --      1.0067                 1.1205                 1.3753
 IR Inten    --      0.2926                31.1162                17.1007

                     28                     29                     30
                      A                      A                      A
 Frequencies --   1149.8788              1152.4875              1186.7253
 Red. masses --      1.8196                 4.0158                 1.2628
 Frc consts  --      1.4175                 3.1426                 1.0478
 IR Inten    --      0.4294                88.9429                 0.1349

                     31                     32                     33
                      A                      A                      A
 Frequencies --   1232.3285              1254.0966              1283.5755
 Red. masses --      2.3868                 1.6866                 1.3070
 Frc consts  --      2.1356                 1.5629                 1.2687
 IR Inten    --      7.4695                30.0180                37.8882

                     34                     35                     36
                      A                      A                      A
 Frequencies --   1350.4248              1402.6297              1419.4823
 Red. masses --      2.0010                 1.4995                 1.7424
 Frc consts  --      2.1500                 1.7381                 2.0686
 IR Inten    --     32.0436                 1.7953                 1.9304

                     37                     38                     39
                      A                      A                      A
 Frequencies --   1447.6582              1450.5105              1494.7933
 Red. masses --      1.1583                 2.3793                 1.0511
 Frc consts  --      1.4303                 2.9494                 1.3837
 IR Inten    --      2.6702                 0.6641                 3.7880

                     40                     41                     42
                      A                      A                      A
 Frequencies --   1498.5267              1505.7316              3021.0165
 Red. masses --      1.1135                 1.9078                 1.0410
 Frc consts  --      1.4732                 2.5485                 5.5975
 IR Inten    --      1.9974                25.3785                34.1519

                     43                     44                     45
                      A                      A                      A
 Frequencies --   3080.5829              3081.9978              3114.5531
 Red. masses --      1.0887                 1.0946                 1.0990
 Frc consts  --      6.0872                 6.1261                 6.2810
 IR Inten    --     19.1529                29.6421                12.0899

                     46                     47                     48
                      A                      A                      A
 Frequencies --   3128.2784              3130.6508              3186.6404
 Red. masses --      1.0506                 1.0581                 1.0939
 Frc consts  --      6.0576                 6.1102                 6.5450
 IR Inten    --     13.1881                 4.7410                16.6394

                     49                     50                     51
                      A                      A                      A
 Frequencies --   3211.8645              3225.8557              3797.1533
 Red. masses --      1.1178                 1.1151                 1.0663
 Frc consts  --      6.7943                 6.8369                 9.0580
 IR Inten    --      0.1781                 8.5718                20.8464

 - Thermochemistry -
 -------------------
 Temperature   298.150 Kelvin.  Pressure   1.00000 Atm.
 Atom     1 has atomic number  6 and mass  12.00000

 Molecular mass:   126.06808 amu.
 Principal axes and moments of inertia in atomic units:
                           1         2         3
     Eigenvalues --   591.917721345.976231567.19400
           X            0.99995  -0.00777   0.00681
           Y            0.00805   0.99903  -0.04334
           Z           -0.00647   0.04339   0.99904
 This molecule is an asymmetric top.
 Rotational symmetry number  1.
 Warning -- assumption of classical behavior for rotation
           may cause significant error
 Rotational temperatures (Kelvin)      0.14633     0.06435     0.05527
 Rotational constants (GHZ):           3.04897     1.34084     1.15157
 Zero-point vibrational energy     412301.7 (Joules/Mol)
                                   98.54246 (Kcal/Mol)
 Warning -- explicit consideration of  12 degrees of freedom as
           vibrations may cause significant error
 Vibrational temperatures:    167.31   263.59   283.93   299.89   353.02
          (Kelvin)            405.65   489.35   511.19   627.00   668.44
                              753.18   876.40   966.92  1088.14  1183.24
                             1220.57  1258.36  1279.54  1392.88  1402.95
                             1409.91  1456.70  1504.44  1520.68  1534.93
                             1554.12  1604.05  1654.42  1658.17  1707.43
                             1773.04  1804.36  1846.78  1942.96  2018.07
                             2042.32  2082.85  2086.96  2150.67  2156.04
                             2166.41  4346.56  4432.27  4434.30  4481.14
                             4500.89  4504.30  4584.86  4621.15  4641.28
                             5463.25

 Zero-point correction=                           0.157037 (Hartree/Particle)
 Thermal correction to Energy=                    0.165743
 Thermal correction to Enthalpy=                  0.166687
 Thermal correction to Gibbs Free Energy=         0.124246
 Sum of electronic and zero-point Energies=           -422.958637
 Sum of electronic and thermal Energies=              -422.949931
 Sum of electronic and thermal Enthalpies=            -422.948987
 Sum of electronic and thermal Free Energies=         -422.991428

                     E (Thermal)             CV                S
                      KCal/Mol        Cal/Mol-Kelvin    Cal/Mol-Kelvin
 Total                  104.005             33.893             89.326
 Electronic               0.000              0.000              0.000
 Translational            0.889              2.981             40.409
 Rotational               0.889              2.981             28.614
 Vibrational            102.228             27.931             20.303
 Vibration     1          0.608              1.936              3.161
 Vibration     2          0.631              1.863              2.296
 Vibration     3          0.637              1.844              2.158
 Vibration     4          0.642              1.828              2.057
 Vibration     5          0.660              1.770              1.764
 Vibration     6          0.681              1.707              1.522
 Vibration     7          0.720              1.595              1.212
 Vibration     8          0.731              1.564              1.143
 Vibration     9          0.796              1.392              0.840
 Vibration    10          0.822              1.329              0.753
 Vibration    11          0.878              1.198              0.602
 Vibration    12          0.968              1.012              0.434

 Normal termination of Gaussian 09 at Tue Jan 28 00:21:44 2020.
