 Gaussian 09, Revision D.01,
 Gaussian 09:  ES64L-G09RevD.01 24-Apr-2013

 -----------------------------
 # b3lyp 6-31G(2df,p) opt Freq
 -----------------------------

 -----
 titel
 -----
 Symbolic Z-matrix:
 Charge =  0 Multiplicity = 1

 SCF Done:  E(RB3LYP) =  -423.202377318     A.U. after   14 cycles
 Optimization completed.
    -- Stationary point found.
 Normal termination of Gaussian 09 at Mon Jan 27 17:56:03 2020.

 ----------------------------------------------------------------------
 #N Geom=AllCheck Guess=TCheck SCRF=Check GenChk RB3LYP/6-31G(2df,p) Fr
 eq
 ----------------------------------------------------------------------

 Structure from the checkpoint file:  "/scratch/puck/g09_b15f4d8c-33eb-45d7-a796-ba705746111a/Gau-16535.chk"
 -----
 titel
 -----
 Charge =  0 Multiplicity = 1

                         Standard orientation:
 ---------------------------------------------------------------------
 Center     Atomic      Atomic             Coordinates (Angstroms)
 Number     Number       Type             X           Y           Z
 ---------------------------------------------------------------------
      1          8           0        2.567851    0.390643   -0.310692
      2          6           0        1.250701    0.139681    0.107094
      3          6           0        1.127950   -1.045752    1.014947
      4          6           0        0.589561   -1.131072   -0.400680
      5          6           0       -0.910323   -1.194322   -0.646500
      6          6           0       -1.669274    0.011284   -0.101662
      7          8           0       -2.736708   -0.087933    0.456015
      8          6           0       -0.975594    1.342164   -0.340251
      9          6           0        0.397388    1.385804    0.364389
     10          1           0        2.535213    0.747699   -1.205265
     11          1           0        2.039457   -1.588066    1.236898
     12          1           0        0.414676   -0.989451    1.832129
     13          1           0        1.198024   -1.717940   -1.082132
     14          1           0       -1.098138   -1.202700   -1.730368
     15          1           0       -1.358973   -2.104159   -0.236428
     16          1           0       -0.824814    1.452499   -1.422781
     17          1           0       -1.625801    2.150136    0.001311
     18          1           0        0.958982    2.259029    0.018955
     19          1           0        0.249769    1.524551    1.441069
 ---------------------------------------------------------------------

 SCF Done:  E(RB3LYP) =  -423.202377318     A.U. after    1 cycles

 The electronic state is 1-A.
 Alpha  occ. eigenvalues --  -19.14716 -19.12788 -10.26747 -10.24649 -10.19916
 Alpha  occ. eigenvalues --  -10.19751 -10.19460 -10.19428 -10.18616  -1.03834
 Alpha  occ. eigenvalues --   -1.03338  -0.86704  -0.78482  -0.74715  -0.65970
 Alpha  occ. eigenvalues --   -0.59883  -0.58256  -0.54301  -0.49502  -0.47477
 Alpha  occ. eigenvalues --   -0.47406  -0.45070  -0.44209  -0.41920  -0.39669
 Alpha  occ. eigenvalues --   -0.39556  -0.38929  -0.36924  -0.35228  -0.35101
 Alpha  occ. eigenvalues --   -0.31917  -0.28097  -0.25695  -0.23888
 Alpha virt. eigenvalues --   -0.01555   0.07169   0.08786   0.09791   0.12185
 Alpha virt. eigenvalues --    0.12942   0.13048   0.14200   0.16814   0.17344
 Alpha virt. eigenvalues --    0.17810   0.18644   0.19836   0.20638   0.24154

 Mulliken charges:
               1
     1  O   -0.464778
     2  C    0.400831
     3  C   -0.312742
     4  C   -0.103058
     5  C   -0.319826
     6  C    0.379039
     7  O   -0.309373
     8  C   -0.291947
     9  C   -0.298060
    10  H    0.277659
    11  H    0.124141
    12  H    0.119164
    13  H    0.092699
    14  H    0.120953
    15  H    0.124249
    16  H    0.108404
    17  H    0.120558
    18  H    0.109844
    19  H    0.122243
 Sum of Mulliken charges =   0.00000

 Dipole moment (field-independent basis, Debye):
    X=              1.6029    Y=              0.5577    Z=             -2.0791  Tot=              2.6838
 Quadrupole moment (field-independent basis, Debye-Ang):
   XX=            -66.5017   YY=            -50.4785   ZZ=            -49.2849
   XY=             -0.4480   XZ=              0.2370   YZ=             -0.9381

  Exact polarizability:  81.891   0.741  74.881  -2.104  -0.634  66.962
 Approx polarizability: 117.334   3.876 104.587  -8.105  -1.676 106.796

                      1                      2                      3
                      A                      A                      A
 Frequencies --     47.1288               114.5802               206.9038
 Red. masses --      3.6645                 3.3321                 2.5538
 Frc consts  --      0.0048                 0.0258                 0.0644
 IR Inten    --      3.1866                 1.4399                 3.7193

                      4                      5                      6
                      A                      A                      A
 Frequencies --    311.8078               353.5451               373.2039
 Red. masses --      1.1387                 2.9640                 2.9643
 Frc consts  --      0.0652                 0.2183                 0.2433
 IR Inten    --     71.1349                 6.9578                 2.3724

                      7                      8                      9
                      A                      A                      A
 Frequencies --    391.4820               404.3260               480.4410
 Red. masses --      3.6798                 2.2428                 3.4692
 Frc consts  --      0.3323                 0.2160                 0.4718
 IR Inten    --     21.8351                 4.6961                 6.3656

                     10                     11                     12
                      A                      A                      A
 Frequencies --    509.1709               534.7778               669.0828
 Red. masses --      3.1305                 3.0034                 3.1000
 Frc consts  --      0.4782                 0.5061                 0.8177
 IR Inten    --      0.4082                 5.9310                 4.1609

                     13                     14                     15
                      A                      A                      A
 Frequencies --    691.2730               763.4177               823.9031
 Red. masses --      4.0319                 1.8503                 2.3906
 Frc consts  --      1.1352                 0.6354                 0.9561
 IR Inten    --      1.5422                 3.0863                10.2913

                     16                     17                     18
                      A                      A                      A
 Frequencies --    835.6229               898.7004               923.8897
 Red. masses --      1.8593                 1.6450                 1.9938
 Frc consts  --      0.7649                 0.7828                 1.0027
 IR Inten    --      4.4867                 2.9270                 9.6614

                     19                     20                     21
                      A                      A                      A
 Frequencies --    938.7533               959.8363              1007.8388
 Red. masses --      2.3369                 2.0616                 2.0955
 Frc consts  --      1.2134                 1.1190                 1.2541
 IR Inten    --     15.1440                13.9245                 1.0166

                     22                     23                     24
                      A                      A                      A
 Frequencies --   1042.8581              1067.0584              1097.7198
 Red. masses --      1.5745                 1.5462                 1.5153
 Frc consts  --      1.0089                 1.0372                 1.0758
 IR Inten    --      1.9267                 0.9390                19.0781

                     25                     26                     27
                      A                      A                      A
 Frequencies --   1112.8706              1150.5017              1169.8433
 Red. masses --      1.8634                 1.4904                 1.9055
 Frc consts  --      1.3597                 1.1624                 1.5365
 IR Inten    --     11.1015                 5.2460                32.4794

                     28                     29                     30
                      A                      A                      A
 Frequencies --   1219.5567              1236.2765              1257.8074
 Red. masses --      1.2556                 1.7559                 1.6989
 Frc consts  --      1.1003                 1.5812                 1.5836
 IR Inten    --      0.2969                64.9210                30.9832

                     31                     32                     33
                      A                      A                      A
 Frequencies --   1280.9428              1303.9426              1326.2508
 Red. masses --      1.9121                 1.6766                 1.4425
 Frc consts  --      1.8485                 1.6796                 1.4949
 IR Inten    --     41.8430                18.3393                 0.4862

                     34                     35                     36
                      A                      A                      A
 Frequencies --   1349.6037              1370.4868              1418.5309
 Red. masses --      1.4857                 1.7263                 1.6100
 Frc consts  --      1.5944                 1.9104                 1.9088
 IR Inten    --     13.1787                11.0160                 2.3528

                     37                     38                     39
                      A                      A                      A
 Frequencies --   1460.1957              1473.1979              1483.6639
 Red. masses --      1.0977                 1.0871                 1.3030
 Frc consts  --      1.3790                 1.3901                 1.6899
 IR Inten    --      3.5478                 4.9789                 9.8619

                     40                     41                     42
                      A                      A                      A
 Frequencies --   1499.6259              1820.8931              3007.9139
 Red. masses --      1.2386                11.2507                 1.0664
 Frc consts  --      1.6411                21.9785                 5.6847
 IR Inten    --      4.6754               178.5977                10.9870

                     43                     44                     45
                      A                      A                      A
 Frequencies --   3021.1894              3042.5532              3082.9399
 Red. masses --      1.0670                 1.0616                 1.0942
 Frc consts  --      5.7379                 5.7899                 6.1275
 IR Inten    --     16.0982                27.7876                16.6612

                     46                     47                     48
                      A                      A                      A
 Frequencies --   3085.5051              3114.7374              3127.7688
 Red. masses --      1.1013                 1.0967                 1.0557
 Frc consts  --      6.1773                 6.2685                 6.0852
 IR Inten    --     16.6836                17.5261                 7.4487

                     49                     50                     51
                      A                      A                      A
 Frequencies --   3151.9790              3223.6621              3791.9158
 Red. masses --      1.0886                 1.1158                 1.0661
 Frc consts  --      6.3723                 6.8319                 9.0315
 IR Inten    --     12.5207                 5.0113                13.8429

 - Thermochemistry -
 -------------------
 Temperature   298.150 Kelvin.  Pressure   1.00000 Atm.
 Atom     1 has atomic number  8 and mass  15.99491

 Molecular mass:   126.06808 amu.
 Principal axes and moments of inertia in atomic units:
                           1         2         3
     Eigenvalues --   580.141131364.238651643.26452
           X            0.99993  -0.00795   0.00890
           Y            0.00796   0.99997  -0.00109
           Z           -0.00889   0.00116   0.99996
 This molecule is an asymmetric top.
 Rotational symmetry number  1.
 Warning -- assumption of classical behavior for rotation
           may cause significant error
 Rotational temperatures (Kelvin)      0.14930     0.06349     0.05271
 Rotational constants (GHZ):           3.11087     1.32289     1.09827
 Zero-point vibrational energy     418882.4 (Joules/Mol)
                                  100.11531 (Kcal/Mol)
 Warning -- explicit consideration of  11 degrees of freedom as
           vibrations may cause significant error
 Vibrational temperatures:     67.81   164.86   297.69   448.62   508.67
          (Kelvin)            536.96   563.25   581.73   691.25   732.58
                              769.42   962.66   994.59  1098.39  1185.41
                             1202.27  1293.03  1329.27  1350.65  1380.99
                             1450.05  1500.44  1535.26  1579.37  1601.17
                             1655.31  1683.14  1754.67  1778.72  1809.70
                             1842.99  1876.08  1908.18  1941.78  1971.82
                             2040.95  2100.89  2119.60  2134.66  2157.62
                             2619.86  4327.71  4346.81  4377.55  4435.66
                             4439.35  4481.41  4500.16  4534.99  4638.12
                             5455.71

 Zero-point correction=                           0.159544 (Hartree/Particle)
 Thermal correction to Energy=                    0.167825
 Thermal correction to Enthalpy=                  0.168769
 Thermal correction to Gibbs Free Energy=         0.126379
 Sum of electronic and zero-point Energies=           -423.042833
 Sum of electronic and thermal Energies=              -423.034552
 Sum of electronic and thermal Enthalpies=            -423.033608
 Sum of electronic and thermal Free Energies=         -423.075998

                     E (Thermal)             CV                S
                      KCal/Mol        Cal/Mol-Kelvin    Cal/Mol-Kelvin
 Total                  105.312             32.297             89.218
 Electronic               0.000              0.000              0.000
 Translational            0.889              2.981             40.409
 Rotational               0.889              2.981             28.655
 Vibrational            103.534             26.335             20.155
 Vibration     1          0.595              1.979              4.934
 Vibration     2          0.608              1.937              3.190
 Vibration     3          0.641              1.830              2.071
 Vibration     4          0.700              1.651              1.353
 Vibration     5          0.730              1.568              1.150
 Vibration     6          0.745              1.527              1.067
 Vibration     7          0.759              1.488              0.994
 Vibration     8          0.770              1.461              0.947
 Vibration     9          0.837              1.293              0.709
 Vibration    10          0.864              1.230              0.636
 Vibration    11          0.890              1.173              0.577

 Normal termination of Gaussian 09 at Mon Jan 27 19:52:48 2020.
