 Gaussian 09, Revision D.01,
 Gaussian 09:  ES64L-G09RevD.01 24-Apr-2013

 -----------------------------
 # b3lyp 6-31G(2df,p) opt Freq
 -----------------------------

 -----
 titel
 -----
 Symbolic Z-matrix:
 Charge =  0 Multiplicity = 1

 SCF Done:  E(RB3LYP) =  -423.129522817     A.U. after   14 cycles
 Optimization completed.
    -- Stationary point found.
 Normal termination of Gaussian 09 at Mon Jan 27 18:50:15 2020.

 ----------------------------------------------------------------------
 #N Geom=AllCheck Guess=TCheck SCRF=Check GenChk RB3LYP/6-31G(2df,p) Fr
 eq
 ----------------------------------------------------------------------

 Structure from the checkpoint file:  "/scratch/puck/g09_cf0080ee-6305-453a-870c-e324fa68fed8/Gau-172609.chk"
 -----
 titel
 -----
 Charge =  0 Multiplicity = 1

                         Standard orientation:
 ---------------------------------------------------------------------
 Center     Atomic      Atomic             Coordinates (Angstroms)
 Number     Number       Type             X           Y           Z
 ---------------------------------------------------------------------
      1          6           0       -0.311225    2.057116   -0.538331
      2          6           0       -0.389566    0.619937   -0.079496
      3          6           0       -1.328871    0.256841    1.092242
      4          8           0       -1.940003   -0.822372    0.345308
      5          6           0       -1.122383   -0.557808   -0.807589
      6          6           0        0.176278   -1.403386   -0.818327
      7          6           0        0.877992   -0.251546   -0.078844
      8          6           0        2.281507    0.161212   -0.123777
      9          8           0        1.707434   -0.414046    1.058862
     10          1           0        0.222371    2.146330   -1.490330
     11          1           0       -1.310971    2.484410   -0.668905
     12          1           0        0.218268    2.673794    0.198006
     13          1           0       -0.841750   -0.086894    2.011493
     14          1           0       -2.062697    1.035686    1.336162
     15          1           0       -1.701539   -0.467078   -1.729839
     16          1           0        0.095809   -2.339680   -0.262088
     17          1           0        0.582959   -1.600738   -1.814630
     18          1           0        3.009197   -0.463774   -0.640977
     19          1           0        2.546519    1.215093   -0.047524
 ---------------------------------------------------------------------

 SCF Done:  E(RB3LYP) =  -423.129522817     A.U. after    1 cycles

 The electronic state is 1-A.
 Alpha  occ. eigenvalues --  -19.15334 -19.13207 -10.24336 -10.23559 -10.23505
 Alpha  occ. eigenvalues --  -10.22823 -10.20006 -10.18773 -10.18491  -1.07454
 Alpha  occ. eigenvalues --   -1.03898  -0.82644  -0.75080  -0.68405  -0.66713
 Alpha  occ. eigenvalues --   -0.62986  -0.59956  -0.52533  -0.50182  -0.48580
 Alpha  occ. eigenvalues --   -0.47994  -0.45320  -0.43074  -0.41678  -0.41471
 Alpha  occ. eigenvalues --   -0.40444  -0.39268  -0.35691  -0.34443  -0.32335
 Alpha  occ. eigenvalues --   -0.29504  -0.28192  -0.26242  -0.24498
 Alpha virt. eigenvalues --    0.06106   0.08168   0.10107   0.10600   0.11382
 Alpha virt. eigenvalues --    0.13031   0.13913   0.14445   0.15247   0.16572
 Alpha virt. eigenvalues --    0.17358   0.17806   0.18975   0.19049   0.20986

 Mulliken charges:
               1
     1  C   -0.510379
     2  C    0.208102
     3  C   -0.119522
     4  O   -0.292658
     5  C    0.065587
     6  C   -0.334502
     7  C    0.394785
     8  C   -0.268953
     9  O   -0.270627
    10  H    0.119511
    11  H    0.124476
    12  H    0.127592
    13  H    0.118931
    14  H    0.097786
    15  H    0.076299
    16  H    0.126428
    17  H    0.106812
    18  H    0.115894
    19  H    0.114437
 Sum of Mulliken charges =   0.00000

 Dipole moment (field-independent basis, Debye):
    X=              0.8838    Y=              1.6676    Z=             -1.9216  Tot=              2.6934
 Quadrupole moment (field-independent basis, Debye-Ang):
   XX=            -55.8271   YY=            -52.4761   ZZ=            -52.9751
   XY=             -1.7236   XZ=             -2.4408   YZ=              2.1753

  Exact polarizability:  81.579  -0.291  74.199  -2.502   3.489  68.449
 Approx polarizability: 112.791   2.608 103.440  -1.733   3.005 106.689

                      1                      2                      3
                      A                      A                      A
 Frequencies --     75.2066               190.5040               205.5879
 Red. masses --      4.0675                 2.6245                 1.2121
 Frc consts  --      0.0136                 0.0561                 0.0302
 IR Inten    --      1.7165                 3.0942                 1.0155

                      4                      5                      6
                      A                      A                      A
 Frequencies --    227.7450               250.5398               316.8750
 Red. masses --      2.7040                 2.3190                 2.4288
 Frc consts  --      0.0826                 0.0858                 0.1437
 IR Inten    --      1.3502                 1.1390                 0.5855

                      7                      8                      9
                      A                      A                      A
 Frequencies --    383.4410               408.5820               485.6582
 Red. masses --      2.3735                 3.0304                 2.5327
 Frc consts  --      0.2056                 0.2981                 0.3520
 IR Inten    --      3.3219                 3.0260                 2.3586

                     10                     11                     12
                      A                      A                      A
 Frequencies --    545.5449               645.5367               733.8397
 Red. masses --      4.9663                 3.1665                 3.3137
 Frc consts  --      0.8709                 0.7775                 1.0514
 IR Inten    --      5.0615                 1.3297                 2.9753

                     13                     14                     15
                      A                      A                      A
 Frequencies --    810.7660               847.2310               878.0553
 Red. masses --      2.6084                 2.3167                 2.6552
 Frc consts  --      1.0102                 0.9798                 1.2061
 IR Inten    --     14.6859                16.0956                15.0828

                     16                     17                     18
                      A                      A                      A
 Frequencies --    881.7730               921.7298               940.9585
 Red. masses --      1.7495                 2.3572                 2.5736
 Frc consts  --      0.8015                 1.1799                 1.3426
 IR Inten    --      9.5878                 1.6617                25.1298

                     19                     20                     21
                      A                      A                      A
 Frequencies --    975.3587              1001.7063              1017.4816
 Red. masses --      1.4898                 2.9736                 3.7771
 Frc consts  --      0.8350                 1.7580                 2.3039
 IR Inten    --      0.4336                16.7718                41.2416

                     22                     23                     24
                      A                      A                      A
 Frequencies --   1068.4880              1117.6383              1129.2389
 Red. masses --      3.2781                 1.3228                 1.7774
 Frc consts  --      2.2050                 0.9735                 1.3354
 IR Inten    --     43.1378                 1.3874                 0.2134

                     25                     26                     27
                      A                      A                      A
 Frequencies --   1136.1787              1150.1293              1167.7075
 Red. masses --      1.5975                 1.5655                 1.3729
 Frc consts  --      1.2151                 1.2201                 1.1030
 IR Inten    --      7.4209                 2.3958                 1.9488

                     28                     29                     30
                      A                      A                      A
 Frequencies --   1168.1577              1187.1046              1227.5812
 Red. masses --      1.8564                 1.6210                 2.9030
 Frc consts  --      1.4925                 1.3459                 2.5775
 IR Inten    --      2.3932                 3.4390                 6.8397

                     31                     32                     33
                      A                      A                      A
 Frequencies --   1250.6966              1285.4375              1321.0459
 Red. masses --      1.6695                 1.5432                 1.7667
 Frc consts  --      1.5386                 1.5024                 1.8166
 IR Inten    --      0.4073                 2.4272                11.4584

                     34                     35                     36
                      A                      A                      A
 Frequencies --   1370.1873              1409.8734              1423.8539
 Red. masses --      1.8601                 1.3888                 1.8514
 Frc consts  --      2.0575                 1.6265                 2.2115
 IR Inten    --      4.4345                 2.8589                14.6416

                     37                     38                     39
                      A                      A                      A
 Frequencies --   1457.0059              1491.0494              1493.9777
 Red. masses --      1.2022                 1.0494                 1.0695
 Frc consts  --      1.5037                 1.3745                 1.4065
 IR Inten    --      5.5802                 4.6350                 5.5295

                     40                     41                     42
                      A                      A                      A
 Frequencies --   1521.8678              1532.1874              3012.4129
 Red. masses --      1.1201                 1.4621                 1.0578
 Frc consts  --      1.5285                 2.0224                 5.6555
 IR Inten    --      0.7410                 8.6525                61.5527

                     43                     44                     45
                      A                      A                      A
 Frequencies --   3024.3202              3056.6017              3069.6937
 Red. masses --      1.0369                 1.0614                 1.1068
 Frc consts  --      5.5880                 5.8428                 6.1446
 IR Inten    --     28.6825                14.6884                26.3459

                     46                     47                     48
                      A                      A                      A
 Frequencies --   3077.2219              3080.9054              3087.4960
 Red. masses --      1.0510                 1.0883                 1.0993
 Frc consts  --      5.8636                 6.0865                 6.1744
 IR Inten    --     25.0973                43.9554                26.4148

                     49                     50                     51
                      A                      A                      A
 Frequencies --   3099.7651              3123.6368              3163.3112
 Red. masses --      1.1017                 1.1055                 1.1192
 Frc consts  --      6.2367                 6.3552                 6.5985
 IR Inten    --     24.5936                10.5173                21.9307

 - Thermochemistry -
 -------------------
 Temperature   298.150 Kelvin.  Pressure   1.00000 Atm.
 Atom     1 has atomic number  6 and mass  12.00000

 Molecular mass:   126.06808 amu.
 Principal axes and moments of inertia in atomic units:
                           1         2         3
     Eigenvalues --   700.709691118.397181325.90252
           X            0.99944  -0.02371  -0.02342
           Y            0.02426   0.99942   0.02380
           Z            0.02284  -0.02435   0.99944
 This molecule is an asymmetric top.
 Rotational symmetry number  1.
 Warning -- assumption of classical behavior for rotation
           may cause significant error
 Rotational temperatures (Kelvin)      0.12361     0.07744     0.06532
 Rotational constants (GHZ):           2.57559     1.61369     1.36114
 Zero-point vibrational energy     415396.6 (Joules/Mol)
                                   99.28218 (Kcal/Mol)
 Warning -- explicit consideration of  10 degrees of freedom as
           vibrations may cause significant error
 Vibrational temperatures:    108.21   274.09   295.79   327.67   360.47
          (Kelvin)            455.91   551.69   587.86   698.75   784.92
                              928.78  1055.83  1166.51  1218.97  1263.32
                             1268.67  1326.16  1353.83  1403.32  1441.23
                             1463.93  1537.31  1608.03  1624.72  1634.71
                             1654.78  1680.07  1680.72  1707.98  1766.21
                             1799.47  1849.46  1900.69  1971.39  2028.49
                             2048.61  2096.30  2145.28  2149.50  2189.63
                             2204.47  4334.18  4351.32  4397.76  4416.60
                             4427.43  4432.73  4442.21  4459.87  4494.21
                             4551.29

 Zero-point correction=                           0.158216 (Hartree/Particle)
 Thermal correction to Energy=                    0.166389
 Thermal correction to Enthalpy=                  0.167333
 Thermal correction to Gibbs Free Energy=         0.125603
 Sum of electronic and zero-point Energies=           -422.971307
 Sum of electronic and thermal Energies=              -422.963134
 Sum of electronic and thermal Enthalpies=            -422.962190
 Sum of electronic and thermal Free Energies=         -423.003919

                     E (Thermal)             CV                S
                      KCal/Mol        Cal/Mol-Kelvin    Cal/Mol-Kelvin
 Total                  104.411             31.564             87.827
 Electronic               0.000              0.000              0.000
 Translational            0.889              2.981             40.409
 Rotational               0.889              2.981             28.432
 Vibrational            102.633             25.602             18.987
 Vibration     1          0.599              1.966              4.012
 Vibration     2          0.634              1.853              2.223
 Vibration     3          0.640              1.832              2.083
 Vibration     4          0.651              1.799              1.897
 Vibration     5          0.663              1.762              1.727
 Vibration     6          0.704              1.641              1.326
 Vibration     7          0.753              1.506              1.026
 Vibration     8          0.773              1.452              0.932
 Vibration     9          0.842              1.282              0.695
 Vibration    10          0.901              1.149              0.553

 Optimization completed.
    -- Stationary point found.
 Normal termination of Gaussian 09 at Mon Jan 27 19:33:54 2020.
