 Gaussian 09, Revision D.01,
 Gaussian 09:  ES64L-G09RevD.01 24-Apr-2013

 -----------------------------
 # b3lyp 6-31G(2df,p) opt Freq
 -----------------------------

 -----
 titel
 -----
 Symbolic Z-matrix:
 Charge =  0 Multiplicity = 1

 SCF Done:  E(RB3LYP) =  -423.235072900     A.U. after   14 cycles
 Optimization completed.
    -- Stationary point found.
 Normal termination of Gaussian 09 at Mon Jan 27 13:58:57 2020.

 ----------------------------------------------------------------------
 #N Geom=AllCheck Guess=TCheck SCRF=Check GenChk RB3LYP/6-31G(2df,p) Fr
 eq
 ----------------------------------------------------------------------

 Structure from the checkpoint file:  "/scratch/puck/g09_0869aad6-8d7e-4838-9cfc-8f0cd9a15033/Gau-3795.chk"
 -----
 titel
 -----
 Charge =  0 Multiplicity = 1

                         Standard orientation:
 ---------------------------------------------------------------------
 Center     Atomic      Atomic             Coordinates (Angstroms)
 Number     Number       Type             X           Y           Z
 ---------------------------------------------------------------------
      1          8           0       -2.870447   -0.663225   -0.579125
      2          6           0       -2.642313    0.188175    0.237590
      3          8           0       -1.449466    0.719165    0.528165
      4          6           0       -0.307184    0.220868   -0.231803
      5          6           0        0.255633   -1.039709    0.425132
      6          6           0        1.641548   -1.356726   -0.151618
      7          6           0        2.629235   -0.209014    0.110302
      8          6           0        2.005591    1.142226   -0.122801
      9          6           0        0.697027    1.336229   -0.276442
     10          1           0       -3.403084    0.666282    0.875092
     11          1           0       -0.679168   -0.014805   -1.235344
     12          1           0        0.331051   -0.858577    1.504202
     13          1           0       -0.436222   -1.872631    0.274773
     14          1           0        2.022184   -2.291221    0.272539
     15          1           0        1.553078   -1.518039   -1.233585
     16          1           0        3.001915   -0.256204    1.144624
     17          1           0        3.518303   -0.320576   -0.522743
     18          1           0        2.678689    1.995503   -0.163507
     19          1           0        0.295346    2.330449   -0.450519
 ---------------------------------------------------------------------

 SCF Done:  E(RB3LYP) =  -423.235072900     A.U. after    1 cycles

 The electronic state is 1-A.
 Alpha  occ. eigenvalues --  -19.18489 -19.13108 -10.30584 -10.24469 -10.19116
 Alpha  occ. eigenvalues --  -10.18975 -10.18867 -10.18541 -10.18448  -1.10077
 Alpha  occ. eigenvalues --   -1.01806  -0.84048  -0.75501  -0.74959  -0.65759
 Alpha  occ. eigenvalues --   -0.61250  -0.58132  -0.54008  -0.50403  -0.49842
 Alpha  occ. eigenvalues --   -0.46743  -0.45943  -0.43649  -0.41261  -0.40621
 Alpha  occ. eigenvalues --   -0.39739  -0.38942  -0.36513  -0.34093  -0.33464
 Alpha  occ. eigenvalues --   -0.32222  -0.29710  -0.28097  -0.25011
 Alpha virt. eigenvalues --    0.01107   0.01377   0.08158   0.11646   0.13019
 Alpha virt. eigenvalues --    0.13332   0.13708   0.15582   0.16141   0.16940
 Alpha virt. eigenvalues --    0.17717   0.18431   0.19339   0.20997   0.22573

 Mulliken charges:
               1
     1  O   -0.308118
     2  C    0.178762
     3  O   -0.226062
     4  C    0.098474
     5  C   -0.226185
     6  C   -0.218449
     7  C   -0.242137
     8  C   -0.059032
     9  C   -0.064301
    10  H    0.108433
    11  H    0.117001
    12  H    0.106750
    13  H    0.118433
    14  H    0.100220
    15  H    0.107632
    16  H    0.113050
    17  H    0.107101
    18  H    0.092244
    19  H    0.096184
 Sum of Mulliken charges =   0.00000

 Dipole moment (field-independent basis, Debye):
    X=              1.9733    Y=              0.6300    Z=              0.7474  Tot=              2.2021
 Quadrupole moment (field-independent basis, Debye-Ang):
   XX=            -53.7691   YY=            -52.8727   ZZ=            -53.9152
   XY=             -4.0448   XZ=             -3.4781   YZ=             -1.7945

  Exact polarizability: 104.289  -0.547  73.014   0.726   1.302  58.263
 Approx polarizability: 140.403   1.054 106.478   6.338   7.309  95.392

                      1                      2                      3
                      A                      A                      A
 Frequencies --     50.6015                90.7313               187.8173
 Red. masses --      6.3451                 3.1188                 3.7829
 Frc consts  --      0.0096                 0.0151                 0.0786
 IR Inten    --      1.6554                 0.6873                 4.7162

                      4                      5                      6
                      A                      A                      A
 Frequencies --    238.4766               272.2656               313.0996
 Red. masses --      2.1922                 2.1556                 3.3534
 Frc consts  --      0.0735                 0.0941                 0.1937
 IR Inten    --      6.1054                 4.1199                 2.0077

                      7                      8                      9
                      A                      A                      A
 Frequencies --    414.4417               432.4979               473.8452
 Red. masses --      3.2188                 4.0781                 2.6540
 Frc consts  --      0.3257                 0.4494                 0.3511
 IR Inten    --      9.2418                 2.1224                 3.8047

                     10                     11                     12
                      A                      A                      A
 Frequencies --    555.4044               669.3288               742.9715
 Red. masses --      3.0297                 2.0506                 1.5208
 Frc consts  --      0.5506                 0.5413                 0.4946
 IR Inten    --      4.7501                 6.3547                 8.9037

                     13                     14                     15
                      A                      A                      A
 Frequencies --    771.2236               837.3904               868.3976
 Red. masses --      4.0399                 2.3367                 2.5173
 Frc consts  --      1.4157                 0.9654                 1.1185
 IR Inten    --      2.0098                 3.0609                 7.8853

                     16                     17                     18
                      A                      A                      A
 Frequencies --    917.6398               935.9979               955.6425
 Red. masses --      1.8133                 2.7102                 2.2682
 Frc consts  --      0.8996                 1.3990                 1.2204
 IR Inten    --      7.4726                26.7601                 5.7761

                     19                     20                     21
                      A                      A                      A
 Frequencies --   1008.0410              1019.1967              1044.7985
 Red. masses --      1.3010                 3.0898                 1.6625
 Frc consts  --      0.7789                 1.8910                 1.0692
 IR Inten    --      4.9977                36.6831                 0.6717

                     22                     23                     24
                      A                      A                      A
 Frequencies --   1069.7669              1085.6409              1112.2382
 Red. masses --      1.8037                 1.9628                 1.7526
 Frc consts  --      1.2161                 1.3630                 1.2774
 IR Inten    --      1.3152                 2.2391                 2.0557

                     25                     26                     27
                      A                      A                      A
 Frequencies --   1155.9199              1208.0661              1217.1634
 Red. masses --      1.1317                 6.1093                 1.4296
 Frc consts  --      0.8909                 5.2532                 1.2478
 IR Inten    --     10.0962               402.9565                17.3673

                     28                     29                     30
                      A                      A                      A
 Frequencies --   1247.2512              1274.1316              1339.0064
 Red. masses --      1.2218                 1.2323                 1.3348
 Frc consts  --      1.1198                 1.1787                 1.4101
 IR Inten    --      1.4538                 3.4436                 4.4522

                     31                     32                     33
                      A                      A                      A
 Frequencies --   1344.0404              1371.6663              1378.7013
 Red. masses --      1.2933                 1.4719                 1.5507
 Frc consts  --      1.3765                 1.6316                 1.7366
 IR Inten    --      1.8148                 1.3918                 1.3019

                     34                     35                     36
                      A                      A                      A
 Frequencies --   1387.0981              1408.5835              1423.7091
 Red. masses --      1.4698                 1.1505                 1.5305
 Frc consts  --      1.6662                 1.3449                 1.8278
 IR Inten    --      3.0622                 2.1302                 1.5104

                     37                     38                     39
                      A                      A                      A
 Frequencies --   1475.3102              1492.8071              1500.7996
 Red. masses --      1.0858                 1.0907                 1.0953
 Frc consts  --      1.3925                 1.4320                 1.4535
 IR Inten    --      2.0013                 2.8859                 2.3097

                     40                     41                     42
                      A                      A                      A
 Frequencies --   1727.4821              1813.4859              2999.2331
 Red. masses --      6.9538                 9.5666                 1.0693
 Frc consts  --     12.2264                18.5369                 5.6670
 IR Inten    --      4.2066               284.7032                26.8619

                     43                     44                     45
                      A                      A                      A
 Frequencies --   3021.5023              3025.7389              3037.1613
 Red. masses --      1.0899                 1.0681                 1.0686
 Frc consts  --      5.8625                 5.7612                 5.8076
 IR Inten    --     78.8930                12.6175                 3.4465

                     46                     47                     48
                      A                      A                      A
 Frequencies --   3045.1604              3048.6619              3078.8319
 Red. masses --      1.0871                 1.0764                 1.0988
 Frc consts  --      5.9394                 5.8947                 6.1370
 IR Inten    --     28.8761                31.2533                39.8776

                     49                     50                     51
                      A                      A                      A
 Frequencies --   3100.7400              3149.3937              3176.3566
 Red. masses --      1.1006                 1.0846                 1.0962
 Frc consts  --      6.2349                 6.3384                 6.5161
 IR Inten    --     20.1726                 9.9776                21.0103

 - Thermochemistry -
 -------------------
 Temperature   298.150 Kelvin.  Pressure   1.00000 Atm.
 Atom     1 has atomic number  8 and mass  15.99491

 Molecular mass:   126.06808 amu.
 Principal axes and moments of inertia in atomic units:
                           1         2         3
     Eigenvalues --   477.846091752.367302066.62313
           X            0.99990  -0.01322  -0.00443
           Y            0.01315   0.99978  -0.01624
           Z            0.00464   0.01618   0.99986
 This molecule is an asymmetric top.
 Rotational symmetry number  1.
 Warning -- assumption of classical behavior for rotation
           may cause significant error
 Rotational temperatures (Kelvin)      0.18126     0.04943     0.04191
 Rotational constants (GHZ):           3.77683     1.02989     0.87328
 Zero-point vibrational energy     421776.1 (Joules/Mol)
                                  100.80691 (Kcal/Mol)
 Warning -- explicit consideration of  10 degrees of freedom as
           vibrations may cause significant error
 Vibrational temperatures:     72.80   130.54   270.23   343.11   391.73
          (Kelvin)            450.48   596.29   622.27   681.76   799.10
                              963.01  1068.97  1109.62  1204.82  1249.43
                             1320.28  1346.69  1374.95  1450.34  1466.39
                             1503.23  1539.15  1561.99  1600.26  1663.11
                             1738.14  1751.22  1794.51  1833.19  1926.53
                             1933.77  1973.52  1983.64  1995.72  2026.63
                             2048.40  2122.64  2147.81  2159.31  2485.46
                             2609.20  4315.22  4347.26  4353.36  4369.79
                             4381.30  4386.34  4429.75  4461.27  4531.27
                             4570.06

 Zero-point correction=                           0.160646 (Hartree/Particle)
 Thermal correction to Energy=                    0.168925
 Thermal correction to Enthalpy=                  0.169870
 Thermal correction to Gibbs Free Energy=         0.127032
 Sum of electronic and zero-point Energies=           -423.074427
 Sum of electronic and thermal Energies=              -423.066147
 Sum of electronic and thermal Enthalpies=            -423.065203
 Sum of electronic and thermal Free Energies=         -423.108041

                     E (Thermal)             CV                S
                      KCal/Mol        Cal/Mol-Kelvin    Cal/Mol-Kelvin
 Total                  106.002             30.993             90.160
 Electronic               0.000              0.000              0.000
 Translational            0.889              2.981             40.409
 Rotational               0.889              2.981             28.939
 Vibrational            104.225             25.032             20.813
 Vibration     1          0.595              1.977              4.794
 Vibration     2          0.602              1.956              3.644
 Vibration     3          0.632              1.857              2.249
 Vibration     4          0.656              1.782              1.814
 Vibration     5          0.675              1.724              1.582
 Vibration     6          0.701              1.649              1.346
 Vibration     7          0.778              1.439              0.911
 Vibration     8          0.793              1.399              0.851
 Vibration     9          0.831              1.308              0.727
 Vibration    10          0.911              1.128              0.533

 Optimization completed.
    -- Stationary point found.
 Normal termination of Gaussian 09 at Mon Jan 27 15:47:20 2020.
