 Gaussian 09, Revision D.01,
 Gaussian 09:  ES64L-G09RevD.01 24-Apr-2013

 -----------------------------
 # b3lyp 6-31G(2df,p) opt Freq
 -----------------------------

 -----
 titel
 -----
 Symbolic Z-matrix:
 Charge =  0 Multiplicity = 1

 SCF Done:  E(RB3LYP) =  -423.139330082     A.U. after   13 cycles
 Optimization completed.
    -- Stationary point found.
 Normal termination of Gaussian 09 at Tue Jan 28 01:55:15 2020.

 ----------------------------------------------------------------------
 #N Geom=AllCheck Guess=TCheck SCRF=Check GenChk RB3LYP/6-31G(2df,p) Fr
 eq
 ----------------------------------------------------------------------

 Structure from the checkpoint file:  "/scratch/puck/g09_52606327-7915-4a29-aa09-cdac0610af64/Gau-38059.chk"
 -----
 titel
 -----
 Charge =  0 Multiplicity = 1

                         Standard orientation:
 ---------------------------------------------------------------------
 Center     Atomic      Atomic             Coordinates (Angstroms)
 Number     Number       Type             X           Y           Z
 ---------------------------------------------------------------------
      1          8           0       -2.407986   -0.970061   -0.006343
      2          6           0       -1.712774    0.102526    0.547526
      3          6           0       -1.423621    1.342012   -0.297643
      4          6           0       -0.332493    0.370964    0.043737
      5          8           0        0.115016   -0.524172   -0.989213
      6          6           0        1.507806   -0.676604   -0.631864
      7          6           0        1.465949   -0.879047    0.902446
      8          6           0        0.944716    0.594624    0.827240
      9          6           0        1.953176    0.780932   -0.356186
     10          1           0       -1.773397   -1.436801   -0.568110
     11          1           0       -1.932397    0.247247    1.602854
     12          1           0       -1.788830    1.324861   -1.319217
     13          1           0       -1.429602    2.315081    0.184318
     14          1           0        1.990305   -1.351855   -1.335973
     15          1           0        0.792524   -1.646986    1.289457
     16          1           0        2.456270   -0.956433    1.353579
     17          1           0        0.902186    1.259315    1.688159
     18          1           0        1.721466    1.525431   -1.120402
     19          1           0        2.988683    0.861571   -0.021754
 ---------------------------------------------------------------------

 SCF Done:  E(RB3LYP) =  -423.139330082     A.U. after    1 cycles

 The electronic state is 1-A.
 Alpha  occ. eigenvalues --  -19.15037 -19.12933 -10.24526 -10.23643 -10.22777
 Alpha  occ. eigenvalues --  -10.20686 -10.19214 -10.19198 -10.17708  -1.05801
 Alpha  occ. eigenvalues --   -1.01349  -0.84400  -0.83584  -0.67824  -0.67278
 Alpha  occ. eigenvalues --   -0.60151  -0.58092  -0.55359  -0.53335  -0.49207
 Alpha  occ. eigenvalues --   -0.47569  -0.44734  -0.44249  -0.40531  -0.38454
 Alpha  occ. eigenvalues --   -0.37265  -0.36680  -0.35886  -0.35056  -0.33805
 Alpha  occ. eigenvalues --   -0.31848  -0.29702  -0.24210  -0.23102
 Alpha virt. eigenvalues --    0.07582   0.10596   0.10941   0.12406   0.12545
 Alpha virt. eigenvalues --    0.13220   0.13880   0.14274   0.15762   0.17004
 Alpha virt. eigenvalues --    0.17482   0.18896   0.20149   0.21175   0.21961

 Mulliken charges:
               1
     1  O   -0.436944
     2  C    0.040995
     3  C   -0.412774
     4  C    0.448865
     5  O   -0.332876
     6  C    0.106141
     7  C   -0.239114
     8  C   -0.150766
     9  C   -0.234747
    10  H    0.293004
    11  H    0.095111
    12  H    0.125317
    13  H    0.110052
    14  H    0.085604
    15  H    0.107975
    16  H    0.103543
    17  H    0.078909
    18  H    0.108364
    19  H    0.103340
 Sum of Mulliken charges =   0.00000

 Dipole moment (field-independent basis, Debye):
    X=              2.7311    Y=              0.7246    Z=              0.7572  Tot=              2.9253
 Quadrupole moment (field-independent basis, Debye-Ang):
   XX=            -56.8421   YY=            -51.6257   ZZ=            -52.3047
   XY=             -2.8700   XZ=              0.1383   YZ=              1.2107

  Exact polarizability:  85.144  -2.757  73.412  -0.815  -0.842  67.125
 Approx polarizability: 114.645  -1.315 109.883  -1.640   0.967 103.542

                      1                      2                      3
                      A                      A                      A
 Frequencies --    121.5118               173.7502               228.9066
 Red. masses --      4.5542                 3.9201                 3.3502
 Frc consts  --      0.0396                 0.0697                 0.1034
 IR Inten    --      0.2170                 2.8103                 3.0758

                      4                      5                      6
                      A                      A                      A
 Frequencies --    347.7929               387.4810               445.5376
 Red. masses --      2.5904                 1.5970                 1.6126
 Frc consts  --      0.1846                 0.1413                 0.1886
 IR Inten    --     11.2203                31.0787                12.6578

                      7                      8                      9
                      A                      A                      A
 Frequencies --    486.5355               500.6179               541.9888
 Red. masses --      2.5627                 2.3721                 2.4130
 Frc consts  --      0.3574                 0.3503                 0.4176
 IR Inten    --      6.5342                 2.0355                 1.0414

                     10                     11                     12
                      A                      A                      A
 Frequencies --    626.9058               731.5634               816.7143
 Red. masses --      3.4469                 3.5745                 2.0227
 Frc consts  --      0.7982                 1.1271                 0.7949
 IR Inten    --      6.1753                15.2948                 5.4355

                     13                     14                     15
                      A                      A                      A
 Frequencies --    832.2322               838.1795               855.5851
 Red. masses --      2.2845                 2.0203                 2.2277
 Frc consts  --      0.9322                 0.8363                 0.9608
 IR Inten    --      3.3391                 2.3987                11.6001

                     16                     17                     18
                      A                      A                      A
 Frequencies --    872.6023               902.5600               942.9369
 Red. masses --      2.7290                 2.0945                 2.6267
 Frc consts  --      1.2243                 1.0053                 1.3760
 IR Inten    --      6.3476                 3.3075                37.6424

                     19                     20                     21
                      A                      A                      A
 Frequencies --    961.2248               994.8296              1009.7603
 Red. masses --      3.2594                 2.6154                 1.6962
 Frc consts  --      1.7743                 1.5251                 1.0190
 IR Inten    --     65.5512                20.0588                 3.7792

                     22                     23                     24
                      A                      A                      A
 Frequencies --   1023.9391              1038.3837              1056.4923
 Red. masses --      1.4048                 2.2487                 1.1367
 Frc consts  --      0.8678                 1.4285                 0.7476
 IR Inten    --     17.0180                 3.8793                 3.6867

                     25                     26                     27
                      A                      A                      A
 Frequencies --   1070.9794              1093.2418              1099.7314
 Red. masses --      1.7062                 1.4673                 1.5234
 Frc consts  --      1.1530                 1.0333                 1.0856
 IR Inten    --      4.1718                 7.6039                 2.9724

                     28                     29                     30
                      A                      A                      A
 Frequencies --   1128.9412              1159.1555              1195.0719
 Red. masses --      1.8830                 2.9308                 1.7627
 Frc consts  --      1.4140                 2.3202                 1.4833
 IR Inten    --     53.1997                77.4082                 6.5393

                     31                     32                     33
                      A                      A                      A
 Frequencies --   1211.0877              1237.1967              1251.6301
 Red. masses --      1.3773                 1.5964                 1.7207
 Frc consts  --      1.1902                 1.4397                 1.5882
 IR Inten    --      0.0735                23.0065                 0.0412

                     34                     35                     36
                      A                      A                      A
 Frequencies --   1265.4496              1315.2896              1331.1096
 Red. masses --      1.7460                 1.4878                 1.5409
 Frc consts  --      1.6474                 1.5165                 1.6087
 IR Inten    --      4.5280                 2.7411                 8.1809

                     37                     38                     39
                      A                      A                      A
 Frequencies --   1389.5155              1421.8230              1472.0040
 Red. masses --      1.5334                 1.1708                 1.1026
 Frc consts  --      1.7443                 1.3946                 1.4076
 IR Inten    --     62.5865                32.3449                 2.4927

                     40                     41                     42
                      A                      A                      A
 Frequencies --   1491.0095              1510.3467              3070.9313
 Red. masses --      1.9138                 1.3018                 1.0555
 Frc consts  --      2.5067                 1.7496                 5.8648
 IR Inten    --     29.9723                 6.5022                38.1109

                     43                     44                     45
                      A                      A                      A
 Frequencies --   3076.2409              3121.9248              3130.9714
 Red. masses --      1.0570                 1.0547                 1.0892
 Frc consts  --      5.8934                 6.0568                 6.2910
 IR Inten    --      9.1425                 6.6069                 9.8899

                     46                     47                     48
                      A                      A                      A
 Frequencies --   3136.7872              3138.8064              3142.9687
 Red. masses --      1.0904                 1.1109                 1.1010
 Frc consts  --      6.3211                 6.4482                 6.4080
 IR Inten    --     47.1550                11.8606                23.6130

                     49                     50                     51
                      A                      A                      A
 Frequencies --   3145.4404              3218.6455              3737.7630
 Red. masses --      1.1010                 1.1165                 1.0654
 Frc consts  --      6.4179                 6.8145                 8.7696
 IR Inten    --     42.5990                 4.9837                46.0677

 - Thermochemistry -
 -------------------
 Temperature   298.150 Kelvin.  Pressure   1.00000 Atm.
 Atom     1 has atomic number  8 and mass  15.99491

 Molecular mass:   126.06808 amu.
 Principal axes and moments of inertia in atomic units:
                           1         2         3
     Eigenvalues --   526.146131277.553691384.39564
           X            0.99985  -0.01642   0.00590
           Y            0.01666   0.99892  -0.04345
           Z           -0.00518   0.04354   0.99904
 This molecule is an asymmetric top.
 Rotational symmetry number  1.
 Warning -- assumption of classical behavior for rotation
           may cause significant error
 Rotational temperatures (Kelvin)      0.16462     0.06780     0.06256
 Rotational constants (GHZ):           3.43011     1.41265     1.30363
 Zero-point vibrational energy     420499.9 (Joules/Mol)
                                  100.50189 (Kcal/Mol)
 Warning -- explicit consideration of   9 degrees of freedom as
           vibrations may cause significant error
 Vibrational temperatures:    174.83   249.99   329.35   500.40   557.50
          (Kelvin)            641.03   700.02   720.28   779.80   901.98
                             1052.56  1175.07  1197.39  1205.95  1230.99
                             1255.48  1298.58  1356.67  1382.99  1431.34
                             1452.82  1473.22  1494.00  1520.05  1540.90
                             1572.93  1582.27  1624.29  1667.76  1719.44
                             1742.48  1780.05  1800.81  1820.70  1892.41
                             1915.17  1999.20  2045.68  2117.88  2145.23
                             2173.05  4418.38  4426.02  4491.75  4504.76
                             4513.13  4516.04  4522.03  4525.58  4630.91
                             5377.80

 Zero-point correction=                           0.160160 (Hartree/Particle)
 Thermal correction to Energy=                    0.167549
 Thermal correction to Enthalpy=                  0.168493
 Thermal correction to Gibbs Free Energy=         0.128609
 Sum of electronic and zero-point Energies=           -422.979170
 Sum of electronic and thermal Energies=              -422.971781
 Sum of electronic and thermal Enthalpies=            -422.970837
 Sum of electronic and thermal Free Energies=         -423.010721

                     E (Thermal)             CV                S
                      KCal/Mol        Cal/Mol-Kelvin    Cal/Mol-Kelvin
 Total                  105.138             30.481             83.943
 Electronic               0.000              0.000              0.000
 Translational            0.889              2.981             40.409
 Rotational               0.889              2.981             28.322
 Vibrational            103.361             24.519             15.212
 Vibration     1          0.609              1.931              3.076
 Vibration     2          0.627              1.875              2.395
 Vibration     3          0.652              1.797              1.888
 Vibration     4          0.725              1.580              1.176
 Vibration     5          0.756              1.497              1.010
 Vibration     6          0.805              1.371              0.809
 Vibration     7          0.843              1.280              0.693
 Vibration     8          0.856              1.249              0.657
 Vibration     9          0.897              1.157              0.561

 Optimization completed.
    -- Stationary point found.
 Normal termination of Gaussian 09 at Tue Jan 28 02:46:46 2020.
 Normal termination of Gaussian 09 at Tue Jan 28 01:50:14 2020.
