 Gaussian 09, Revision D.01,
 Gaussian 09:  ES64L-G09RevD.01 24-Apr-2013

 -----------------------------
 # b3lyp 6-31G(2df,p) opt Freq
 -----------------------------

 -----
 titel
 -----
 Symbolic Z-matrix:
 Charge =  0 Multiplicity = 1

 SCF Done:  E(RB3LYP) =  -423.144834206     A.U. after   13 cycles
 Optimization completed.
    -- Stationary point found.
 Normal termination of Gaussian 09 at Mon Jan 27 17:59:13 2020.

 ----------------------------------------------------------------------
 #N Geom=AllCheck Guess=TCheck SCRF=Check GenChk RB3LYP/6-31G(2df,p) Fr
 eq
 ----------------------------------------------------------------------

 Structure from the checkpoint file:  "/scratch/puck/g09_5f49b56e-f1a7-4662-8ce0-3021f0049616/Gau-16820.chk"
 -----
 titel
 -----
 Charge =  0 Multiplicity = 1

                         Standard orientation:
 ---------------------------------------------------------------------
 Center     Atomic      Atomic             Coordinates (Angstroms)
 Number     Number       Type             X           Y           Z
 ---------------------------------------------------------------------
      1          8           0       -1.968161    1.126367   -0.347132
      2          6           0       -0.981869    0.257647    0.142852
      3          6           0       -1.338568   -1.043650    0.819930
      4          6           0       -0.628653   -1.032078   -0.536483
      5          8           0        0.729190   -1.363345   -0.677352
      6          6           0        1.627588   -0.321512   -0.296030
      7          6           0        1.140108    1.082731   -0.757350
      8          6           0        0.253923    1.056679    0.528797
      9          6           0        1.351960    0.153244    1.154830
     10          1           0       -2.683667    0.604732   -0.723511
     11          1           0       -0.808305   -1.370193    1.706317
     12          1           0       -2.383573   -1.341380    0.795027
     13          1           0       -1.210196   -1.369487   -1.391162
     14          1           0        2.621114   -0.674439   -0.574628
     15          1           0        1.948879    1.814503   -0.695860
     16          1           0        0.633114    1.159739   -1.721084
     17          1           0       -0.020755    1.987588    1.027134
     18          1           0        2.177791    0.762436    1.530760
     19          1           0        1.090426   -0.596044    1.903604
 ---------------------------------------------------------------------

 SCF Done:  E(RB3LYP) =  -423.144834206     A.U. after    1 cycles

 The electronic state is 1-A.
 Alpha  occ. eigenvalues --  -19.14511 -19.14248 -10.24040 -10.23424 -10.23005
 Alpha  occ. eigenvalues --  -10.19390 -10.18230 -10.18229 -10.17973  -1.04379
 Alpha  occ. eigenvalues --   -1.02526  -0.85065  -0.82998  -0.67548  -0.65975
 Alpha  occ. eigenvalues --   -0.63088  -0.58416  -0.53943  -0.51451  -0.49674
 Alpha  occ. eigenvalues --   -0.46558  -0.46371  -0.41923  -0.40293  -0.38967
 Alpha  occ. eigenvalues --   -0.38718  -0.37818  -0.35915  -0.34153  -0.32114
 Alpha  occ. eigenvalues --   -0.30327  -0.29907  -0.23920  -0.22862
 Alpha virt. eigenvalues --    0.06805   0.08496   0.10419   0.11337   0.13161
 Alpha virt. eigenvalues --    0.13736   0.14530   0.15486   0.17893   0.18271
 Alpha virt. eigenvalues --    0.18413   0.19437   0.20989   0.21677   0.22776

 Mulliken charges:
               1
     1  O   -0.478250
     2  C    0.399734
     3  C   -0.402306
     4  C    0.026701
     5  O   -0.270128
     6  C    0.131006
     7  C   -0.239401
     8  C   -0.065847
     9  C   -0.264456
    10  H    0.280604
    11  H    0.123636
    12  H    0.102888
    13  H    0.092170
    14  H    0.075511
    15  H    0.098694
    16  H    0.108073
    17  H    0.075881
    18  H    0.104297
    19  H    0.101193
 Sum of Mulliken charges =   0.00000

 Dipole moment (field-independent basis, Debye):
    X=             -0.3697    Y=              0.0522    Z=              0.2254  Tot=              0.4361
 Quadrupole moment (field-independent basis, Debye-Ang):
   XX=            -47.3399   YY=            -57.7943   ZZ=            -52.4592
   XY=              4.9891   XZ=              2.8835   YZ=             -0.6454

  Exact polarizability:  82.642   4.970  69.990   0.690  -1.846  68.357
 Approx polarizability: 113.660   2.696 107.491   0.200  -0.810 104.256

                      1                      2                      3
                      A                      A                      A
 Frequencies --    123.5688               206.5160               243.2849
 Red. masses --      1.0603                 3.9705                 3.7142
 Frc consts  --      0.0095                 0.0998                 0.1295
 IR Inten    --     76.3793                14.4273                 5.7797

                      4                      5                      6
                      A                      A                      A
 Frequencies --    350.1550               382.6938               438.5745
 Red. masses --      3.3743                 3.4376                 2.2460
 Frc consts  --      0.2438                 0.2966                 0.2545
 IR Inten    --      8.6166                 2.9184                 2.3709

                      7                      8                      9
                      A                      A                      A
 Frequencies --    463.4335               474.2534               522.4012
 Red. masses --      3.5925                 2.6490                 2.8036
 Frc consts  --      0.4546                 0.3510                 0.4508
 IR Inten    --      2.3990                 0.2908                 1.2512

                     10                     11                     12
                      A                      A                      A
 Frequencies --    592.4942               693.0469               784.9791
 Red. masses --      3.3917                 2.8126                 2.4585
 Frc consts  --      0.7015                 0.7959                 0.8926
 IR Inten    --      1.9582                 7.4682                14.2648

                     13                     14                     15
                      A                      A                      A
 Frequencies --    803.8847               865.1863               882.1136
 Red. masses --      1.8597                 2.2180                 1.8439
 Frc consts  --      0.7081                 0.9782                 0.8454
 IR Inten    --      1.4042                 3.2209                 8.4807

                     16                     17                     18
                      A                      A                      A
 Frequencies --    890.9664               924.8632               938.4165
 Red. masses --      2.0805                 2.6332                 2.6010
 Frc consts  --      0.9731                 1.3271                 1.3496
 IR Inten    --      2.6490                22.9842                 7.8729

                     19                     20                     21
                      A                      A                      A
 Frequencies --    958.3444               976.6493              1002.9967
 Red. masses --      2.7088                 2.4311                 1.8009
 Frc consts  --      1.4658                 1.3663                 1.0674
 IR Inten    --     21.5379                 3.6424                16.3286

                     22                     23                     24
                      A                      A                      A
 Frequencies --   1012.7646              1047.7424              1067.9544
 Red. masses --      1.4558                 2.4344                 1.3433
 Frc consts  --      0.8798                 1.5745                 0.9027
 IR Inten    --      5.1258                14.6551                 9.5348

                     25                     26                     27
                      A                      A                      A
 Frequencies --   1082.3111              1119.1713              1128.3936
 Red. masses --      1.4125                 1.7921                 1.5427
 Frc consts  --      0.9749                 1.3225                 1.1573
 IR Inten    --      3.1608                21.4262                28.9028

                     28                     29                     30
                      A                      A                      A
 Frequencies --   1147.4460              1159.2273              1191.4807
 Red. masses --      2.0870                 1.6761                 2.3241
 Frc consts  --      1.6190                 1.3271                 1.9439
 IR Inten    --     53.5046                61.5280                93.6638

                     31                     32                     33
                      A                      A                      A
 Frequencies --   1238.0285              1263.6164              1269.0443
 Red. masses --      1.3560                 1.7338                 1.6413
 Frc consts  --      1.2246                 1.6311                 1.5573
 IR Inten    --      0.5003                 9.6862                 3.4760

                     34                     35                     36
                      A                      A                      A
 Frequencies --   1271.6102              1322.6456              1369.2686
 Red. masses --      1.7851                 1.2794                 1.4085
 Frc consts  --      1.7007                 1.3187                 1.5559
 IR Inten    --      4.0268                10.8830                24.5092

                     37                     38                     39
                      A                      A                      A
 Frequencies --   1409.5710              1416.6001              1471.1299
 Red. masses --      1.6018                 1.8687                 1.2365
 Frc consts  --      1.8751                 2.2095                 1.5767
 IR Inten    --      1.4566                11.2988                 3.3078

                     40                     41                     42
                      A                      A                      A
 Frequencies --   1489.1692              1513.2566              3067.6796
 Red. masses --      1.3477                 1.1183                 1.0574
 Frc consts  --      1.7609                 1.5088                 5.8627
 IR Inten    --     25.1405                 3.4663                33.9339

                     43                     44                     45
                      A                      A                      A
 Frequencies --   3071.9081              3099.9750              3108.4342
 Red. masses --      1.0599                 1.0872                 1.0899
 Frc consts  --      5.8929                 6.1558                 6.2046
 IR Inten    --     10.2803                41.3420                49.1857

                     46                     47                     48
                      A                      A                      A
 Frequencies --   3121.8598              3127.5745              3131.6632
 Red. masses --      1.0705                 1.0973                 1.1080
 Frc consts  --      6.1472                 6.3238                 6.4026
 IR Inten    --      3.4232                31.6598                18.4557

                     49                     50                     51
                      A                      A                      A
 Frequencies --   3133.3704              3220.1079              3824.7618
 Red. masses --      1.0865                 1.1125                 1.0661
 Frc consts  --      6.2847                 6.7964                 9.1890
 IR Inten    --     32.6411                 7.7873                18.7844

 - Thermochemistry -
 -------------------
 Temperature   298.150 Kelvin.  Pressure   1.00000 Atm.
 Atom     1 has atomic number  8 and mass  15.99491

 Molecular mass:   126.06808 amu.
 Principal axes and moments of inertia in atomic units:
                           1         2         3
     Eigenvalues --   664.96451 987.023861187.11577
           X            0.99616   0.08703   0.00985
           Y           -0.08648   0.99518  -0.04624
           Z           -0.01383   0.04521   0.99888
 This molecule is an asymmetric top.
 Rotational symmetry number  1.
 Warning -- assumption of classical behavior for rotation
           may cause significant error
 Rotational temperatures (Kelvin)      0.13025     0.08775     0.07296
 Rotational constants (GHZ):           2.71404     1.82847     1.52027
 Zero-point vibrational energy     421184.7 (Joules/Mol)
                                  100.66557 (Kcal/Mol)
 Warning -- explicit consideration of  10 degrees of freedom as
           vibrations may cause significant error
 Vibrational temperatures:    177.79   297.13   350.03   503.79   550.61
          (Kelvin)            631.01   666.78   682.34   751.62   852.47
                              997.14  1129.41  1156.61  1244.81  1269.16
                             1281.90  1330.67  1350.17  1378.84  1405.18
                             1443.09  1457.14  1507.47  1536.55  1557.20
                             1610.24  1623.50  1650.92  1667.87  1714.27
                             1781.24  1818.06  1825.87  1829.56  1902.99
                             1970.07  2028.06  2038.17  2116.63  2142.58
                             2177.24  4413.70  4419.79  4460.17  4472.34
                             4491.65  4499.88  4505.76  4508.22  4633.01
                             5502.97

 Zero-point correction=                           0.160421 (Hartree/Particle)
 Thermal correction to Energy=                    0.167812
 Thermal correction to Enthalpy=                  0.168756
 Thermal correction to Gibbs Free Energy=         0.129046
 Sum of electronic and zero-point Energies=           -422.984413
 Sum of electronic and thermal Energies=              -422.977023
 Sum of electronic and thermal Enthalpies=            -422.976078
 Sum of electronic and thermal Free Energies=         -423.015788

                     E (Thermal)             CV                S
                      KCal/Mol        Cal/Mol-Kelvin    Cal/Mol-Kelvin
 Total                  105.303             30.585             83.576
 Electronic               0.000              0.000              0.000
 Translational            0.889              2.981             40.409
 Rotational               0.889              2.981             28.146
 Vibrational            103.526             24.623             15.022
 Vibration     1          0.610              1.929              3.044
 Vibration     2          0.641              1.831              2.074
 Vibration     3          0.659              1.774              1.779
 Vibration     4          0.727              1.575              1.165
 Vibration     5          0.752              1.507              1.029
 Vibration     6          0.799              1.386              0.831
 Vibration     7          0.821              1.331              0.756
 Vibration     8          0.831              1.307              0.726
 Vibration     9          0.877              1.200              0.604
 Vibration    10          0.950              1.048              0.463

 Normal termination of Gaussian 09 at Mon Jan 27 20:00:59 2020.
