 Gaussian 09, Revision D.01,
 Gaussian 09:  ES64L-G09RevD.01 24-Apr-2013

 -----------------------------
 # b3lyp 6-31G(2df,p) opt Freq
 -----------------------------

 -----
 titel
 -----
 Symbolic Z-matrix:
 Charge =  0 Multiplicity = 1

 SCF Done:  E(RB3LYP) =  -423.112939705     A.U. after   14 cycles
 SCF Done:  E(RB3LYP) =  -423.112939622     A.U. after    7 cycles
 SCF Done:  E(RB3LYP) =  -423.112939601     A.U. after    7 cycles
 SCF Done:  E(RB3LYP) =  -423.112939625     A.U. after    7 cycles
 Optimization completed.
    -- Stationary point found.
 Normal termination of Gaussian 09 at Mon Jan 27 16:59:49 2020.

 ----------------------------------------------------------------------
 #N Geom=AllCheck Guess=TCheck SCRF=Check GenChk RB3LYP/6-31G(2df,p) Fr
 eq
 ----------------------------------------------------------------------

 Structure from the checkpoint file:  "/scratch/puck/g09_ac4a63e9-09af-401f-92d7-6b1b962a27d1/Gau-57455.chk"
 -----
 titel
 -----
 Charge =  0 Multiplicity = 1

                         Standard orientation:
 ---------------------------------------------------------------------
 Center     Atomic      Atomic             Coordinates (Angstroms)
 Number     Number       Type             X           Y           Z
 ---------------------------------------------------------------------
      1          8           0       -1.493431    1.352265   -0.794822
      2          6           0       -1.603343    0.128056   -0.125197
      3          6           0       -0.441052   -0.790756   -0.390258
      4          8           0        0.728462   -0.106035    0.037682
      5          6           0        1.922729   -0.773232   -0.322846
      6          6           0        3.076414    0.009545    0.099385
      7          6           0        4.042548    0.638152    0.435664
      8          6           0       -2.285184    0.111627    1.221883
      9          6           0       -2.988538   -0.421186   -0.012886
     10          1           0       -0.629447    1.708205   -0.551665
     11          1           0       -0.556370   -1.744623    0.148147
     12          1           0       -0.373473   -1.010279   -1.468394
     13          1           0        1.960544   -1.772338    0.143487
     14          1           0        1.960219   -0.932956   -1.413948
     15          1           0        4.893973    1.197020    0.736512
     16          1           0       -1.947821   -0.594110    1.973297
     17          1           0       -2.615860    1.069637    1.605276
     18          1           0       -3.137674   -1.491521   -0.108363
     19          1           0       -3.775786    0.187885   -0.441693
 ---------------------------------------------------------------------

 SCF Done:  E(RB3LYP) =  -423.112939625     A.U. after    1 cycles

 The electronic state is 1-A.
 Alpha  occ. eigenvalues --  -19.15524 -19.13436 -10.26177 -10.23806 -10.23583
 Alpha  occ. eigenvalues --  -10.18882 -10.18478 -10.18253 -10.18087  -1.05188
 Alpha  occ. eigenvalues --   -1.01930  -0.84651  -0.78311  -0.72155  -0.66926
 Alpha  occ. eigenvalues --   -0.60503  -0.57249  -0.54251  -0.51611  -0.50327
 Alpha  occ. eigenvalues --   -0.49549  -0.48101  -0.45848  -0.43047  -0.41380
 Alpha  occ. eigenvalues --   -0.37922  -0.36331  -0.34135  -0.32461  -0.29270
 Alpha  occ. eigenvalues --   -0.28311  -0.27985  -0.26364  -0.24770
 Alpha virt. eigenvalues --    0.02582   0.05032   0.08835   0.10384   0.11548
 Alpha virt. eigenvalues --    0.12239   0.12402   0.13367   0.14883   0.15975
 Alpha virt. eigenvalues --    0.16510   0.18567   0.20206   0.21433   0.22573

 Mulliken charges:
               1
     1  O   -0.472623
     2  C    0.428973
     3  C   -0.121336
     4  O   -0.264121
     5  C   -0.201539
     6  C    0.277278
     7  C   -0.410972
     8  C   -0.312666
     9  C   -0.315953
    10  H    0.289261
    11  H    0.089050
    12  H    0.096758
    13  H    0.121095
    14  H    0.122530
    15  H    0.202830
    16  H    0.111815
    17  H    0.120065
    18  H    0.111802
    19  H    0.127752
 Sum of Mulliken charges =   0.00000

 Dipole moment (field-independent basis, Debye):
    X=              0.8675    Y=             -1.4733    Z=              0.2018  Tot=              1.7216
 Quadrupole moment (field-independent basis, Debye-Ang):
   XX=            -50.3942   YY=            -50.4738   ZZ=            -54.5023
   XY=              3.5774   XZ=             -0.9826   YZ=              2.2428

  Exact polarizability: 103.874  11.172  69.754   3.866   3.507  64.014
 Approx polarizability: 130.815  21.370 106.631  10.137   6.350  96.351

                      1                      2                      3
                      A                      A                      A
 Frequencies --     43.1026                76.2593                89.4684
 Red. masses --      4.1346                 2.9411                 3.7455
 Frc consts  --      0.0045                 0.0101                 0.0177
 IR Inten    --      0.2749                 0.7931                 0.0509

                      4                      5                      6
                      A                      A                      A
 Frequencies --    144.9833               203.8557               286.4044
 Red. masses --      3.8125                 3.5591                 3.8588
 Frc consts  --      0.0472                 0.0871                 0.1865
 IR Inten    --      5.5789                 5.6884                 1.1090

                      7                      8                      9
                      A                      A                      A
 Frequencies --    331.2745               332.8346               371.0991
 Red. masses --      2.4220                 3.4765                 2.5732
 Frc consts  --      0.1566                 0.2269                 0.2088
 IR Inten    --      1.7593                 2.4157                 1.0388

                     10                     11                     12
                      A                      A                      A
 Frequencies --    403.3296               459.9623               474.4878
 Red. masses --      1.3616                 2.3660                 3.4214
 Frc consts  --      0.1305                 0.2949                 0.4538
 IR Inten    --     51.3801                67.5162                16.1028

                     13                     14                     15
                      A                      A                      A
 Frequencies --    585.7669               610.5451               678.7926
 Red. masses --      5.4810                 1.1939                 1.2421
 Frc consts  --      1.1081                 0.2622                 0.3372
 IR Inten    --      3.7210                44.4204                34.5793

                     16                     17                     18
                      A                      A                      A
 Frequencies --    753.4130               777.1340               891.4490
 Red. masses --      2.4298                 1.1833                 1.9280
 Frc consts  --      0.8126                 0.4211                 0.9027
 IR Inten    --      1.6985                 0.1049                 9.4166

                     19                     20                     21
                      A                      A                      A
 Frequencies --    926.1116               939.5010               979.2162
 Red. masses --      1.8175                 1.8292                 3.1627
 Frc consts  --      0.9184                 0.9513                 1.7868
 IR Inten    --      7.0552                13.9494                 6.9666

                     22                     23                     24
                      A                      A                      A
 Frequencies --    985.3554              1024.7847              1034.8703
 Red. masses --      2.3784                 2.0046                 3.3079
 Frc consts  --      1.3606                 1.2403                 2.0872
 IR Inten    --     21.4835                 8.8048                20.2725

                     25                     26                     27
                      A                      A                      A
 Frequencies --   1048.8421              1070.6377              1084.4105
 Red. masses --      1.4164                 1.8422                 1.7060
 Frc consts  --      0.9180                 1.2441                 1.1820
 IR Inten    --     12.1250                 4.9167                 0.0305

                     28                     29                     30
                      A                      A                      A
 Frequencies --   1133.8001              1189.4431              1224.7151
 Red. masses --      8.9089                 1.2785                 1.3284
 Frc consts  --      6.7476                 1.0657                 1.1739
 IR Inten    --    277.6938                 0.0705                20.7100

                     31                     32                     33
                      A                      A                      A
 Frequencies --   1252.7894              1288.2115              1320.8341
 Red. masses --      1.1042                 1.4869                 2.1251
 Frc consts  --      1.0211                 1.4538                 2.1843
 IR Inten    --      0.9989                44.2165                71.6444

                     34                     35                     36
                      A                      A                      A
 Frequencies --   1363.1892              1413.2538              1448.3221
 Red. masses --      1.3384                 1.3522                 1.4233
 Frc consts  --      1.4653                 1.5912                 1.7590
 IR Inten    --     92.6634                31.7208                10.5951

                     37                     38                     39
                      A                      A                      A
 Frequencies --   1455.6758              1494.1786              1510.7011
 Red. masses --      1.1639                 1.0882                 1.7696
 Frc consts  --      1.4531                 1.4314                 2.3795
 IR Inten    --      1.8327                 4.4322                 8.2702

                     40                     41                     42
                      A                      A                      A
 Frequencies --   1513.4186              2248.6672              2954.5624
 Red. masses --      1.0912                 5.8914                 1.0544
 Frc consts  --      1.4725                17.5516                 5.4228
 IR Inten    --      6.1348                 2.4995                17.0709

                     43                     44                     45
                      A                      A                      A
 Frequencies --   2967.9136              2975.6997              3005.6402
 Red. masses --      1.0553                 1.1028                 1.1058
 Frc consts  --      5.4770                 5.7535                 5.8858
 IR Inten    --     61.0804                37.1075                44.4432

                     46                     47                     48
                      A                      A                      A
 Frequencies --   3134.8022              3138.2071              3220.7131
 Red. masses --      1.0510                 1.0588                 1.1179
 Frc consts  --      6.0853                 6.1435                 6.8322
 IR Inten    --     14.8356                 5.7224                 0.1219

                     49                     50                     51
                      A                      A                      A
 Frequencies --   3234.4720              3505.9417              3780.6101
 Red. masses --      1.1156                 1.1640                 1.0652
 Frc consts  --      6.8765                 8.4301                 8.9702
 IR Inten    --     10.9197                62.6548                36.8796

 - Thermochemistry -
 -------------------
 Temperature   298.150 Kelvin.  Pressure   1.00000 Atm.
 Atom     1 has atomic number  8 and mass  15.99491

 Molecular mass:   126.06808 amu.
 Principal axes and moments of inertia in atomic units:
                           1         2         3
     Eigenvalues --   404.122212549.831982631.50541
           X            0.99996   0.00618  -0.00587
           Y           -0.00541   0.99242   0.12279
           Z            0.00659  -0.12275   0.99242
 This molecule is an asymmetric top.
 Rotational symmetry number  1.
 Rotational temperatures (Kelvin)      0.21433     0.03397     0.03291
 Rotational constants (GHZ):           4.46583     0.70779     0.68582
 Zero-point vibrational energy     409025.1 (Joules/Mol)
                                   97.75934 (Kcal/Mol)
 Warning -- explicit consideration of  14 degrees of freedom as
           vibrations may cause significant error
 Vibrational temperatures:     62.01   109.72   128.72   208.60   293.30
          (Kelvin)            412.07   476.63   478.87   533.93   580.30
                              661.78   682.68   842.79   878.44   976.63
                             1083.99  1118.12  1282.59  1332.47  1351.73
                             1408.87  1417.70  1474.43  1488.95  1509.05
                             1540.41  1560.22  1631.28  1711.34  1762.09
                             1802.48  1853.45  1900.38  1961.32  2033.35
                             2083.81  2094.39  2149.79  2173.56  2177.47
                             3235.33  4250.95  4270.16  4281.36  4324.44
                             4510.28  4515.17  4633.88  4653.68  5044.26
                             5439.45

 Zero-point correction=                           0.155789 (Hartree/Particle)
 Thermal correction to Energy=                    0.165694
 Thermal correction to Enthalpy=                  0.166638
 Thermal correction to Gibbs Free Energy=         0.120115
 Sum of electronic and zero-point Energies=           -422.957150
 Sum of electronic and thermal Energies=              -422.947246
 Sum of electronic and thermal Enthalpies=            -422.946302
 Sum of electronic and thermal Free Energies=         -422.992825

                     E (Thermal)             CV                S
                      KCal/Mol        Cal/Mol-Kelvin    Cal/Mol-Kelvin
 Total                  103.974             36.109             97.916
 Electronic               0.000              0.000              0.000
 Translational            0.889              2.981             40.409
 Rotational               0.889              2.981             29.385
 Vibrational            102.197             30.148             28.123
 Vibration     1          0.595              1.980              5.111
 Vibration     2          0.599              1.965              3.985
 Vibration     3          0.602              1.957              3.672
 Vibration     4          0.616              1.908              2.737
 Vibration     5          0.640              1.834              2.098
 Vibration     6          0.684              1.699              1.495
 Vibration     7          0.714              1.613              1.254
 Vibration     8          0.715              1.610              1.246
 Vibration     9          0.743              1.532              1.075
 Vibration    10          0.769              1.463              0.950
 Vibration    11          0.818              1.339              0.766
 Vibration    12          0.831              1.307              0.725
 Vibration    13          0.943              1.062              0.475
 Vibration    14          0.970              1.010              0.432

 Optimization completed.
    -- Stationary point found.
 Normal termination of Gaussian 09 at Mon Jan 27 17:33:23 2020.
