 Gaussian 09, Revision D.01,
 Gaussian 09:  ES64L-G09RevD.01 24-Apr-2013

 -----------------------------
 # b3lyp 6-31G(2df,p) opt Freq
 -----------------------------

 -----
 titel
 -----
 Symbolic Z-matrix:
 Charge =  0 Multiplicity = 1

 SCF Done:  E(RB3LYP) =  -423.167988281     A.U. after   14 cycles
 Optimization completed.
    -- Stationary point found.
 Normal termination of Gaussian 09 at Tue Jan 28 12:09:37 2020.

 ----------------------------------------------------------------------
 #N Geom=AllCheck Guess=TCheck SCRF=Check GenChk RB3LYP/6-31G(2df,p) Fr
 eq
 ----------------------------------------------------------------------

 Structure from the checkpoint file:  "/scratch/puck/g09_148ed176-e875-4f01-a1bb-e3efaf2d2a52/Gau-19190.chk"
 -----
 titel
 -----
 Charge =  0 Multiplicity = 1

                         Standard orientation:
 ---------------------------------------------------------------------
 Center     Atomic      Atomic             Coordinates (Angstroms)
 Number     Number       Type             X           Y           Z
 ---------------------------------------------------------------------
      1          6           0       -2.700754    0.266454    0.244846
      2          8           0       -1.725521   -0.619413   -0.267647
      3          6           0       -0.406347   -0.191026   -0.133407
      4          6           0        0.580103   -1.294197   -0.626308
      5          8           0        1.841038   -0.896750   -0.088029
      6          6           0        1.586519    0.339456    0.648941
      7          6           0        0.216396    0.054097    1.276176
      8          6           0        1.235519    1.408213   -0.376872
      9          6           0        0.029418    1.081998   -0.852789
     10          1           0       -2.620658    1.268821   -0.198665
     11          1           0       -3.675490   -0.155548   -0.009715
     12          1           0       -2.631742    0.364261    1.337184
     13          1           0        0.283478   -2.270999   -0.225808
     14          1           0        0.625210   -1.350223   -1.719381
     15          1           0        2.439548    0.517796    1.300434
     16          1           0        0.213873   -0.832061    1.916287
     17          1           0       -0.212595    0.912596    1.793969
     18          1           0        1.911193    2.171647   -0.740175
     19          1           0       -0.502082    1.513045   -1.692241
 ---------------------------------------------------------------------

 SCF Done:  E(RB3LYP) =  -423.167988281     A.U. after    1 cycles

 The electronic state is 1-A.
 Alpha  occ. eigenvalues --  -19.14822 -19.13158 -10.24454 -10.23544 -10.22847
 Alpha  occ. eigenvalues --  -10.22027 -10.18498 -10.18321 -10.18308  -1.04707
 Alpha  occ. eigenvalues --   -1.02510  -0.83686  -0.74644  -0.71660  -0.68057
 Alpha  occ. eigenvalues --   -0.61226  -0.57682  -0.53325  -0.52773  -0.49613
 Alpha  occ. eigenvalues --   -0.45362  -0.44944  -0.43842  -0.42251  -0.41739
 Alpha  occ. eigenvalues --   -0.39056  -0.37239  -0.36350  -0.35690  -0.33196
 Alpha  occ. eigenvalues --   -0.29520  -0.26082  -0.25699  -0.23945
 Alpha virt. eigenvalues --    0.00341   0.09808   0.09934   0.12246   0.12675
 Alpha virt. eigenvalues --    0.14653   0.14951   0.15480   0.16027   0.16548
 Alpha virt. eigenvalues --    0.17603   0.18777   0.20151   0.20497   0.21114

 Mulliken charges:
               1
     1  C   -0.260619
     2  O   -0.312094
     3  C    0.369887
     4  C   -0.104806
     5  O   -0.278579
     6  C    0.053523
     7  C   -0.289167
     8  C   -0.083236
     9  C   -0.151587
    10  H    0.111360
    11  H    0.130085
    12  H    0.113459
    13  H    0.105624
    14  H    0.100193
    15  H    0.077761
    16  H    0.105006
    17  H    0.102752
    18  H    0.105067
    19  H    0.105370
 Sum of Mulliken charges =   0.00000

 Dipole moment (field-independent basis, Debye):
    X=             -1.1832    Y=              1.6643    Z=              0.6128  Tot=              2.1320
 Quadrupole moment (field-independent basis, Debye-Ang):
   XX=            -53.4440   YY=            -53.3839   ZZ=            -51.4596
   XY=              1.1920   XZ=              0.2703   YZ=             -0.7464

  Exact polarizability:  85.084   3.749  72.174   3.281  -1.699  67.581
 Approx polarizability: 124.975   6.295 109.699   9.773   0.031 101.584

                      1                      2                      3
                      A                      A                      A
 Frequencies --     99.0208               172.3005               207.0089
 Red. masses --      2.2330                 1.2560                 2.6849
 Frc consts  --      0.0129                 0.0220                 0.0678
 IR Inten    --      1.3548                 0.3127                 0.6174

                      4                      5                      6
                      A                      A                      A
 Frequencies --    280.5534               369.7908               389.3552
 Red. masses --      2.5958                 3.6752                 3.3968
 Frc consts  --      0.1204                 0.2961                 0.3034
 IR Inten    --      7.7825                 1.4345                 3.0621

                      7                      8                      9
                      A                      A                      A
 Frequencies --    443.3571               498.7092               509.3967
 Red. masses --      3.1306                 2.1530                 2.8503
 Frc consts  --      0.3626                 0.3155                 0.4358
 IR Inten    --      6.4247                 0.9421                 0.7177

                     10                     11                     12
                      A                      A                      A
 Frequencies --    620.7064               680.4172               744.8666
 Red. masses --      4.9120                 3.8262                 1.6403
 Frc consts  --      1.1150                 1.0437                 0.5362
 IR Inten    --      6.4137                 0.5551                18.3223

                     13                     14                     15
                      A                      A                      A
 Frequencies --    783.1662               803.9578               867.2774
 Red. masses --      4.1458                 4.1922                 3.8594
 Frc consts  --      1.4982                 1.5965                 1.7104
 IR Inten    --      2.1808                 0.1913                64.4505

                     16                     17                     18
                      A                      A                      A
 Frequencies --    913.1827               944.5624               950.1004
 Red. masses --      2.2019                 1.6205                 1.9092
 Frc consts  --      1.0818                 0.8519                 1.0154
 IR Inten    --      0.3939                11.1570                 0.7987

                     19                     20                     21
                      A                      A                      A
 Frequencies --    970.5277               981.6403              1024.6457
 Red. masses --      1.7255                 2.0457                 4.3898
 Frc consts  --      0.9576                 1.1614                 2.7155
 IR Inten    --     11.6402                 8.3932                51.3109

                     22                     23                     24
                      A                      A                      A
 Frequencies --   1059.2861              1078.6650              1106.0890
 Red. masses --      2.2241                 1.6437                 1.6411
 Frc consts  --      1.4704                 1.1268                 1.1830
 IR Inten    --      5.5200                 9.6477                39.1212

                     25                     26                     27
                      A                      A                      A
 Frequencies --   1128.6264              1166.7364              1182.5448
 Red. masses --      2.3603                 1.4253                 1.2866
 Frc consts  --      1.7714                 1.1432                 1.0601
 IR Inten    --      1.4101                 1.1732                 2.2909

                     28                     29                     30
                      A                      A                      A
 Frequencies --   1208.3798              1217.1477              1247.5470
 Red. masses --      1.8224                 1.4987                 1.8408
 Frc consts  --      1.5678                 1.3082                 1.6880
 IR Inten    --     15.5325                 8.2570                12.0571

                     31                     32                     33
                      A                      A                      A
 Frequencies --   1264.6612              1279.3617              1293.7044
 Red. masses --      2.6201                 1.5382                 1.2818
 Frc consts  --      2.4690                 1.4834                 1.2640
 IR Inten    --    131.1053                 9.7710                 1.2799

                     34                     35                     36
                      A                      A                      A
 Frequencies --   1348.1792              1369.1879              1481.3291
 Red. masses --      1.5911                 1.6757                 1.1428
 Frc consts  --      1.7039                 1.8509                 1.4775
 IR Inten    --     21.3910                61.7400                 1.9533

                     37                     38                     39
                      A                      A                      A
 Frequencies --   1485.5188              1489.1825              1509.1316
 Red. masses --      1.0901                 1.0998                 1.0558
 Frc consts  --      1.4173                 1.4370                 1.4167
 IR Inten    --      5.6428                 1.9128                 8.5277

                     40                     41                     42
                      A                      A                      A
 Frequencies --   1522.1095              1634.2461              2993.9510
 Red. masses --      1.0938                 6.0461                 1.0351
 Frc consts  --      1.4931                 9.5139                 5.4669
 IR Inten    --      0.9933                 2.2079                42.4347

                     43                     44                     45
                      A                      A                      A
 Frequencies --   3023.9646              3045.7713              3069.0291
 Red. masses --      1.0556                 1.1031                 1.0813
 Frc consts  --      5.6870                 6.0291                 6.0007
 IR Inten    --     52.0513                37.7175                 0.7871

                     46                     47                     48
                      A                      A                      A
 Frequencies --   3072.0610              3120.7243              3138.9898
 Red. masses --      1.0870                 1.0980                 1.1070
 Frc consts  --      6.0442                 6.3004                 6.4267
 IR Inten    --     57.5347                29.4519                20.0633

                     49                     50                     51
                      A                      A                      A
 Frequencies --   3143.2060              3199.7085              3225.3408
 Red. masses --      1.0910                 1.0862                 1.1071
 Frc consts  --      6.3509                 6.5518                 6.7854
 IR Inten    --     30.8467                 6.3409                10.0086

 - Thermochemistry -
 -------------------
 Temperature   298.150 Kelvin.  Pressure   1.00000 Atm.
 Atom     1 has atomic number  6 and mass  12.00000

 Molecular mass:   126.06808 amu.
 Principal axes and moments of inertia in atomic units:
                           1         2         3
     Eigenvalues --   557.649751218.581381355.84164
           X            0.99996  -0.00538  -0.00672
           Y            0.00532   0.99995  -0.00886
           Z            0.00676   0.00883   0.99994
 This molecule is an asymmetric top.
 Rotational symmetry number  1.
 Warning -- assumption of classical behavior for rotation
           may cause significant error
 Rotational temperatures (Kelvin)      0.15532     0.07108     0.06388
 Rotational constants (GHZ):           3.23633     1.48102     1.33109
 Zero-point vibrational energy     420839.8 (Joules/Mol)
                                  100.58313 (Kcal/Mol)
 Warning -- explicit consideration of  10 degrees of freedom as
           vibrations may cause significant error
 Vibrational temperatures:    142.47   247.90   297.84   403.65   532.05
          (Kelvin)            560.19   637.89   717.53   732.91   893.06
                              978.97  1071.70  1126.80  1156.71  1247.82
                             1313.86  1359.01  1366.98  1396.37  1412.36
                             1474.23  1524.07  1551.96  1591.41  1623.84
                             1678.67  1701.42  1738.59  1751.20  1794.94
                             1819.56  1840.71  1861.35  1939.73  1969.95
                             2131.30  2137.33  2142.60  2171.30  2189.97
                             2351.31  4307.62  4350.81  4382.18  4415.64
                             4420.01  4490.02  4516.30  4522.37  4603.66
                             4640.54

 Zero-point correction=                           0.160289 (Hartree/Particle)
 Thermal correction to Energy=                    0.167941
 Thermal correction to Enthalpy=                  0.168886
 Thermal correction to Gibbs Free Energy=         0.128355
 Sum of electronic and zero-point Energies=           -423.007699
 Sum of electronic and thermal Energies=              -423.000047
 Sum of electronic and thermal Enthalpies=            -422.999103
 Sum of electronic and thermal Free Energies=         -423.039633

                     E (Thermal)             CV                S
                      KCal/Mol        Cal/Mol-Kelvin    Cal/Mol-Kelvin
 Total                  105.385             30.507             85.303
 Electronic               0.000              0.000              0.000
 Translational            0.889              2.981             40.409
 Rotational               0.889              2.981             28.312
 Vibrational            103.607             24.546             16.582
 Vibration     1          0.604              1.950              3.474
 Vibration     2          0.626              1.877              2.410
 Vibration     3          0.641              1.830              2.070
 Vibration     4          0.680              1.710              1.530
 Vibration     5          0.742              1.534              1.081
 Vibration     6          0.757              1.493              1.003
 Vibration     7          0.803              1.376              0.816
 Vibration     8          0.854              1.253              0.661
 Vibration     9          0.865              1.229              0.635
 Vibration    10          0.981              0.988              0.415

 Normal termination of Gaussian 09 at Tue Jan 28 12:59:16 2020.
