 Gaussian 09, Revision D.01,
 Gaussian 09:  ES64L-G09RevD.01 24-Apr-2013

 -----------------------------
 # b3lyp 6-31G(2df,p) opt Freq
 -----------------------------

 -----
 titel
 -----
 Symbolic Z-matrix:
 Charge =  0 Multiplicity = 1

 SCF Done:  E(RB3LYP) =  -423.175428638     A.U. after   14 cycles
 Optimization completed.
    -- Stationary point found.
 Normal termination of Gaussian 09 at Tue Jan 28 04:06:19 2020.

 ----------------------------------------------------------------------
 #N Geom=AllCheck Guess=TCheck SCRF=Check GenChk RB3LYP/6-31G(2df,p) Fr
 eq
 ----------------------------------------------------------------------

 Structure from the checkpoint file:  "/scratch/puck/g09_70333633-e72a-496a-9b3d-3f0380d9beff/Gau-4080.chk"
 -----
 titel
 -----
 Charge =  0 Multiplicity = 1

                         Standard orientation:
 ---------------------------------------------------------------------
 Center     Atomic      Atomic             Coordinates (Angstroms)
 Number     Number       Type             X           Y           Z
 ---------------------------------------------------------------------
      1          6           0        1.435759    1.546008   -0.846262
      2          6           0        1.246991    0.046188   -0.676307
      3          6           0        1.942323   -0.644698    0.516787
      4          8           0        0.694388   -1.220303    0.962252
      5          6           0       -0.054736   -0.496712   -0.011729
      6          6           0       -1.169509   -1.214430   -0.819632
      7          6           0       -2.133385   -0.011758   -0.593682
      8          6           0       -1.134312    0.514257    0.455126
      9          8           0       -1.190481    1.315188    1.341878
     10          1           0        0.782520    1.946149   -1.629268
     11          1           0        1.215493    2.080112    0.082494
     12          1           0        2.468330    1.770980   -1.133965
     13          1           0        1.439216   -0.476506   -1.618163
     14          1           0        2.687177   -1.413536    0.284322
     15          1           0        2.354737    0.047742    1.261091
     16          1           0       -0.923310   -1.464509   -1.853284
     17          1           0       -1.498081   -2.116930   -0.298938
     18          1           0       -2.219229    0.661089   -1.452997
     19          1           0       -3.136897   -0.226802   -0.220131
 ---------------------------------------------------------------------

 SCF Done:  E(RB3LYP) =  -423.175428637     A.U. after    1 cycles

 The electronic state is 1-A.
 Alpha  occ. eigenvalues --  -19.14273 -19.14124 -10.26637 -10.24276 -10.23406
 Alpha  occ. eigenvalues --  -10.20590 -10.19565 -10.19365 -10.18591  -1.05557
 Alpha  occ. eigenvalues --   -1.04155  -0.84043  -0.78229  -0.68451  -0.66899
 Alpha  occ. eigenvalues --   -0.63395  -0.59127  -0.51150  -0.49397  -0.47580
 Alpha  occ. eigenvalues --   -0.46551  -0.45174  -0.43484  -0.41834  -0.41165
 Alpha  occ. eigenvalues --   -0.39119  -0.38055  -0.36408  -0.36207  -0.35282
 Alpha  occ. eigenvalues --   -0.31670  -0.30530  -0.27644  -0.22720
 Alpha virt. eigenvalues --   -0.03307   0.07901   0.09333   0.10900   0.12217
 Alpha virt. eigenvalues --    0.12813   0.13543   0.14065   0.15754   0.16524
 Alpha virt. eigenvalues --    0.17408   0.17979   0.18859   0.19278   0.20551

 Mulliken charges:
               1
     1  C   -0.422894
     2  C   -0.101355
     3  C   -0.085655
     4  O   -0.312025
     5  C    0.350310
     6  C   -0.316605
     7  C   -0.347768
     8  C    0.347163
     9  O   -0.302091
    10  H    0.118986
    11  H    0.146982
    12  H    0.119856
    13  H    0.087383
    14  H    0.105227
    15  H    0.110145
    16  H    0.106796
    17  H    0.128354
    18  H    0.131670
    19  H    0.135521
 Sum of Mulliken charges =   0.00000

 Dipole moment (field-independent basis, Debye):
    X=              0.8266    Y=             -0.5807    Z=             -3.0781  Tot=              3.2397
 Quadrupole moment (field-independent basis, Debye-Ang):
   XX=            -48.5037   YY=            -56.4081   ZZ=            -56.0763
   XY=              2.7612   XZ=              1.8242   YZ=             -1.3904

  Exact polarizability:  86.213  -0.225  71.894   3.203   3.146  68.622
 Approx polarizability: 112.157  -1.963 106.853   3.047   8.548 108.675

                      1                      2                      3
                      A                      A                      A
 Frequencies --     57.2938                78.8706               135.0412
 Red. masses --      2.6532                 2.8927                 4.1147
 Frc consts  --      0.0051                 0.0106                 0.0442
 IR Inten    --      1.5528                 3.4345                 1.9561

                      4                      5                      6
                      A                      A                      A
 Frequencies --    223.3058               237.5241               263.3164
 Red. masses --      1.3417                 6.6545                 1.5625
 Frc consts  --      0.0394                 0.2212                 0.0638
 IR Inten    --      0.1763                 2.3831                 0.5218

                      7                      8                      9
                      A                      A                      A
 Frequencies --    340.6694               389.8969               480.0641
 Red. masses --      2.9642                 2.6267                 3.4799
 Frc consts  --      0.2027                 0.2353                 0.4725
 IR Inten    --      1.2680                 0.1823                 0.1521

                     10                     11                     12
                      A                      A                      A
 Frequencies --    521.3212               586.3225               701.3752
 Red. masses --      2.0450                 4.5209                 3.1863
 Frc consts  --      0.3275                 0.9157                 0.9235
 IR Inten    --      1.0744                 9.3663                 1.5698

                     13                     14                     15
                      A                      A                      A
 Frequencies --    736.1670               755.8149               851.1848
 Red. masses --      1.8956                 2.0560                 2.9818
 Frc consts  --      0.6053                 0.6920                 1.2729
 IR Inten    --      1.6254                 6.0131                16.6743

                     16                     17                     18
                      A                      A                      A
 Frequencies --    896.7074               917.2768               928.8243
 Red. masses --      2.2746                 1.4574                 2.4937
 Frc consts  --      1.0776                 0.7225                 1.2675
 IR Inten    --      5.5827                 2.8015                13.8604

                     19                     20                     21
                      A                      A                      A
 Frequencies --    956.4411              1019.3525              1023.7086
 Red. masses --      1.8942                 1.9661                 5.3875
 Frc consts  --      1.0209                 1.2037                 3.3265
 IR Inten    --      7.1004                53.3627                75.0684

                     22                     23                     24
                      A                      A                      A
 Frequencies --   1059.4574              1080.7036              1129.8610
 Red. masses --      2.3148                 2.8296                 2.0023
 Frc consts  --      1.5308                 1.9471                 1.5061
 IR Inten    --     29.1213                25.1951                 1.0624

                     25                     26                     27
                      A                      A                      A
 Frequencies --   1153.1144              1155.6737              1181.5635
 Red. masses --      1.4378                 2.6682                 1.5021
 Frc consts  --      1.1264                 2.0996                 1.2355
 IR Inten    --      2.4595                24.5995                 1.5761

                     28                     29                     30
                      A                      A                      A
 Frequencies --   1192.2391              1209.6022              1225.3408
 Red. masses --      2.1670                 1.7700                 1.2001
 Frc consts  --      1.8149                 1.5258                 1.0617
 IR Inten    --     10.7659                 1.7802                 2.8500

                     31                     32                     33
                      A                      A                      A
 Frequencies --   1266.2671              1281.3253              1339.8095
 Red. masses --      1.7655                 1.8302                 1.3472
 Frc consts  --      1.6679                 1.7704                 1.4249
 IR Inten    --      1.1696                 1.7852                 3.7555

                     34                     35                     36
                      A                      A                      A
 Frequencies --   1376.9351              1415.6107              1442.2763
 Red. masses --      1.5954                 1.2473                 1.0928
 Frc consts  --      1.7822                 1.4727                 1.3394
 IR Inten    --      1.3661                 3.9728                 9.2686

                     37                     38                     39
                      A                      A                      A
 Frequencies --   1477.6410              1496.7425              1499.2918
 Red. masses --      1.1040                 1.0443                 1.0502
 Frc consts  --      1.4202                 1.3783                 1.3909
 IR Inten    --      3.7580                 7.0089                 4.3864

                     40                     41                     42
                      A                      A                      A
 Frequencies --   1523.5676              1885.2415              3020.2690
 Red. masses --      1.1014                12.7651                 1.0557
 Frc consts  --      1.5064                26.7305                 5.6741
 IR Inten    --      3.6142               197.5867                69.9034

                     43                     44                     45
                      A                      A                      A
 Frequencies --   3033.3369              3054.9927              3060.8670
 Red. masses --      1.0364                 1.0905                 1.0606
 Frc consts  --      5.6184                 5.9964                 5.8543
 IR Inten    --     20.2470                 4.5483                 8.6175

                     46                     47                     48
                      A                      A                      A
 Frequencies --   3073.3971              3074.8684              3095.8444
 Red. masses --      1.0674                 1.0962                 1.1009
 Frc consts  --      5.9403                 6.1063                 6.2167
 IR Inten    --      2.7894                60.9786                22.8580

                     49                     50                     51
                      A                      A                      A
 Frequencies --   3116.2830              3117.4879              3132.9331
 Red. masses --      1.1043                 1.1013                 1.1073
 Frc consts  --      6.3183                 6.3062                 6.4033
 IR Inten    --      2.5935                17.9283                17.0264

 - Thermochemistry -
 -------------------
 Temperature   298.150 Kelvin.  Pressure   1.00000 Atm.
 Atom     1 has atomic number  6 and mass  12.00000

 Molecular mass:   126.06808 amu.
 Principal axes and moments of inertia in atomic units:
                           1         2         3
     Eigenvalues --   780.434881201.542761344.89594
           X            0.99756   0.06732   0.01854
           Y           -0.06633   0.99656  -0.04971
           Z           -0.02182   0.04836   0.99859
 This molecule is an asymmetric top.
 Rotational symmetry number  1.
 Warning -- assumption of classical behavior for rotation
           may cause significant error
 Rotational temperatures (Kelvin)      0.11098     0.07209     0.06440
 Rotational constants (GHZ):           2.31248     1.50202     1.34192
 Zero-point vibrational energy     414344.7 (Joules/Mol)
                                   99.03076 (Kcal/Mol)
 Warning -- explicit consideration of  11 degrees of freedom as
           vibrations may cause significant error
 Vibrational temperatures:     82.43   113.48   194.29   321.29   341.74
          (Kelvin)            378.85   490.15   560.97   690.70   750.06
                              843.59  1009.12  1059.18  1087.45  1224.66
                             1290.16  1319.76  1336.37  1376.10  1466.62
                             1472.89  1524.32  1554.89  1625.62  1659.07
                             1662.75  1700.00  1715.36  1740.35  1762.99
                             1821.87  1843.54  1927.68  1981.10  2036.75
                             2075.11  2125.99  2153.48  2157.14  2192.07
                             2712.44  4345.49  4364.29  4395.45  4403.90
                             4421.93  4424.04  4454.22  4483.63  4485.36
                             4507.59

 Zero-point correction=                           0.157816 (Hartree/Particle)
 Thermal correction to Energy=                    0.166612
 Thermal correction to Enthalpy=                  0.167556
 Thermal correction to Gibbs Free Energy=         0.123808
 Sum of electronic and zero-point Energies=           -423.017613
 Sum of electronic and thermal Energies=              -423.008816
 Sum of electronic and thermal Enthalpies=            -423.007872
 Sum of electronic and thermal Free Energies=         -423.051621

                     E (Thermal)             CV                S
                      KCal/Mol        Cal/Mol-Kelvin    Cal/Mol-Kelvin
 Total                  104.551             32.491             92.077
 Electronic               0.000              0.000              0.000
 Translational            0.889              2.981             40.409
 Rotational               0.889              2.981             28.624
 Vibrational            102.773             26.529             23.045
 Vibration     1          0.596              1.975              4.548
 Vibration     2          0.600              1.963              3.919
 Vibration     3          0.613              1.918              2.873
 Vibration     4          0.649              1.806              1.932
 Vibration     5          0.656              1.783              1.821
 Vibration     6          0.670              1.740              1.640
 Vibration     7          0.720              1.594              1.209
 Vibration     8          0.758              1.492              1.001
 Vibration     9          0.836              1.294              0.710
 Vibration    10          0.876              1.203              0.607
 Vibration    11          0.943              1.061              0.474

 Optimization completed.
    -- Stationary point found.
 Normal termination of Gaussian 09 at Tue Jan 28 04:47:41 2020.
