 Gaussian 09, Revision D.01,
 Gaussian 09:  ES64L-G09RevD.01 24-Apr-2013

 -----------------------------
 # b3lyp 6-31G(2df,p) opt Freq
 -----------------------------

 -----
 titel
 -----
 Symbolic Z-matrix:
 Charge =  0 Multiplicity = 1

 SCF Done:  E(RB3LYP) =  -423.143981680     A.U. after   13 cycles
 Optimization completed.
    -- Stationary point found.
 Normal termination of Gaussian 09 at Mon Jan 27 11:18:25 2020.

 ----------------------------------------------------------------------
 #N Geom=AllCheck Guess=TCheck SCRF=Check GenChk RB3LYP/6-31G(2df,p) Fr
 eq
 ----------------------------------------------------------------------

 Structure from the checkpoint file:  "/scratch/puck/g09_5d70a682-a7f3-4e77-b2a8-4248ca607067/Gau-150504.chk"
 -----
 titel
 -----
 Charge =  0 Multiplicity = 1

                         Standard orientation:
 ---------------------------------------------------------------------
 Center     Atomic      Atomic             Coordinates (Angstroms)
 Number     Number       Type             X           Y           Z
 ---------------------------------------------------------------------
      1          6           0       -1.827619   -0.336746   -0.307754
      2          6           0       -1.002525   -1.470424    0.305687
      3          6           0        0.501631   -1.262648    0.249166
      4          8           0        1.003754   -0.790096   -1.042769
      5          6           0        1.770070    0.220392   -0.381333
      6          6           0        0.878447    1.221607    0.288326
      7          6           0       -0.491907    1.636748   -0.245796
      8          8           0       -1.591131    0.923393    0.290340
      9          6           0        1.180257   -0.097796    0.973213
     10          1           0       -1.634078   -0.286253   -1.388528
     11          1           0       -2.892770   -0.550753   -0.166910
     12          1           0       -1.280795   -1.604010    1.358658
     13          1           0       -1.263276   -2.402565   -0.213535
     14          1           0        1.018854   -2.199054    0.495532
     15          1           0        2.782445    0.393527   -0.728158
     16          1           0        1.445379    2.029104    0.747636
     17          1           0       -0.667357    2.684274    0.018154
     18          1           0       -0.498809    1.562312   -1.343069
     19          1           0        1.639291   -0.159757    1.950595
 ---------------------------------------------------------------------

 SCF Done:  E(RB3LYP) =  -423.143981680     A.U. after    1 cycles

 The electronic state is 1-A.
 Alpha  occ. eigenvalues --  -19.13856 -19.13155 -10.23952 -10.23770 -10.22464
 Alpha  occ. eigenvalues --  -10.22136 -10.19524 -10.19249 -10.18134  -1.05177
 Alpha  occ. eigenvalues --   -1.02259  -0.83604  -0.77906  -0.70658  -0.68091
 Alpha  occ. eigenvalues --   -0.59575  -0.56526  -0.53518  -0.52792  -0.49642
 Alpha  occ. eigenvalues --   -0.48178  -0.45636  -0.43643  -0.41805  -0.40087
 Alpha  occ. eigenvalues --   -0.39380  -0.36953  -0.35550  -0.32886  -0.32062
 Alpha  occ. eigenvalues --   -0.29964  -0.27067  -0.25674  -0.22964
 Alpha virt. eigenvalues --    0.07781   0.08689   0.10841   0.10976   0.13565
 Alpha virt. eigenvalues --    0.14257   0.14498   0.15907   0.16267   0.16855
 Alpha virt. eigenvalues --    0.17568   0.18087   0.19353   0.20377   0.22456

 Mulliken charges:
               1
     1  C   -0.075386
     2  C   -0.234178
     3  C    0.127234
     4  O   -0.307168
     5  C    0.073009
     6  C   -0.058915
     7  C   -0.116268
     8  O   -0.241027
     9  C   -0.162161
    10  H    0.104311
    11  H    0.099690
    12  H    0.109939
    13  H    0.100862
    14  H    0.083887
    15  H    0.101326
    16  H    0.091755
    17  H    0.103720
    18  H    0.102542
    19  H    0.096829
 Sum of Mulliken charges =   0.00000

 Dipole moment (field-independent basis, Debye):
    X=              0.9347    Y=             -0.1500    Z=              0.7571  Tot=              1.2121
 Quadrupole moment (field-independent basis, Debye-Ang):
   XX=            -52.0948   YY=            -50.5747   ZZ=            -54.4935
   XY=              4.0577   XZ=              2.9933   YZ=             -2.3802

  Exact polarizability:  77.656   4.543  80.000   0.937  -1.638  63.948
 Approx polarizability: 104.838   4.619 113.559  -3.347   0.190 105.925

                      1                      2                      3
                      A                      A                      A
 Frequencies --    138.7329               191.2749               257.8697
 Red. masses --      2.1911                 3.3692                 7.3196
 Frc consts  --      0.0248                 0.0726                 0.2868
 IR Inten    --      1.8088                 5.5913                 1.6790

                      4                      5                      6
                      A                      A                      A
 Frequencies --    372.3070               387.6086               420.9114
 Red. masses --      2.4636                 4.1346                 2.0287
 Frc consts  --      0.2012                 0.3660                 0.2118
 IR Inten    --      3.6715                 1.6457                 3.5378

                      7                      8                      9
                      A                      A                      A
 Frequencies --    544.5891               619.5743               640.4525
 Red. masses --      3.6600                 2.7696                 3.8869
 Frc consts  --      0.6395                 0.6264                 0.9394
 IR Inten    --     12.1629                 2.6755                 4.7893

                     10                     11                     12
                      A                      A                      A
 Frequencies --    718.4490               767.9744               796.0297
 Red. masses --      2.1816                 2.8337                 2.0641
 Frc consts  --      0.6635                 0.9847                 0.7706
 IR Inten    --      2.6506                 5.8675                 6.3195

                     13                     14                     15
                      A                      A                      A
 Frequencies --    855.2330               866.7684               923.6273
 Red. masses --      1.8401                 3.6694                 2.2247
 Frc consts  --      0.7930                 1.6243                 1.1182
 IR Inten    --     16.1636                 3.7708                17.0857

                     16                     17                     18
                      A                      A                      A
 Frequencies --    930.7940               944.4734               998.1314
 Red. masses --      3.2407                 2.4571                 2.4903
 Frc consts  --      1.6543                 1.2914                 1.4617
 IR Inten    --      4.0273                20.2844                 5.6182

                     19                     20                     21
                      A                      A                      A
 Frequencies --   1006.9963              1026.0809              1048.7853
 Red. masses --      2.0373                 2.7404                 1.6273
 Frc consts  --      1.2172                 1.6999                 1.0546
 IR Inten    --      3.9029                20.7742                 7.4295

                     22                     23                     24
                      A                      A                      A
 Frequencies --   1052.7070              1077.7712              1102.8405
 Red. masses --      1.8962                 2.2139                 1.8430
 Frc consts  --      1.2381                 1.5151                 1.3207
 IR Inten    --     21.5529                 5.5341                15.2354

                     25                     26                     27
                      A                      A                      A
 Frequencies --   1142.5971              1146.2920              1193.6913
 Red. masses --      2.1442                 2.9336                 1.9612
 Frc consts  --      1.6493                 2.2711                 1.6465
 IR Inten    --     17.6597                88.7034                34.3410

                     28                     29                     30
                      A                      A                      A
 Frequencies --   1222.3427              1261.2176              1291.9437
 Red. masses --      1.2020                 1.2837                 1.2536
 Frc consts  --      1.0582                 1.2030                 1.2328
 IR Inten    --      1.4653                 6.0010                28.3580

                     31                     32                     33
                      A                      A                      A
 Frequencies --   1309.2919              1332.8952              1340.8493
 Red. masses --      1.4827                 1.3542                 1.4010
 Frc consts  --      1.4975                 1.4175                 1.4841
 IR Inten    --      0.4731                 7.4809                 5.2441

                     34                     35                     36
                      A                      A                      A
 Frequencies --   1370.7893              1397.5992              1406.1401
 Red. masses --      1.5312                 1.3312                 1.4011
 Frc consts  --      1.6952                 1.5320                 1.6322
 IR Inten    --      7.9641                 0.2919                14.5638

                     37                     38                     39
                      A                      A                      A
 Frequencies --   1427.7286              1433.6654              1462.7554
 Red. masses --      1.3709                 2.0822                 1.1016
 Frc consts  --      1.6465                 2.5216                 1.3887
 IR Inten    --     13.3853                 4.1662                 3.2629

                     40                     41                     42
                      A                      A                      A
 Frequencies --   1477.9185              1500.6193              2996.2768
 Red. masses --      1.0764                 1.1017                 1.0663
 Frc consts  --      1.3853                 1.4617                 5.6401
 IR Inten    --      1.7445                 7.5482                39.3672

                     43                     44                     45
                      A                      A                      A
 Frequencies --   3005.7964              3010.9567              3026.8781
 Red. masses --      1.0631                 1.0739                 1.0730
 Frc consts  --      5.6592                 5.7361                 5.7920
 IR Inten    --     30.3773                26.8042                61.4415

                     46                     47                     48
                      A                      A                      A
 Frequencies --   3060.5807              3070.9192              3073.7116
 Red. masses --      1.0982                 1.1007                 1.0977
 Frc consts  --      6.0608                 6.1161                 6.1103
 IR Inten    --     36.9546                29.1807                34.8151

                     49                     50                     51
                      A                      A                      A
 Frequencies --   3132.0380              3176.5723              3202.7310
 Red. masses --      1.0867                 1.0911                 1.0967
 Frc consts  --      6.2806                 6.4866                 6.6277
 IR Inten    --     14.9414                27.0139                14.5716

 - Thermochemistry -
 -------------------
 Temperature   298.150 Kelvin.  Pressure   1.00000 Atm.
 Atom     1 has atomic number  6 and mass  12.00000

 Molecular mass:   126.06808 amu.
 Principal axes and moments of inertia in atomic units:
                           1         2         3
     Eigenvalues --   697.11238 910.514631270.42926
           X            0.99416   0.10424   0.02785
           Y           -0.10335   0.99414  -0.03155
           Z           -0.03097   0.02849   0.99911
 This molecule is an asymmetric top.
 Rotational symmetry number  1.
 Warning -- assumption of classical behavior for rotation
           may cause significant error
 Rotational temperatures (Kelvin)      0.12425     0.09513     0.06818
 Rotational constants (GHZ):           2.58888     1.98211     1.42058
 Zero-point vibrational energy     425659.9 (Joules/Mol)
                                  101.73516 (Kcal/Mol)
 Warning -- explicit consideration of   8 degrees of freedom as
           vibrations may cause significant error
 Vibrational temperatures:    199.61   275.20   371.02   535.67   557.68
          (Kelvin)            605.60   783.54   891.43   921.47  1033.69
                             1104.94  1145.31  1230.49  1247.08  1328.89
                             1339.20  1358.88  1436.09  1448.84  1476.30
                             1508.97  1514.61  1550.67  1586.74  1643.94
                             1649.26  1717.45  1758.68  1814.61  1858.82
                             1883.78  1917.74  1929.18  1972.26  2010.83
                             2023.12  2054.18  2062.72  2104.58  2126.39
                             2159.05  4310.97  4324.67  4332.09  4355.00
                             4403.49  4418.36  4422.38  4506.30  4570.37
                             4608.01

 Zero-point correction=                           0.162125 (Hartree/Particle)
 Thermal correction to Energy=                    0.169042
 Thermal correction to Enthalpy=                  0.169987
 Thermal correction to Gibbs Free Energy=         0.131004
 Sum of electronic and zero-point Energies=           -422.981856
 Sum of electronic and thermal Energies=              -422.974939
 Sum of electronic and thermal Enthalpies=            -422.973995
 Sum of electronic and thermal Free Energies=         -423.012978

                     E (Thermal)             CV                S
                      KCal/Mol        Cal/Mol-Kelvin    Cal/Mol-Kelvin
 Total                  106.076             28.354             82.047
 Electronic               0.000              0.000              0.000
 Translational            0.889              2.981             40.409
 Rotational               0.889              2.981             28.180
 Vibrational            104.298             22.393             13.459
 Vibration     1          0.614              1.915              2.821
 Vibration     2          0.634              1.852              2.215
 Vibration     3          0.667              1.749              1.676
 Vibration     4          0.744              1.529              1.070
 Vibration     5          0.756              1.497              1.009
 Vibration     6          0.783              1.425              0.889
 Vibration     7          0.900              1.152              0.555
 Vibration     8          0.980              0.991              0.417

 Optimization completed.
    -- Stationary point found.
 Normal termination of Gaussian 09 at Mon Jan 27 12:07:11 2020.
