 Gaussian 09, Revision D.01,
 Gaussian 09:  ES64L-G09RevD.01 24-Apr-2013

 -----------------------------
 # b3lyp 6-31G(2df,p) opt Freq
 -----------------------------

 -----
 titel
 -----
 Symbolic Z-matrix:
 Charge =  0 Multiplicity = 1

 SCF Done:  E(RB3LYP) =  -423.200253622     A.U. after   13 cycles
 Optimization completed.
    -- Stationary point found.
 Normal termination of Gaussian 09 at Mon Jan 27 18:39:35 2020.

 ----------------------------------------------------------------------
 #N Geom=AllCheck Guess=TCheck SCRF=Check GenChk RB3LYP/6-31G(2df,p) Fr
 eq
 ----------------------------------------------------------------------

 Structure from the checkpoint file:  "/scratch/puck/g09_17959301-da82-48ad-9e47-c9b45ace6a60/Gau-18766.chk"
 -----
 titel
 -----
 Charge =  0 Multiplicity = 1

                         Standard orientation:
 ---------------------------------------------------------------------
 Center     Atomic      Atomic             Coordinates (Angstroms)
 Number     Number       Type             X           Y           Z
 ---------------------------------------------------------------------
      1          8           0        2.312952    0.274086    0.209699
      2          6           0        0.916696    0.124715    0.053853
      3          6           0        0.519029   -0.894004   -1.056586
      4          8           0       -0.670384   -1.551427   -0.616301
      5          6           0       -1.141569   -0.826315    0.538293
      6          6           0        0.158110   -0.462662    1.260349
      7          6           0       -1.859962    0.442185    0.113029
      8          6           0       -1.155280    1.512635   -0.254824
      9          6           0        0.353772    1.521752   -0.247354
     10          1           0        2.682466   -0.584233    0.444451
     11          1           0        0.355069   -0.401866   -2.023631
     12          1           0        1.309255   -1.645175   -1.187801
     13          1           0       -1.796982   -1.503153    1.089358
     14          1           0        0.034101    0.249355    2.078771
     15          1           0        0.654990   -1.365380    1.633531
     16          1           0       -2.944763    0.440002    0.075339
     17          1           0       -1.654558    2.419782   -0.585838
     18          1           0        0.739919    1.870556   -1.213910
     19          1           0        0.735183    2.229011    0.501984
 ---------------------------------------------------------------------

 SCF Done:  E(RB3LYP) =  -423.200253622     A.U. after    1 cycles

 The electronic state is 1-A.
 Alpha  occ. eigenvalues --  -19.14160 -19.13163 -10.24098 -10.23300 -10.22068
 Alpha  occ. eigenvalues --  -10.18815 -10.18660 -10.18109 -10.17925  -1.03635
 Alpha  occ. eigenvalues --   -1.01859  -0.82572  -0.75326  -0.74150  -0.67386
 Alpha  occ. eigenvalues --   -0.61623  -0.57496  -0.53438  -0.52593  -0.48007
 Alpha  occ. eigenvalues --   -0.45744  -0.44408  -0.43060  -0.41572  -0.40985
 Alpha  occ. eigenvalues --   -0.39360  -0.36988  -0.36702  -0.33869  -0.33067
 Alpha  occ. eigenvalues --   -0.30929  -0.27254  -0.25044  -0.23926
 Alpha virt. eigenvalues --    0.00942   0.07279   0.09276   0.11919   0.12281
 Alpha virt. eigenvalues --    0.14030   0.14954   0.15676   0.16020   0.17822
 Alpha virt. eigenvalues --    0.18643   0.20203   0.20957   0.22080   0.23067

 Mulliken charges:
               1
     1  O   -0.498343
     2  C    0.356256
     3  C   -0.112289
     4  O   -0.268803
     5  C    0.050241
     6  C   -0.279675
     7  C   -0.062801
     8  C   -0.062665
     9  C   -0.274009
    10  H    0.275264
    11  H    0.100478
    12  H    0.089313
    13  H    0.076491
    14  H    0.107216
    15  H    0.089214
    16  H    0.091309
    17  H    0.093749
    18  H    0.113147
    19  H    0.115907
 Sum of Mulliken charges =   0.00000

 Dipole moment (field-independent basis, Debye):
    X=              0.0896    Y=              0.1833    Z=              0.8532  Tot=              0.8772
 Quadrupole moment (field-independent basis, Debye-Ang):
   XX=            -52.6945   YY=            -53.6093   ZZ=            -52.7710
   XY=             -5.3030   XZ=             -0.9088   YZ=             -3.0130

  Exact polarizability:  80.769  -0.041  78.408  -2.725  -4.988  63.996
 Approx polarizability: 116.185   8.584 121.917  -5.411  -7.730  96.799

                      1                      2                      3
                      A                      A                      A
 Frequencies --    147.9698               270.9491               291.7989
 Red. masses --      2.5922                 1.7130                 3.1253
 Frc consts  --      0.0334                 0.0741                 0.1568
 IR Inten    --      2.7376                18.2932                 8.2419

                      4                      5                      6
                      A                      A                      A
 Frequencies --    310.0921               347.9413               425.8920
 Red. masses --      1.4833                 3.5972                 2.8268
 Frc consts  --      0.0840                 0.2566                 0.3021
 IR Inten    --     64.3049                 6.3570                 9.2888

                      7                      8                      9
                      A                      A                      A
 Frequencies --    454.2558               480.2787               493.7896
 Red. masses --      2.3695                 4.4482                 2.1787
 Frc consts  --      0.2881                 0.6045                 0.3130
 IR Inten    --      6.4344                 0.9969                 3.2697

                     10                     11                     12
                      A                      A                      A
 Frequencies --    591.8116               652.4423               727.6478
 Red. masses --      4.9640                 4.1414                 1.6222
 Frc consts  --      1.0244                 1.0387                 0.5061
 IR Inten    --      2.3098                 2.1001                16.3852

                     13                     14                     15
                      A                      A                      A
 Frequencies --    779.0299               867.5318               872.8816
 Red. masses --      3.4708                 3.3685                 3.3251
 Frc consts  --      1.2410                 1.4937                 1.4927
 IR Inten    --      4.8112                 2.5750                 9.3375

                     16                     17                     18
                      A                      A                      A
 Frequencies --    921.6011               928.8471               945.9185
 Red. masses --      2.8745                 2.1404                 1.8194
 Frc consts  --      1.4385                 1.0880                 0.9591
 IR Inten    --     21.4725                12.3235                12.2914

                     19                     20                     21
                      A                      A                      A
 Frequencies --    973.2937               993.9414               994.5776
 Red. masses --      1.9705                 1.3331                 1.8304
 Frc consts  --      1.0998                 0.7759                 1.0668
 IR Inten    --      8.3906                 6.7554                 5.5685

                     22                     23                     24
                      A                      A                      A
 Frequencies --   1015.9990              1056.1545              1099.7782
 Red. masses --      2.0301                 5.1623                 1.7377
 Frc consts  --      1.2347                 3.3927                 1.2383
 IR Inten    --     17.3389                65.1066                 5.7108

                     25                     26                     27
                      A                      A                      A
 Frequencies --   1115.9775              1156.4754              1170.3429
 Red. masses --      1.8386                 1.2267                 1.4899
 Frc consts  --      1.3491                 0.9666                 1.2024
 IR Inten    --     52.9314                36.8490                18.6893

                     28                     29                     30
                      A                      A                      A
 Frequencies --   1187.8315              1208.0012              1258.6575
 Red. masses --      1.9380                 1.1752                 1.5496
 Frc consts  --      1.6110                 1.0104                 1.4464
 IR Inten    --      4.4753                27.1651                 3.2888

                     31                     32                     33
                      A                      A                      A
 Frequencies --   1280.2601              1311.2516              1335.2228
 Red. masses --      1.7784                 1.3346                 1.4156
 Frc consts  --      1.7174                 1.3520                 1.4870
 IR Inten    --     17.8216                 3.4049                18.6734

                     34                     35                     36
                      A                      A                      A
 Frequencies --   1359.4336              1385.4085              1391.3414
 Red. masses --      1.4216                 1.5057                 1.8508
 Frc consts  --      1.5479                 1.7027                 2.1110
 IR Inten    --      6.8762                12.8638                 6.4867

                     37                     38                     39
                      A                      A                      A
 Frequencies --   1415.2180              1474.0147              1489.5037
 Red. masses --      1.6545                 1.0961                 1.1126
 Frc consts  --      1.9523                 1.4031                 1.4543
 IR Inten    --      9.6561                 4.2465                 2.6522

                     40                     41                     42
                      A                      A                      A
 Frequencies --   1520.5585              1705.8429              3006.2216
 Red. masses --      1.0931                 6.3891                 1.0570
 Frc consts  --      1.4891                10.9539                 5.6282
 IR Inten    --      0.0221                 5.1222                58.0807

                     43                     44                     45
                      A                      A                      A
 Frequencies --   3014.8197              3040.8275              3042.7856
 Red. masses --      1.0604                 1.0910                 1.0782
 Frc consts  --      5.6789                 5.9435                 5.8816
 IR Inten    --     29.0209                 4.2691                34.8836

                     46                     47                     48
                      A                      A                      A
 Frequencies --   3047.8693              3097.1123              3116.6206
 Red. masses --      1.1027                 1.0883                 1.1010
 Frc consts  --      6.0356                 6.1504                 6.3012
 IR Inten    --     48.3000                37.2826                18.3664

                     49                     50                     51
                      A                      A                      A
 Frequencies --   3154.8013              3183.7654              3802.0515
 Red. masses --      1.0853                 1.0976                 1.0658
 Frc consts  --      6.3641                 6.5549                 9.0778
 IR Inten    --     10.6211                27.0256                12.8076

 - Thermochemistry -
 -------------------
 Temperature   298.150 Kelvin.  Pressure   1.00000 Atm.
 Atom     1 has atomic number  8 and mass  15.99491

 Molecular mass:   126.06808 amu.
 Principal axes and moments of inertia in atomic units:
                           1         2         3
     Eigenvalues --   714.51200 953.708911237.30262
           X            0.99783  -0.06502  -0.01015
           Y            0.06455   0.99706  -0.04134
           Z            0.01281   0.04060   0.99909
 This molecule is an asymmetric top.
 Rotational symmetry number  1.
 Warning -- assumption of classical behavior for rotation
           may cause significant error
 Rotational temperatures (Kelvin)      0.12122     0.09082     0.07000
 Rotational constants (GHZ):           2.52584     1.89234     1.45861
 Zero-point vibrational energy     424175.7 (Joules/Mol)
                                  101.38043 (Kcal/Mol)
 Warning -- explicit consideration of  10 degrees of freedom as
           vibrations may cause significant error
 Vibrational temperatures:    212.90   389.83   419.83   446.15   500.61
          (Kelvin)            612.76   653.57   691.01   710.45   851.48
                              938.72  1046.92  1120.85  1248.18  1255.88
                             1325.98  1336.40  1360.96  1400.35  1430.06
                             1430.97  1461.79  1519.57  1582.33  1605.64
                             1663.91  1683.86  1709.02  1738.04  1810.93
                             1842.01  1886.60  1921.09  1955.92  1993.29
                             2001.83  2036.18  2120.78  2143.06  2187.74
                             2454.32  4325.28  4337.65  4375.07  4377.88
                             4385.20  4456.05  4484.12  4539.05  4580.72
                             5470.30

 Zero-point correction=                           0.161560 (Hartree/Particle)
 Thermal correction to Energy=                    0.168857
 Thermal correction to Enthalpy=                  0.169801
 Thermal correction to Gibbs Free Energy=         0.130383
 Sum of electronic and zero-point Energies=           -423.038694
 Sum of electronic and thermal Energies=              -423.031397
 Sum of electronic and thermal Enthalpies=            -423.030453
 Sum of electronic and thermal Free Energies=         -423.069871

                     E (Thermal)             CV                S
                      KCal/Mol        Cal/Mol-Kelvin    Cal/Mol-Kelvin
 Total                  105.959             30.316             82.962
 Electronic               0.000              0.000              0.000
 Translational            0.889              2.981             40.409
 Rotational               0.889              2.981             28.224
 Vibrational            104.182             24.355             14.330
 Vibration     1          0.617              1.905              2.698
 Vibration     2          0.675              1.727              1.590
 Vibration     3          0.687              1.689              1.464
 Vibration     4          0.699              1.654              1.362
 Vibration     5          0.726              1.579              1.175
 Vibration     6          0.788              1.414              0.872
 Vibration     7          0.813              1.351              0.783
 Vibration     8          0.837              1.294              0.709
 Vibration     9          0.849              1.264              0.674
 Vibration    10          0.949              1.049              0.464

 Optimization completed.
    -- Stationary point found.
 Normal termination of Gaussian 09 at Mon Jan 27 20:28:43 2020.
