 Gaussian 09, Revision D.01,
 Gaussian 09:  ES64L-G09RevD.01 24-Apr-2013

 -----------------------------
 # b3lyp 6-31G(2df,p) opt Freq
 -----------------------------

 -----
 titel
 -----
 Symbolic Z-matrix:
 Charge =  0 Multiplicity = 1

 SCF Done:  E(RB3LYP) =  -423.157636404     A.U. after   13 cycles
 Optimization completed.
    -- Stationary point found.
 Normal termination of Gaussian 09 at Mon Jan 27 11:29:42 2020.

 ----------------------------------------------------------------------
 #N Geom=AllCheck Guess=TCheck SCRF=Check GenChk RB3LYP/6-31G(2df,p) Fr
 eq
 ----------------------------------------------------------------------

 Structure from the checkpoint file:  "/scratch/puck/g09_277abaf0-818b-4af2-9e3e-fc214d1d86df/Gau-60842.chk"
 -----
 titel
 -----
 Charge =  0 Multiplicity = 1

                         Standard orientation:
 ---------------------------------------------------------------------
 Center     Atomic      Atomic             Coordinates (Angstroms)
 Number     Number       Type             X           Y           Z
 ---------------------------------------------------------------------
      1          6           0        2.021156   -0.671584    0.550916
      2          6           0        1.529594    0.021462   -0.693587
      3          6           0        0.853996    1.372262   -0.576120
      4          8           0        0.052414    1.487500    0.593258
      5          6           0       -0.936914    0.502149    0.755453
      6          6           0       -2.018322    0.308395   -0.333684
      7          8           0       -1.640081   -1.069447   -0.519739
      8          6           0       -0.563452   -0.975135    0.450258
      9          6           0        0.791885   -1.183373   -0.167190
     10          1           0        2.927498   -1.263284    0.490252
     11          1           0        1.878381   -0.157775    1.495687
     12          1           0        2.109483   -0.104007   -1.603241
     13          1           0        1.593926    2.174980   -0.492197
     14          1           0        0.255536    1.569648   -1.478928
     15          1           0       -1.342556    0.666612    1.754865
     16          1           0       -3.054878    0.410740    0.009226
     17          1           0       -1.886969    0.907795   -1.242932
     18          1           0       -0.734112   -1.677088    1.276586
     19          1           0        0.887371   -2.117100   -0.713751
 ---------------------------------------------------------------------

 SCF Done:  E(RB3LYP) =  -423.157636404     A.U. after    1 cycles

 The electronic state is 1-A.
 Alpha  occ. eigenvalues --  -19.14892 -19.12951 -10.23760 -10.23295 -10.23146
 Alpha  occ. eigenvalues --  -10.22579 -10.19359 -10.19191 -10.18659  -1.05155
 Alpha  occ. eigenvalues --   -1.02270  -0.86425  -0.75193  -0.70365  -0.68107
 Alpha  occ. eigenvalues --   -0.60703  -0.59197  -0.52670  -0.51107  -0.50603
 Alpha  occ. eigenvalues --   -0.49162  -0.45082  -0.44007  -0.42984  -0.40019
 Alpha  occ. eigenvalues --   -0.39135  -0.38366  -0.35913  -0.35062  -0.30287
 Alpha  occ. eigenvalues --   -0.28860  -0.27359  -0.25257  -0.24705
 Alpha virt. eigenvalues --    0.07386   0.08866   0.09871   0.11021   0.12606
 Alpha virt. eigenvalues --    0.13602   0.14774   0.15059   0.16217   0.18099
 Alpha virt. eigenvalues --    0.18313   0.18813   0.19748   0.20407   0.22251

 Mulliken charges:
               1
     1  C   -0.304703
     2  C   -0.029756
     3  C   -0.111840
     4  O   -0.263713
     5  C    0.061174
     6  C   -0.110474
     7  O   -0.296617
     8  C    0.087160
     9  C   -0.044083
    10  H    0.112197
    11  H    0.125248
    12  H    0.087682
    13  H    0.113452
    14  H    0.098370
    15  H    0.096423
    16  H    0.102927
    17  H    0.105056
    18  H    0.076619
    19  H    0.094877
 Sum of Mulliken charges =   0.00000

 Dipole moment (field-independent basis, Debye):
    X=              0.8404    Y=              0.3218    Z=              0.0268  Tot=              0.9003
 Quadrupole moment (field-independent basis, Debye-Ang):
   XX=            -51.5802   YY=            -55.4930   ZZ=            -52.1469
   XY=             -3.3593   XZ=             -3.0237   YZ=             -3.0841

  Exact polarizability:  83.269  -2.178  70.848  -0.677  -4.321  66.673
 Approx polarizability: 110.236   0.790 105.476   1.209  -3.625 103.564

                      1                      2                      3
                      A                      A                      A
 Frequencies --     80.3910               203.9604               251.0999
 Red. masses --      3.0719                 3.6290                 3.1229
 Frc consts  --      0.0117                 0.0889                 0.1160
 IR Inten    --      3.6190                 2.4334                 1.6172

                      4                      5                      6
                      A                      A                      A
 Frequencies --    340.2677               382.7475               425.1721
 Red. masses --      2.3901                 3.6353                 3.2370
 Frc consts  --      0.1630                 0.3138                 0.3448
 IR Inten    --      0.8324                 1.8587                12.3843

                      7                      8                      9
                      A                      A                      A
 Frequencies --    523.3156               560.4356               680.9095
 Red. masses --      4.2105                 3.7242                 3.1595
 Frc consts  --      0.6794                 0.6892                 0.8631
 IR Inten    --      3.3541                 0.5341                 5.8958

                     10                     11                     12
                      A                      A                      A
 Frequencies --    763.2419               790.2983               796.8929
 Red. masses --      2.3570                 3.3373                 1.9144
 Frc consts  --      0.8090                 1.2281                 0.7163
 IR Inten    --      1.0341                 1.0904                 0.1163

                     13                     14                     15
                      A                      A                      A
 Frequencies --    846.2963               883.0936               900.2639
 Red. masses --      1.5159                 2.1347                 2.3228
 Frc consts  --      0.6397                 0.9809                 1.1092
 IR Inten    --     11.5395                14.7290                 2.6769

                     16                     17                     18
                      A                      A                      A
 Frequencies --    953.9511               993.5544              1015.0239
 Red. masses --      2.3737                 3.0563                 2.8339
 Frc consts  --      1.2727                 1.7776                 1.7202
 IR Inten    --     14.7350                 7.8293                12.0798

                     19                     20                     21
                      A                      A                      A
 Frequencies --   1023.6088              1039.3848              1068.4715
 Red. masses --      8.5561                 2.6394                 1.3808
 Frc consts  --      5.2820                 1.6800                 0.9288
 IR Inten    --    110.8884                16.2288                 5.3561

                     22                     23                     24
                      A                      A                      A
 Frequencies --   1084.8340              1096.7011              1115.0594
 Red. masses --      2.5126                 1.4622                 1.5675
 Frc consts  --      1.7422                 1.0362                 1.1483
 IR Inten    --     16.2190                11.4713                 3.9444

                     25                     26                     27
                      A                      A                      A
 Frequencies --   1120.6318              1137.3262              1153.6072
 Red. masses --      1.7699                 1.3663                 1.2011
 Frc consts  --      1.3096                 1.0413                 0.9418
 IR Inten    --      4.1812                 4.4565                 4.3503

                     28                     29                     30
                      A                      A                      A
 Frequencies --   1194.2852              1210.7576              1256.4568
 Red. masses --      2.1604                 1.8375                 1.5007
 Frc consts  --      1.8155                 1.5871                 1.3959
 IR Inten    --     45.2674                42.3460                 4.0434

                     31                     32                     33
                      A                      A                      A
 Frequencies --   1284.8733              1294.9197              1343.0166
 Red. masses --      1.2970                 1.1709                 1.3267
 Frc consts  --      1.2616                 1.1568                 1.4099
 IR Inten    --      5.9092                 8.5646                 0.1102

                     34                     35                     36
                      A                      A                      A
 Frequencies --   1357.6433              1371.3056              1386.6992
 Red. masses --      1.4847                 1.6252                 1.7359
 Frc consts  --      1.6123                 1.8006                 1.9667
 IR Inten    --      6.5099                11.9660                 4.4488

                     37                     38                     39
                      A                      A                      A
 Frequencies --   1421.5919              1422.7154              1495.3059
 Red. masses --      1.5429                 1.3547                 1.4347
 Frc consts  --      1.8371                 1.6156                 1.8901
 IR Inten    --      8.2059                 2.9660                 3.0068

                     40                     41                     42
                      A                      A                      A
 Frequencies --   1503.7596              1526.5273              2988.1880
 Red. masses --      1.1154                 1.0950                 1.0685
 Frc consts  --      1.4860                 1.5034                 5.6215
 IR Inten    --      1.9282                 1.6958                38.6698

                     43                     44                     45
                      A                      A                      A
 Frequencies --   3015.1504              3021.8907              3058.2799
 Red. masses --      1.0719                 1.0689                 1.1093
 Frc consts  --      5.7413                 5.7509                 6.1129
 IR Inten    --    103.2996                27.3670                35.9138

                     46                     47                     48
                      A                      A                      A
 Frequencies --   3069.0367              3100.7447              3135.5860
 Red. masses --      1.0934                 1.0891                 1.0537
 Frc consts  --      6.0678                 6.1696                 6.1041
 IR Inten    --     31.6362                42.7682                12.6587

                     49                     50                     51
                      A                      A                      A
 Frequencies --   3146.6880              3156.2808              3222.6743
 Red. masses --      1.0873                 1.0911                 1.1165
 Frc consts  --      6.3432                 6.4043                 6.8316
 IR Inten    --     13.2128                14.9065                 8.1402

 - Thermochemistry -
 -------------------
 Temperature   298.150 Kelvin.  Pressure   1.00000 Atm.
 Atom     1 has atomic number  6 and mass  12.00000

 Molecular mass:   126.06808 amu.
 Principal axes and moments of inertia in atomic units:
                           1         2         3
     Eigenvalues --   643.437281013.086871310.98315
           X            0.99884  -0.04737  -0.00875
           Y            0.04682   0.99740  -0.05484
           Z            0.01133   0.05437   0.99846
 This molecule is an asymmetric top.
 Rotational symmetry number  1.
 Warning -- assumption of classical behavior for rotation
           may cause significant error
 Rotational temperatures (Kelvin)      0.13461     0.08549     0.06607
 Rotational constants (GHZ):           2.80484     1.78143     1.37663
 Zero-point vibrational energy     425959.8 (Joules/Mol)
                                  101.80683 (Kcal/Mol)
 Warning -- explicit consideration of   8 degrees of freedom as
           vibrations may cause significant error
 Vibrational temperatures:    115.66   293.45   361.28   489.57   550.69
          (Kelvin)            611.73   752.93   806.34   979.68  1098.13
                             1137.06  1146.55  1217.63  1270.57  1295.28
                             1372.52  1429.50  1460.39  1472.74  1495.44
                             1537.29  1560.83  1577.91  1604.32  1612.34
                             1636.36  1659.78  1718.31  1742.01  1807.76
                             1848.64  1863.10  1932.30  1953.34  1973.00
                             1995.15  2045.35  2046.97  2151.41  2163.57
                             2196.33  4299.33  4338.12  4347.82  4400.18
                             4415.65  4461.27  4511.40  4527.38  4541.18
                             4636.70

 Zero-point correction=                           0.162240 (Hartree/Particle)
 Thermal correction to Energy=                    0.169290
 Thermal correction to Enthalpy=                  0.170234
 Thermal correction to Gibbs Free Energy=         0.130681
 Sum of electronic and zero-point Energies=           -422.995397
 Sum of electronic and thermal Energies=              -422.988347
 Sum of electronic and thermal Enthalpies=            -422.987402
 Sum of electronic and thermal Free Energies=         -423.026955

                     E (Thermal)             CV                S
                      KCal/Mol        Cal/Mol-Kelvin    Cal/Mol-Kelvin
 Total                  106.231             28.397             83.245
 Electronic               0.000              0.000              0.000
 Translational            0.889              2.981             40.409
 Rotational               0.889              2.981             28.237
 Vibrational            104.453             22.436             14.599
 Vibration     1          0.600              1.962              3.881
 Vibration     2          0.640              1.834              2.097
 Vibration     3          0.663              1.761              1.723
 Vibration     4          0.720              1.595              1.211
 Vibration     5          0.752              1.507              1.028
 Vibration     6          0.787              1.415              0.875
 Vibration     7          0.878              1.198              0.602
 Vibration     8          0.916              1.117              0.523

 Optimization completed.
    -- Stationary point found.
 Normal termination of Gaussian 09 at Mon Jan 27 13:53:07 2020.
