 Gaussian 09, Revision D.01,
 Gaussian 09:  ES64L-G09RevD.01 24-Apr-2013

 -----------------------------
 # b3lyp 6-31G(2df,p) opt Freq
 -----------------------------

 -----
 titel
 -----
 Symbolic Z-matrix:
 Charge =  0 Multiplicity = 1

 SCF Done:  E(RB3LYP) =  -423.156332275     A.U. after   14 cycles
 SCF Done:  E(RB3LYP) =  -423.156332291     A.U. after    6 cycles
 Optimization completed.
    -- Stationary point found.
 Normal termination of Gaussian 09 at Mon Jan 27 16:06:27 2020.

 ----------------------------------------------------------------------
 #N Geom=AllCheck Guess=TCheck SCRF=Check GenChk RB3LYP/6-31G(2df,p) Fr
 eq
 ----------------------------------------------------------------------

 Structure from the checkpoint file:  "/scratch/puck/g09_95d52e91-36b4-40ae-a11f-cc72b458dc34/Gau-10314.chk"
 -----
 titel
 -----
 Charge =  0 Multiplicity = 1

                         Standard orientation:
 ---------------------------------------------------------------------
 Center     Atomic      Atomic             Coordinates (Angstroms)
 Number     Number       Type             X           Y           Z
 ---------------------------------------------------------------------
      1          6           0       -2.263858   -1.430907    0.131997
      2          6           0       -1.335325   -0.309754   -0.374516
      3          6           0       -1.914131    1.007123   -0.120360
      4          6           0       -2.393154    2.083592    0.120827
      5          6           0        0.080564   -0.430323    0.256008
      6          8           0        0.619629   -1.729875    0.057405
      7          6           0        1.051627    0.643064   -0.250921
      8          6           0        2.412961    0.496977    0.392589
      9          8           0        3.452209    0.429883   -0.210074
     10          1           0       -1.802031   -2.403296   -0.047555
     11          1           0       -2.441639   -1.323851    1.206306
     12          1           0       -3.229472   -1.389085   -0.377388
     13          1           0       -1.211200   -0.427941   -1.461848
     14          1           0       -2.820365    3.035445    0.319499
     15          1           0       -0.027718   -0.335204    1.343701
     16          1           0        0.914827   -1.799013   -0.858063
     17          1           0        1.169308    0.589037   -1.339916
     18          1           0        0.651354    1.634354   -0.003563
     19          1           0        2.390134    0.460852    1.506441
 ---------------------------------------------------------------------

 SCF Done:  E(RB3LYP) =  -423.156332291     A.U. after    1 cycles

 The electronic state is 1-A.
 Alpha  occ. eigenvalues --  -19.15477 -19.14062 -10.27404 -10.25588 -10.22328
 Alpha  occ. eigenvalues --  -10.19905 -10.19005 -10.18500 -10.18144  -1.04874
 Alpha  occ. eigenvalues --   -1.03746  -0.82802  -0.77203  -0.73335  -0.66978
 Alpha  occ. eigenvalues --   -0.62652  -0.58414  -0.53712  -0.50708  -0.49274
 Alpha  occ. eigenvalues --   -0.47777  -0.46471  -0.44214  -0.42737  -0.40059
 Alpha  occ. eigenvalues --   -0.39903  -0.37546  -0.37122  -0.36688  -0.33715
 Alpha  occ. eigenvalues --   -0.30415  -0.27420  -0.26718  -0.25222
 Alpha virt. eigenvalues --   -0.02153   0.04148   0.04438   0.06925   0.09987
 Alpha virt. eigenvalues --    0.11522   0.12220   0.13325   0.14640   0.15369
 Alpha virt. eigenvalues --    0.15820   0.16498   0.17636   0.20835   0.21507

 Mulliken charges:
               1
     1  C   -0.392522
     2  C   -0.181152
     3  C    0.325680
     4  C   -0.468177
     5  C    0.120615
     6  O   -0.422702
     7  C   -0.316604
     8  C    0.168815
     9  O   -0.242014
    10  H    0.133419
    11  H    0.126701
    12  H    0.124900
    13  H    0.098935
    14  H    0.200315
    15  H    0.104617
    16  H    0.287709
    17  H    0.111670
    18  H    0.143329
    19  H    0.076466
 Sum of Mulliken charges =   0.00000

 Dipole moment (field-independent basis, Debye):
    X=             -2.4562    Y=              0.5060    Z=             -0.2607  Tot=              2.5213
 Quadrupole moment (field-independent basis, Debye-Ang):
   XX=            -65.5922   YY=            -51.2457   ZZ=            -51.0545
   XY=             -1.4294   XZ=              1.0000   YZ=              4.0554

  Exact polarizability:  89.632  -7.817  83.037  -3.305   3.614  63.280
 Approx polarizability: 117.727 -18.728 127.934 -10.742   9.108 100.558

                      1                      2                      3
                      A                      A                      A
 Frequencies --     58.5371                73.8410                86.7669
 Red. masses --      5.6536                 2.9090                 3.9747
 Frc consts  --      0.0114                 0.0093                 0.0176
 IR Inten    --      4.5781                 2.5374                 4.0953

                      4                      5                      6
                      A                      A                      A
 Frequencies --    130.7760               189.3158               212.6509
 Red. masses --      3.9838                 3.0412                 1.4417
 Frc consts  --      0.0401                 0.0642                 0.0384
 IR Inten    --      2.0201                 3.1235                 0.4781

                      7                      8                      9
                      A                      A                      A
 Frequencies --    240.1001               290.0870               311.0657
 Red. masses --      1.6867                 4.0164                 1.0869
 Frc consts  --      0.0573                 0.1991                 0.0620
 IR Inten    --      0.7964                 8.6534               102.6982

                     10                     11                     12
                      A                      A                      A
 Frequencies --    338.4244               437.7664               443.9178
 Red. masses --      4.3994                 2.4450                 4.0822
 Frc consts  --      0.2969                 0.2761                 0.4740
 IR Inten    --      0.5694                 5.1365                 5.4572

                     13                     14                     15
                      A                      A                      A
 Frequencies --    504.4992               553.4225               580.8824
 Red. masses --      3.5760                 4.8394                 3.2004
 Frc consts  --      0.5363                 0.8733                 0.6363
 IR Inten    --      4.6227                 6.2402                16.3268

                     16                     17                     18
                      A                      A                      A
 Frequencies --    635.4835               647.7646               780.3909
 Red. masses --      1.2203                 1.2329                 1.6941
 Frc consts  --      0.2904                 0.3048                 0.6079
 IR Inten    --     41.4786                45.4930                 0.8961

                     19                     20                     21
                      A                      A                      A
 Frequencies --    852.5045               910.8380               958.9476
 Red. masses --      2.3231                 2.2144                 1.8177
 Frc consts  --      0.9947                 1.0824                 0.9848
 IR Inten    --      0.3281                 3.7566                22.7592

                     22                     23                     24
                      A                      A                      A
 Frequencies --   1025.5755              1037.5708              1080.8508
 Red. masses --      2.1328                 2.6416                 2.0801
 Frc consts  --      1.3217                 1.6755                 1.4317
 IR Inten    --     29.4806                 5.9666                16.2255

                     25                     26                     27
                      A                      A                      A
 Frequencies --   1084.6319              1116.9512              1154.5623
 Red. masses --      2.5111                 2.3090                 2.3045
 Frc consts  --      1.7405                 1.6972                 1.8099
 IR Inten    --     73.5855                 8.8097                 8.1360

                     28                     29                     30
                      A                      A                      A
 Frequencies --   1187.2121              1248.7892              1283.6116
 Red. masses --      1.3136                 1.3891                 1.3874
 Frc consts  --      1.0909                 1.2764                 1.3468
 IR Inten    --     45.8419                 4.9673                18.9176

                     31                     32                     33
                      A                      A                      A
 Frequencies --   1326.3672              1350.1288              1371.1999
 Red. masses --      1.3932                 1.4172                 1.3802
 Frc consts  --      1.4441                 1.5221                 1.5290
 IR Inten    --      5.0844                11.8291                 9.9621

                     34                     35                     36
                      A                      A                      A
 Frequencies --   1403.4602              1415.5427              1430.1389
 Red. masses --      1.2174                 1.1924                 1.1956
 Frc consts  --      1.4128                 1.4078                 1.4407
 IR Inten    --      9.1955                35.1350                 8.5627

                     37                     38                     39
                      A                      A                      A
 Frequencies --   1459.3746              1492.7205              1499.3369
 Red. masses --      1.0972                 1.0448                 1.0495
 Frc consts  --      1.3767                 1.3717                 1.3901
 IR Inten    --      3.9164                 5.3084                 3.8949

                     40                     41                     42
                      A                      A                      A
 Frequencies --   1838.0524              2231.2852              2865.9108
 Red. masses --     10.1313                 5.9362                 1.0824
 Frc consts  --     20.1665                17.4129                 5.2382
 IR Inten    --    189.9637                 1.3734                99.5116

                     43                     44                     45
                      A                      A                      A
 Frequencies --   2989.7685              3030.8328              3041.6110
 Red. masses --      1.0806                 1.0592                 1.0830
 Frc consts  --      5.6913                 5.7328                 5.9033
 IR Inten    --     12.4903                 3.2658                19.8965

                     46                     47                     48
                      A                      A                      A
 Frequencies --   3051.0872              3085.3776              3122.6471
 Red. masses --      1.0359                 1.1029                 1.1015
 Frc consts  --      5.6819                 6.1860                 6.3283
 IR Inten    --     21.6309                16.7734                20.6320

                     49                     50                     51
                      A                      A                      A
 Frequencies --   3144.2689              3502.4662              3794.5704
 Red. masses --      1.1023                 1.1617                 1.0660
 Frc consts  --      6.4211                 8.3965                 9.0433
 IR Inten    --     10.9794                69.7277                23.2730

 - Thermochemistry -
 -------------------
 Temperature   298.150 Kelvin.  Pressure   1.00000 Atm.
 Atom     1 has atomic number  6 and mass  12.00000

 Molecular mass:   126.06808 amu.
 Principal axes and moments of inertia in atomic units:
                           1         2         3
     Eigenvalues --   690.627661892.425952462.34270
           X            0.99988   0.01569   0.00095
           Y           -0.01570   0.99983   0.01012
           Z           -0.00079  -0.01014   0.99995
 This molecule is an asymmetric top.
 Rotational symmetry number  1.
 Warning -- assumption of classical behavior for rotation
           may cause significant error
 Rotational temperatures (Kelvin)      0.12541     0.04577     0.03518
 Rotational constants (GHZ):           2.61319     0.95367     0.73294
 Zero-point vibrational energy     406155.4 (Joules/Mol)
                                   97.07348 (Kcal/Mol)
 Warning -- explicit consideration of  15 degrees of freedom as
           vibrations may cause significant error
 Vibrational temperatures:     84.22   106.24   124.84   188.16   272.38
          (Kelvin)            305.96   345.45   417.37   447.55   486.92
                              629.85   638.70   725.86   796.25   835.76
                              914.32   931.99  1122.81  1226.56  1310.49
                             1379.71  1475.57  1492.83  1555.10  1560.54
                             1607.04  1661.16  1708.13  1796.73  1846.83
                             1908.34  1942.53  1972.85  2019.26  2036.65
                             2057.65  2099.71  2147.69  2157.21  2644.54
                             3210.32  4123.40  4301.60  4360.69  4376.19
                             4389.83  4439.16  4492.79  4523.90  5039.26
                             5459.53

 Zero-point correction=                           0.154696 (Hartree/Particle)
 Thermal correction to Energy=                    0.165317
 Thermal correction to Enthalpy=                  0.166261
 Thermal correction to Gibbs Free Energy=         0.118424
 Sum of electronic and zero-point Energies=           -423.001636
 Sum of electronic and thermal Energies=              -422.991015
 Sum of electronic and thermal Enthalpies=            -422.990071
 Sum of electronic and thermal Free Energies=         -423.037909

                     E (Thermal)             CV                S
                      KCal/Mol        Cal/Mol-Kelvin    Cal/Mol-Kelvin
 Total                  103.738             37.710            100.682
 Electronic               0.000              0.000              0.000
 Translational            0.889              2.981             40.409
 Rotational               0.889              2.981             29.555
 Vibrational            101.960             31.748             30.719
 Vibration     1          0.596              1.974              4.506
 Vibration     2          0.599              1.966              4.048
 Vibration     3          0.601              1.958              3.732
 Vibration     4          0.612              1.923              2.935
 Vibration     5          0.633              1.855              2.235
 Vibration     6          0.644              1.822              2.021
 Vibration     7          0.657              1.779              1.802
 Vibration     8          0.686              1.692              1.473
 Vibration     9          0.700              1.653              1.357
 Vibration    10          0.719              1.599              1.220
 Vibration    11          0.798              1.388              0.834
 Vibration    12          0.803              1.374              0.814
 Vibration    13          0.860              1.240              0.647
 Vibration    14          0.909              1.132              0.537
 Vibration    15          0.938              1.073              0.484

 Optimization completed.
    -- Stationary point found.
 Normal termination of Gaussian 09 at Mon Jan 27 17:44:15 2020.
