 Gaussian 09, Revision D.01,
 Gaussian 09:  ES64L-G09RevD.01 24-Apr-2013

 -----------------------------
 # b3lyp 6-31G(2df,p) opt Freq
 -----------------------------

 -----
 titel
 -----
 Symbolic Z-matrix:
 Charge =  0 Multiplicity = 1

 SCF Done:  E(RB3LYP) =  -423.116222203     A.U. after   14 cycles
 Optimization completed.
    -- Stationary point found.
 Normal termination of Gaussian 09 at Tue Jan 28 12:07:22 2020.

 ----------------------------------------------------------------------
 #N Geom=AllCheck Guess=TCheck SCRF=Check GenChk RB3LYP/6-31G(2df,p) Fr
 eq
 ----------------------------------------------------------------------

 Structure from the checkpoint file:  "/scratch/puck/g09_1db9afe7-05a9-4e59-8192-0135f8fd4196/Gau-1155.chk"
 -----
 titel
 -----
 Charge =  0 Multiplicity = 1

                         Standard orientation:
 ---------------------------------------------------------------------
 Center     Atomic      Atomic             Coordinates (Angstroms)
 Number     Number       Type             X           Y           Z
 ---------------------------------------------------------------------
      1          6           0        4.394239    0.218325    0.188117
      2          8           0        3.027343    0.474818   -0.030506
      3          6           0        2.248547   -0.706153    0.041901
      4          6           0        0.844070   -0.405454   -0.190200
      5          6           0       -0.325311   -0.184133   -0.378928
      6          6           0       -1.712810    0.086429   -0.604744
      7          6           0       -2.390408    1.280359    0.074027
      8          6           0       -2.728332   -0.117483    0.496503
      9          8           0       -3.936101   -0.687396    0.092563
     10          1           0        4.808530   -0.472378   -0.564123
     11          1           0        4.918525    1.173888    0.116404
     12          1           0        4.577224   -0.214230    1.185244
     13          1           0        2.600188   -1.441423   -0.703608
     14          1           0        2.372691   -1.183266    1.030480
     15          1           0       -2.093328   -0.146695   -1.594798
     16          1           0       -1.784885    1.892900    0.731367
     17          1           0       -3.125450    1.810471   -0.521042
     18          1           0       -2.341389   -0.464778    1.453386
     19          1           0       -4.642009   -0.285211    0.610183
 ---------------------------------------------------------------------

 SCF Done:  E(RB3LYP) =  -423.116222203     A.U. after    1 cycles

 The electronic state is 1-A.
 Alpha  occ. eigenvalues --  -19.14823 -19.14023 -10.24760 -10.24375 -10.22413
 Alpha  occ. eigenvalues --  -10.21045 -10.19332 -10.17413 -10.16811  -1.03437
 Alpha  occ. eigenvalues --   -1.03371  -0.85950  -0.76878  -0.71096  -0.65381
 Alpha  occ. eigenvalues --   -0.61907  -0.60835  -0.53979  -0.50693  -0.48752
 Alpha  occ. eigenvalues --   -0.48414  -0.47756  -0.44666  -0.41348  -0.40536
 Alpha  occ. eigenvalues --   -0.39617  -0.38184  -0.35292  -0.32353  -0.31324
 Alpha  occ. eigenvalues --   -0.28156  -0.26105  -0.24162  -0.23873
 Alpha virt. eigenvalues --    0.03384   0.05388   0.08152   0.09912   0.11466
 Alpha virt. eigenvalues --    0.12955   0.14414   0.14830   0.15899   0.16427
 Alpha virt. eigenvalues --    0.16935   0.17561   0.19326   0.19911   0.24320

 Mulliken charges:
               1
     1  C   -0.217609
     2  O   -0.227421
     3  C   -0.204442
     4  C    0.018776
     5  C    0.141538
     6  C   -0.209448
     7  C   -0.313142
     8  C    0.110762
     9  O   -0.421510
    10  H    0.103584
    11  H    0.129603
    12  H    0.102666
    13  H    0.113500
    14  H    0.111163
    15  H    0.122182
    16  H    0.128411
    17  H    0.120448
    18  H    0.101119
    19  H    0.289818
 Sum of Mulliken charges =   0.00000

 Dipole moment (field-independent basis, Debye):
    X=             -0.2560    Y=              0.1680    Z=              1.2970  Tot=              1.3327
 Quadrupole moment (field-independent basis, Debye-Ang):
   XX=            -39.1069   YY=            -54.5223   ZZ=            -51.7642
   XY=             -7.5707   XZ=             -2.5187   YZ=             -0.0916

  Exact polarizability: 129.695  -6.793  65.322   1.629   0.179  61.198
 Approx polarizability: 164.732 -11.848  96.563   4.978   0.173  91.027

                      1                      2                      3
                      A                      A                      A
 Frequencies --     22.6528                63.4026                70.5803
 Red. masses --      3.0817                 4.3694                 2.5030
 Frc consts  --      0.0009                 0.0103                 0.0073
 IR Inten    --      1.6761                 2.0397                 6.9317

                      4                      5                      6
                      A                      A                      A
 Frequencies --    122.4056               157.5543               227.3923
 Red. masses --      3.4727                 4.9314                 1.1756
 Frc consts  --      0.0307                 0.0721                 0.0358
 IR Inten    --      0.8271                 0.2012                 3.0141

                      7                      8                      9
                      A                      A                      A
 Frequencies --    281.9416               292.9575               316.4803
 Red. masses --      1.3977                 2.9642                 2.5669
 Frc consts  --      0.0655                 0.1499                 0.1515
 IR Inten    --     69.9373                18.3708                14.6112

                     10                     11                     12
                      A                      A                      A
 Frequencies --    374.6040               403.1029               449.1172
 Red. masses --      3.7962                 3.3368                 4.1285
 Frc consts  --      0.3139                 0.3195                 0.4906
 IR Inten    --      5.4754                13.7972                 3.4485

                     13                     14                     15
                      A                      A                      A
 Frequencies --    508.3077               562.1696               762.2616
 Red. masses --      4.6904                 4.2434                 2.3483
 Frc consts  --      0.7140                 0.7901                 0.8039
 IR Inten    --      2.3479                 2.1747                 1.2760

                     16                     17                     18
                      A                      A                      A
 Frequencies --    814.8178               894.7486               928.3459
 Red. masses --      2.3213                 3.8919                 1.7671
 Frc consts  --      0.9080                 1.8357                 0.8973
 IR Inten    --      4.3898                43.8824                27.8623

                     19                     20                     21
                      A                      A                      A
 Frequencies --    962.6875               982.1451              1026.2105
 Red. masses --      2.8530                 3.5062                 1.6134
 Frc consts  --      1.5578                 1.9927                 1.0011
 IR Inten    --     19.5112                16.9215                 2.3409

                     22                     23                     24
                      A                      A                      A
 Frequencies --   1054.3725              1088.5840              1105.7851
 Red. masses --      1.3302                 1.1788                 1.4966
 Frc consts  --      0.8713                 0.8230                 1.0782
 IR Inten    --      5.9148                 1.1360                17.9809

                     25                     26                     27
                      A                      A                      A
 Frequencies --   1141.8628              1167.4810              1182.5524
 Red. masses --      5.6519                 2.5483                 1.2793
 Frc consts  --      4.3418                 2.0465                 1.0541
 IR Inten    --    206.1342                 0.3855                 3.0477

                     28                     29                     30
                      A                      A                      A
 Frequencies --   1208.0622              1219.8346              1222.5295
 Red. masses --      2.7420                 1.5477                 1.5884
 Frc consts  --      2.3578                 1.3569                 1.3987
 IR Inten    --     88.1353                25.1628                15.7790

                     31                     32                     33
                      A                      A                      A
 Frequencies --   1256.3530              1293.2135              1352.6288
 Red. masses --      1.0806                 1.1904                 1.5116
 Frc consts  --      1.0050                 1.1730                 1.6294
 IR Inten    --      4.0677                53.4814                 4.8690

                     34                     35                     36
                      A                      A                      A
 Frequencies --   1410.2691              1427.9223              1476.5709
 Red. masses --      1.3535                 1.3831                 1.1800
 Frc consts  --      1.5860                 1.6615                 1.5158
 IR Inten    --    123.5573                 4.8999                 0.8918

                     37                     38                     39
                      A                      A                      A
 Frequencies --   1481.1842              1483.5193              1494.7269
 Red. masses --      1.6306                 1.0476                 1.0742
 Frc consts  --      2.1077                 1.3584                 1.4140
 IR Inten    --     12.2543                 5.2349                 3.5156

                     40                     41                     42
                      A                      A                      A
 Frequencies --   1516.2587              2365.9410              2940.3802
 Red. masses --      1.0759                11.8727                 1.0532
 Frc consts  --      1.4574                39.1567                 5.3652
 IR Inten    --      3.4527                39.9956                30.9241

                     43                     44                     45
                      A                      A                      A
 Frequencies --   2956.9015              2965.8200              3007.0565
 Red. masses --      1.1024                 1.0385                 1.1029
 Frc consts  --      5.6789                 5.3821                 5.8759
 IR Inten    --     47.5165                84.9206                59.9991

                     46                     47                     48
                      A                      A                      A
 Frequencies --   3115.7903              3118.8405              3141.5996
 Red. masses --      1.0879                 1.0952                 1.0543
 Frc consts  --      6.2226                 6.2768                 6.1306
 IR Inten    --     22.1469                26.8251                 6.3298

                     49                     50                     51
                      A                      A                      A
 Frequencies --   3155.8849              3238.6527              3800.6177
 Red. masses --      1.0865                 1.1181                 1.0661
 Frc consts  --      6.3758                 6.9097                 9.0733
 IR Inten    --      6.3769                 4.9104                23.5154

 - Thermochemistry -
 -------------------
 Temperature   298.150 Kelvin.  Pressure   1.00000 Atm.
 Atom     1 has atomic number  6 and mass  12.00000

 Molecular mass:   126.06808 amu.
 Principal axes and moments of inertia in atomic units:
                           1         2         3
     Eigenvalues --   255.889633695.807763813.57297
           X            0.99994  -0.01060   0.00146
           Y            0.01061   0.99992  -0.00710
           Z           -0.00139   0.00711   0.99997
 This molecule is an asymmetric top.
 Rotational symmetry number  1.
 Rotational temperatures (Kelvin)      0.33848     0.02344     0.02271
 Rotational constants (GHZ):           7.05281     0.48832     0.47324
 Zero-point vibrational energy     410409.3 (Joules/Mol)
                                   98.09018 (Kcal/Mol)
 Warning -- explicit consideration of  14 degrees of freedom as
           vibrations may cause significant error
 Vibrational temperatures:     32.59    91.22   101.55   176.11   226.69
          (Kelvin)            327.17   405.65   421.50   455.34   538.97
                              579.97   646.18   731.34   808.84  1096.72
                             1172.34  1287.34  1335.68  1385.09  1413.09
                             1476.49  1517.00  1566.23  1590.98  1642.88
                             1679.74  1701.43  1738.13  1755.07  1758.95
                             1807.61  1860.64  1946.13  2029.06  2054.46
                             2124.45  2131.09  2134.45  2150.58  2181.56
                             3404.06  4230.55  4254.32  4267.15  4326.48
                             4482.92  4487.31  4520.06  4540.61  4659.69
                             5468.23

 Zero-point correction=                           0.156317 (Hartree/Particle)
 Thermal correction to Energy=                    0.166704
 Thermal correction to Enthalpy=                  0.167649
 Thermal correction to Gibbs Free Energy=         0.118995
 Sum of electronic and zero-point Energies=           -422.959906
 Sum of electronic and thermal Energies=              -422.949518
 Sum of electronic and thermal Enthalpies=            -422.948574
 Sum of electronic and thermal Free Energies=         -422.997227

                     E (Thermal)             CV                S
                      KCal/Mol        Cal/Mol-Kelvin    Cal/Mol-Kelvin
 Total                  104.609             35.915            102.400
 Electronic               0.000              0.000              0.000
 Translational            0.889              2.981             40.409
 Rotational               0.889              2.981             29.668
 Vibrational            102.831             29.953             32.323
 Vibration     1          0.593              1.985              6.387
 Vibration     2          0.597              1.972              4.348
 Vibration     3          0.598              1.968              4.137
 Vibration     4          0.610              1.930              3.062
 Vibration     5          0.621              1.894              2.579
 Vibration     6          0.651              1.799              1.899
 Vibration     7          0.681              1.707              1.522
 Vibration     8          0.688              1.687              1.457
 Vibration     9          0.703              1.642              1.328
 Vibration    10          0.746              1.524              1.061
 Vibration    11          0.769              1.463              0.951
 Vibration    12          0.808              1.363              0.798
 Vibration    13          0.863              1.232              0.638
 Vibration    14          0.918              1.113              0.520

 Normal termination of Gaussian 09 at Tue Jan 28 12:42:12 2020.
