 Gaussian 09, Revision D.01,
 Gaussian 09:  ES64L-G09RevD.01 24-Apr-2013

 -----------------------------
 # b3lyp 6-31G(2df,p) opt Freq
 -----------------------------

 -----
 titel
 -----
 Symbolic Z-matrix:
 Charge =  0 Multiplicity = 1

 SCF Done:  E(RB3LYP) =  -423.143835943     A.U. after   13 cycles
 Optimization completed.
    -- Stationary point found.
 Normal termination of Gaussian 09 at Mon Jan 27 16:20:43 2020.

 ----------------------------------------------------------------------
 #N Geom=AllCheck Guess=TCheck SCRF=Check GenChk RB3LYP/6-31G(2df,p) Fr
 eq
 ----------------------------------------------------------------------

 Structure from the checkpoint file:  "/scratch/puck/g09_ff041e86-3c46-43bc-8eb9-f4129b878d72/Gau-39446.chk"
 -----
 titel
 -----
 Charge =  0 Multiplicity = 1

                         Standard orientation:
 ---------------------------------------------------------------------
 Center     Atomic      Atomic             Coordinates (Angstroms)
 Number     Number       Type             X           Y           Z
 ---------------------------------------------------------------------
      1          6           0        1.750996    1.240669   -0.394770
      2          6           0        0.947833    0.007537    0.003846
      3          6           0        1.836299   -1.114344    0.548437
      4          8           0        0.248464   -0.471017   -1.180857
      5          6           0       -1.058610   -0.811413   -0.802732
      6          6           0       -1.912570    0.272235   -0.163115
      7          8           0       -1.066163    1.322801    0.301602
      8          6           0       -0.217700    0.323206    0.952860
      9          6           0       -1.256600   -0.789986    0.686386
     10          1           0        2.454657    0.986106   -1.192236
     11          1           0        1.079021    2.022678   -0.750361
     12          1           0        2.323963    1.620857    0.457373
     13          1           0        2.558350   -1.415254   -0.215598
     14          1           0        2.389598   -0.786171    1.434613
     15          1           0        1.240896   -1.992265    0.816077
     16          1           0       -1.522312   -1.564861   -1.428542
     17          1           0       -2.946345    0.505961   -0.390253
     18          1           0        0.046444    0.606970    1.972166
     19          1           0       -1.620561   -1.565705    1.345337
 ---------------------------------------------------------------------

 SCF Done:  E(RB3LYP) =  -423.143835943     A.U. after    1 cycles

 The electronic state is 1-A.
 Alpha  occ. eigenvalues --  -19.13976 -19.13744 -10.24262 -10.23956 -10.23881
 Alpha  occ. eigenvalues --  -10.23688 -10.19481 -10.17633 -10.16863  -1.07526
 Alpha  occ. eigenvalues --   -1.01313  -0.82943  -0.78821  -0.69369  -0.68868
 Alpha  occ. eigenvalues --   -0.60847  -0.57367  -0.54614  -0.52770  -0.49470
 Alpha  occ. eigenvalues --   -0.46118  -0.44452  -0.41727  -0.40783  -0.39917
 Alpha  occ. eigenvalues --   -0.38398  -0.37644  -0.36764  -0.34810  -0.33206
 Alpha  occ. eigenvalues --   -0.32250  -0.29991  -0.25300  -0.21581
 Alpha virt. eigenvalues --    0.07267   0.08194   0.11183   0.11619   0.12863
 Alpha virt. eigenvalues --    0.14424   0.15307   0.15505   0.16680   0.17183
 Alpha virt. eigenvalues --    0.17957   0.18506   0.19732   0.21771   0.22215

 Mulliken charges:
               1
     1  C   -0.429323
     2  C    0.385047
     3  C   -0.431496
     4  O   -0.302267
     5  C    0.066350
     6  C    0.052340
     7  O   -0.295496
     8  C    0.031980
     9  C   -0.207017
    10  H    0.121609
    11  H    0.142899
    12  H    0.107653
    13  H    0.128126
    14  H    0.112945
    15  H    0.120041
    16  H    0.105791
    17  H    0.105681
    18  H    0.084200
    19  H    0.100937
 Sum of Mulliken charges =   0.00000

 Dipole moment (field-independent basis, Debye):
    X=             -0.2276    Y=             -1.4339    Z=              1.3566  Tot=              1.9870
 Quadrupole moment (field-independent basis, Debye-Ang):
   XX=            -48.8436   YY=            -54.8881   ZZ=            -53.4001
   XY=              3.1402   XZ=              2.1005   YZ=             -0.4947

  Exact polarizability:  83.941   2.089  69.054   3.124  -0.122  66.450
 Approx polarizability: 111.753   0.284 104.676   4.306   1.215 105.912

                      1                      2                      3
                      A                      A                      A
 Frequencies --    160.4958               205.4784               234.1865
 Red. masses --      3.2198                 1.0628                 2.4702
 Frc consts  --      0.0489                 0.0264                 0.0798
 IR Inten    --      2.4835                 0.1595                 1.1859

                      4                      5                      6
                      A                      A                      A
 Frequencies --    241.6784               328.3608               361.6357
 Red. masses --      1.1272                 2.5027                 2.5346
 Frc consts  --      0.0388                 0.1590                 0.1953
 IR Inten    --      0.1550                 0.7477                 2.3298

                      7                      8                      9
                      A                      A                      A
 Frequencies --    402.7779               506.0559               557.3955
 Red. masses --      5.9278                 3.7347                 3.9062
 Frc consts  --      0.5666                 0.5635                 0.7150
 IR Inten    --      4.0176                 3.8147                 5.0050

                     10                     11                     12
                      A                      A                      A
 Frequencies --    606.0561               738.1297               753.9995
 Red. masses --      3.4210                 2.0084                 5.5591
 Frc consts  --      0.7403                 0.6447                 1.8621
 IR Inten    --      2.6875                13.5960                 8.2028

                     13                     14                     15
                      A                      A                      A
 Frequencies --    795.9248               808.8084               829.7165
 Red. masses --      1.9164                 5.1169                 3.2073
 Frc consts  --      0.7153                 1.9722                 1.3009
 IR Inten    --      6.6091                24.8969                 4.8782

                     16                     17                     18
                      A                      A                      A
 Frequencies --    877.1132               895.5902               932.1865
 Red. masses --      1.9337                 2.1727                 1.5279
 Frc consts  --      0.8765                 1.0268                 0.7823
 IR Inten    --      4.8491                 4.5784                 0.7576

                     19                     20                     21
                      A                      A                      A
 Frequencies --    948.9184               952.2084              1010.8703
 Red. masses --      2.1390                 1.7597                 1.4367
 Frc consts  --      1.1348                 0.9401                 0.8650
 IR Inten    --     32.5472                14.5998                 3.8795

                     22                     23                     24
                      A                      A                      A
 Frequencies --   1016.8043              1026.4273              1042.1692
 Red. masses --      1.8656                 2.7243                 1.6096
 Frc consts  --      1.1364                 1.6910                 1.0300
 IR Inten    --      8.9200                16.5996                 2.0979

                     25                     26                     27
                      A                      A                      A
 Frequencies --   1074.0342              1102.9748              1125.8451
 Red. masses --      3.0696                 3.9616                 2.3000
 Frc consts  --      2.0863                 2.8396                 1.7177
 IR Inten    --     43.9905                69.5516                44.7073

                     28                     29                     30
                      A                      A                      A
 Frequencies --   1170.3642              1205.5038              1219.8084
 Red. masses --      2.1910                 1.5821                 1.9624
 Frc consts  --      1.7682                 1.3547                 1.7204
 IR Inten    --     28.9335                 2.2656                12.6307

                     31                     32                     33
                      A                      A                      A
 Frequencies --   1233.1647              1256.6608              1307.1470
 Red. masses --      1.5942                 2.0104                 2.0037
 Frc consts  --      1.4283                 1.8706                 2.0171
 IR Inten    --      0.7517                 8.1998                11.9557

                     34                     35                     36
                      A                      A                      A
 Frequencies --   1333.8444              1391.9082              1396.8810
 Red. masses --      1.8138                 1.5029                 1.9183
 Frc consts  --      1.9013                 1.7155                 2.2054
 IR Inten    --      4.3838                17.8632                 4.7886

                     37                     38                     39
                      A                      A                      A
 Frequencies --   1411.7800              1477.2311              1484.1471
 Red. masses --      1.2789                 1.0509                 1.0472
 Frc consts  --      1.5019                 1.3511                 1.3591
 IR Inten    --     12.5079                 1.7873                 0.7428

                     40                     41                     42
                      A                      A                      A
 Frequencies --   1495.9804              1508.2702              3036.9215
 Red. masses --      1.0661                 1.0560                 1.0352
 Frc consts  --      1.4057                 1.4154                 5.6250
 IR Inten    --      0.1806                 7.1238                12.8703

                     43                     44                     45
                      A                      A                      A
 Frequencies --   3046.2588              3107.2970              3111.2675
 Red. masses --      1.0371                 1.0998                 1.0960
 Frc consts  --      5.6705                 6.2566                 6.2509
 IR Inten    --     21.2400                 6.8169                 1.1810

                     46                     47                     48
                      A                      A                      A
 Frequencies --   3114.5260              3119.0877              3149.1478
 Red. masses --      1.0965                 1.1012                 1.1004
 Frc consts  --      6.2666                 6.3122                 6.4294
 IR Inten    --     47.9565                27.2326                 9.0491

                     49                     50                     51
                      A                      A                      A
 Frequencies --   3178.9003              3189.3794              3208.2595
 Red. masses --      1.0909                 1.0910                 1.1006
 Frc consts  --      6.4953                 6.5385                 6.6744
 IR Inten    --     16.2711                20.8100                12.2172

 - Thermochemistry -
 -------------------
 Temperature   298.150 Kelvin.  Pressure   1.00000 Atm.
 Atom     1 has atomic number  6 and mass  12.00000

 Molecular mass:   126.06808 amu.
 Principal axes and moments of inertia in atomic units:
                           1         2         3
     Eigenvalues --   603.466791038.126381167.09613
           X            0.99938   0.03250   0.01384
           Y           -0.03114   0.99554  -0.08907
           Z           -0.01667   0.08858   0.99593
 This molecule is an asymmetric top.
 Rotational symmetry number  1.
 Warning -- assumption of classical behavior for rotation
           may cause significant error
 Rotational temperatures (Kelvin)      0.14353     0.08343     0.07421
 Rotational constants (GHZ):           2.99062     1.73846     1.54635
 Zero-point vibrational energy     416836.2 (Joules/Mol)
                                   99.62625 (Kcal/Mol)
 Warning -- explicit consideration of  10 degrees of freedom as
           vibrations may cause significant error
 Vibrational temperatures:    230.92   295.64   336.94   347.72   472.44
          (Kelvin)            520.31   579.51   728.10   801.97   871.98
                             1062.00  1084.84  1145.16  1163.69  1193.78
                             1261.97  1288.55  1341.21  1365.28  1370.01
                             1454.42  1462.95  1476.80  1499.45  1545.29
                             1586.93  1619.84  1683.89  1734.45  1755.03
                             1774.25  1808.05  1880.69  1919.10  2002.64
                             2009.80  2031.23  2125.40  2135.35  2152.38
                             2170.06  4369.45  4382.88  4470.70  4476.41
                             4481.10  4487.67  4530.92  4573.72  4588.80
                             4615.96

 Zero-point correction=                           0.158765 (Hartree/Particle)
 Thermal correction to Energy=                    0.166403
 Thermal correction to Enthalpy=                  0.167347
 Thermal correction to Gibbs Free Energy=         0.127279
 Sum of electronic and zero-point Energies=           -422.985071
 Sum of electronic and thermal Energies=              -422.977433
 Sum of electronic and thermal Enthalpies=            -422.976489
 Sum of electronic and thermal Free Energies=         -423.016557

                     E (Thermal)             CV                S
                      KCal/Mol        Cal/Mol-Kelvin    Cal/Mol-Kelvin
 Total                  104.419             31.136             84.330
 Electronic               0.000              0.000              0.000
 Translational            0.889              2.981             40.409
 Rotational               0.889              2.981             28.082
 Vibrational            102.642             25.175             15.839
 Vibration     1          0.622              1.891              2.544
 Vibration     2          0.640              1.832              2.083
 Vibration     3          0.654              1.789              1.847
 Vibration     4          0.658              1.776              1.790
 Vibration     5          0.712              1.619              1.268
 Vibration     6          0.736              1.551              1.115
 Vibration     7          0.768              1.464              0.952
 Vibration     8          0.861              1.237              0.643
 Vibration     9          0.913              1.124              0.529
 Vibration    10          0.965              1.019              0.439

 Normal termination of Gaussian 09 at Mon Jan 27 17:06:29 2020.
 Normal termination of Gaussian 09 at Mon Jan 27 16:10:22 2020.
