 Gaussian 09, Revision D.01,
 Gaussian 09:  ES64L-G09RevD.01 24-Apr-2013

 -----------------------------
 # b3lyp 6-31G(2df,p) opt Freq
 -----------------------------

 -----
 titel
 -----
 Symbolic Z-matrix:
 Charge =  0 Multiplicity = 1

 SCF Done:  E(RB3LYP) =  -423.150337225     A.U. after   13 cycles
 Optimization completed.
    -- Stationary point found.
 Normal termination of Gaussian 09 at Mon Jan 27 23:47:35 2020.

 ----------------------------------------------------------------------
 #N Geom=AllCheck Guess=TCheck SCRF=Check GenChk RB3LYP/6-31G(2df,p) Fr
 eq
 ----------------------------------------------------------------------

 Structure from the checkpoint file:  "/scratch/puck/g09_4188c329-d506-42dc-a418-e51034d6d143/Gau-186184.chk"
 -----
 titel
 -----
 Charge =  0 Multiplicity = 1

                         Standard orientation:
 ---------------------------------------------------------------------
 Center     Atomic      Atomic             Coordinates (Angstroms)
 Number     Number       Type             X           Y           Z
 ---------------------------------------------------------------------
      1          8           0        2.933111   -0.191741    0.246805
      2          6           0        1.548721   -0.097558    0.415792
      3          6           0        0.726413    0.845494   -0.419616
      4          6           0       -0.531510    1.561601    0.079988
      5          6           0       -1.690973    0.566608    0.257181
      6          6           0       -1.302193   -0.653566    1.111644
      7          6           0       -0.785752   -1.171262   -0.247662
      8          8           0       -1.759090   -0.297449   -0.913370
      9          6           0        0.598861   -0.667374   -0.610974
     10          1           0        3.149244    0.035823   -0.663160
     11          1           0        1.318208   -0.213092    1.468770
     12          1           0        1.289832    1.381710   -1.179329
     13          1           0       -0.354878    2.104896    1.017438
     14          1           0       -0.835742    2.302326   -0.666857
     15          1           0       -2.640916    1.070351    0.455047
     16          1           0       -0.618392   -0.530184    1.952341
     17          1           0       -2.182104   -1.214024    1.430673
     18          1           0       -0.942063   -2.222199   -0.500220
     19          1           0        1.043238   -1.105743   -1.500300
 ---------------------------------------------------------------------

 SCF Done:  E(RB3LYP) =  -423.150337225     A.U. after    1 cycles

 The electronic state is 1-A.
 Alpha  occ. eigenvalues --  -19.14486 -19.12507 -10.23858 -10.23737 -10.23440
 Alpha  occ. eigenvalues --  -10.19176 -10.18779 -10.18705 -10.18662  -1.03590
 Alpha  occ. eigenvalues --   -1.02910  -0.85469  -0.75572  -0.73552  -0.65866
 Alpha  occ. eigenvalues --   -0.60473  -0.60324  -0.52875  -0.51344  -0.49835
 Alpha  occ. eigenvalues --   -0.46935  -0.44607  -0.43011  -0.41528  -0.39847
 Alpha  occ. eigenvalues --   -0.39022  -0.37859  -0.36406  -0.33981  -0.31505
 Alpha  occ. eigenvalues --   -0.31168  -0.27131  -0.25197  -0.23226
 Alpha virt. eigenvalues --    0.06937   0.08558   0.08796   0.10191   0.12020
 Alpha virt. eigenvalues --    0.13225   0.13667   0.15420   0.16147   0.17404
 Alpha virt. eigenvalues --    0.18907   0.19500   0.20099   0.21278   0.23374

 Mulliken charges:
               1
     1  O   -0.440982
     2  C    0.126869
     3  C   -0.085141
     4  C   -0.248337
     5  C    0.103064
     6  C   -0.258251
     7  C    0.070751
     8  O   -0.296211
     9  C   -0.099268
    10  H    0.283172
    11  H    0.104415
    12  H    0.081173
    13  H    0.100295
    14  H    0.110636
    15  H    0.074086
    16  H    0.101905
    17  H    0.111338
    18  H    0.077067
    19  H    0.083417
 Sum of Mulliken charges =   0.00000

 Dipole moment (field-independent basis, Debye):
    X=              0.0707    Y=              0.5338    Z=              0.2055  Tot=              0.5764
 Quadrupole moment (field-independent basis, Debye-Ang):
   XX=            -57.6163   YY=            -51.1587   ZZ=            -52.4979
   XY=              0.5591   XZ=             -8.2849   YZ=             -0.3243

  Exact polarizability:  81.738  -0.833  72.561  -3.674   0.172  65.715
 Approx polarizability: 112.030  -2.029 107.303   1.187   1.521 104.944

                      1                      2                      3
                      A                      A                      A
 Frequencies --    144.3885               189.5917               238.1585
 Red. masses --      1.0423                 4.2229                 3.0355
 Frc consts  --      0.0128                 0.0894                 0.1014
 IR Inten    --     86.0311                 5.8093                 1.7434

                      4                      5                      6
                      A                      A                      A
 Frequencies --    302.6016               321.2543               401.7840
 Red. masses --      3.4704                 2.4219                 3.8080
 Frc consts  --      0.1872                 0.1473                 0.3622
 IR Inten    --      8.2440                 2.0971                 2.5355

                      7                      8                      9
                      A                      A                      A
 Frequencies --    443.6843               457.8965               563.2288
 Red. masses --      3.5759                 3.2278                 3.5423
 Frc consts  --      0.4147                 0.3987                 0.6621
 IR Inten    --      5.8911                 0.7614                 1.5326

                     10                     11                     12
                      A                      A                      A
 Frequencies --    668.2612               788.8569               805.8883
 Red. masses --      3.3798                 2.4068                 3.0081
 Frc consts  --      0.8893                 0.8824                 1.1510
 IR Inten    --      0.8612                 9.6842                 5.1999

                     13                     14                     15
                      A                      A                      A
 Frequencies --    843.1470               863.9743               881.2240
 Red. masses --      2.3993                 2.5810                 3.1511
 Frc consts  --      1.0050                 1.1351                 1.4417
 IR Inten    --     15.1081                27.8308                28.7742

                     16                     17                     18
                      A                      A                      A
 Frequencies --    921.6681               927.0501               953.6700
 Red. masses --      4.0311                 2.1280                 5.0187
 Frc consts  --      2.0175                 1.0775                 2.6893
 IR Inten    --     12.9843                16.7501                28.6804

                     19                     20                     21
                      A                      A                      A
 Frequencies --    979.8497               990.2604              1041.1590
 Red. masses --      1.8387                 2.1317                 1.6913
 Frc consts  --      1.0401                 1.2316                 1.0802
 IR Inten    --     10.3046                 5.0161                11.0828

                     22                     23                     24
                      A                      A                      A
 Frequencies --   1062.0023              1071.1009              1093.1541
 Red. masses --      1.6551                 1.4726                 1.3860
 Frc consts  --      1.0998                 0.9954                 0.9759
 IR Inten    --     10.2739                32.4181                 1.6152

                     25                     26                     27
                      A                      A                      A
 Frequencies --   1098.4812              1130.6364              1144.3184
 Red. masses --      1.7151                 2.0952                 1.7084
 Frc consts  --      1.2194                 1.5780                 1.3180
 IR Inten    --      6.7332                 0.9507                86.7694

                     28                     29                     30
                      A                      A                      A
 Frequencies --   1188.0348              1194.8210              1244.5582
 Red. masses --      1.3036                 1.3802                 1.3892
 Frc consts  --      1.0841                 1.1609                 1.2678
 IR Inten    --      1.1774                29.9808                 5.5966

                     31                     32                     33
                      A                      A                      A
 Frequencies --   1253.3014              1278.6093              1305.0039
 Red. masses --      1.4925                 1.5032                 1.6615
 Frc consts  --      1.3813                 1.4480                 1.6671
 IR Inten    --     11.6559                 5.5888                 7.1198

                     34                     35                     36
                      A                      A                      A
 Frequencies --   1330.9577              1340.3448              1344.4149
 Red. masses --      1.4311                 1.4729                 1.6174
 Frc consts  --      1.4936                 1.5591                 1.7224
 IR Inten    --      2.7832                 1.5245                 8.8321

                     37                     38                     39
                      A                      A                      A
 Frequencies --   1377.7787              1390.2858              1462.5072
 Red. masses --      1.4288                 1.4233                 1.7792
 Frc consts  --      1.5980                 1.6209                 2.2421
 IR Inten    --     13.3034                12.4751                55.0022

                     40                     41                     42
                      A                      A                      A
 Frequencies --   1477.0965              1505.5371              3023.6078
 Red. masses --      1.1624                 1.1334                 1.0633
 Frc consts  --      1.4942                 1.5136                 5.7275
 IR Inten    --      6.6246                 8.7254                31.6610

                     43                     44                     45
                      A                      A                      A
 Frequencies --   3068.7583              3075.2368              3080.9656
 Red. masses --      1.0906                 1.0893                 1.0744
 Frc consts  --      6.0510                 6.0694                 6.0087
 IR Inten    --     23.4170                43.6632                49.3243

                     46                     47                     48
                      A                      A                      A
 Frequencies --   3089.8836              3128.8849              3136.5973
 Red. masses --      1.0803                 1.0881                 1.1082
 Frc consts  --      6.0770                 6.2765                 6.4237
 IR Inten    --     31.9637                16.7615                25.0088

                     49                     50                     51
                      A                      A                      A
 Frequencies --   3146.4638              3178.5862              3819.6139
 Red. masses --      1.0906                 1.0877                 1.0658
 Frc consts  --      6.3616                 6.4751                 9.1618
 IR Inten    --     19.4525                18.9972                20.9528

 - Thermochemistry -
 -------------------
 Temperature   298.150 Kelvin.  Pressure   1.00000 Atm.
 Atom     1 has atomic number  8 and mass  15.99491

 Molecular mass:   126.06808 amu.
 Principal axes and moments of inertia in atomic units:
                           1         2         3
     Eigenvalues --   517.562071335.414221472.45288
           X            0.99955  -0.00067  -0.03007
           Y            0.00001   0.99976  -0.02200
           Z            0.03007   0.02199   0.99931
 This molecule is an asymmetric top.
 Rotational symmetry number  1.
 Warning -- assumption of classical behavior for rotation
           may cause significant error
 Rotational temperatures (Kelvin)      0.16735     0.06486     0.05882
 Rotational constants (GHZ):           3.48700     1.35145     1.22567
 Zero-point vibrational energy     423293.5 (Joules/Mol)
                                  101.16956 (Kcal/Mol)
 Warning -- explicit consideration of   9 degrees of freedom as
           vibrations may cause significant error
 Vibrational temperatures:    207.74   272.78   342.66   435.38   462.21
          (Kelvin)            578.08   638.36   658.81   810.36   961.48
                             1134.99  1159.49  1213.10  1243.06  1267.88
                             1326.07  1333.82  1372.12  1409.78  1424.76
                             1497.99  1527.98  1541.07  1572.80  1580.47
                             1626.73  1646.42  1709.31  1719.08  1790.64
                             1803.22  1839.63  1877.61  1914.95  1928.45
                             1934.31  1982.31  2000.31  2104.22  2125.21
                             2166.13  4350.29  4415.25  4424.57  4432.82
                             4445.65  4501.76  4512.86  4527.05  4573.27
                             5495.57

 Zero-point correction=                           0.161224 (Hartree/Particle)
 Thermal correction to Energy=                    0.168636
 Thermal correction to Enthalpy=                  0.169581
 Thermal correction to Gibbs Free Energy=         0.129665
 Sum of electronic and zero-point Energies=           -422.989113
 Sum of electronic and thermal Energies=              -422.981701
 Sum of electronic and thermal Enthalpies=            -422.980757
 Sum of electronic and thermal Free Energies=         -423.020672

                     E (Thermal)             CV                S
                      KCal/Mol        Cal/Mol-Kelvin    Cal/Mol-Kelvin
 Total                  105.821             30.070             84.009
 Electronic               0.000              0.000              0.000
 Translational            0.889              2.981             40.409
 Rotational               0.889              2.981             28.411
 Vibrational            104.043             24.108             15.189
 Vibration     1          0.616              1.909              2.745
 Vibration     2          0.633              1.854              2.232
 Vibration     3          0.656              1.782              1.817
 Vibration     4          0.694              1.669              1.402
 Vibration     5          0.707              1.633              1.304
 Vibration     6          0.767              1.466              0.956
 Vibration     7          0.803              1.375              0.815
 Vibration     8          0.816              1.343              0.772
 Vibration     9          0.919              1.111              0.517

 Optimization completed.
    -- Stationary point found.
 Normal termination of Gaussian 09 at Tue Jan 28 00:33:39 2020.
