 Gaussian 09, Revision D.01,
 Gaussian 09:  ES64L-G09RevD.01 24-Apr-2013

 -----------------------------
 # b3lyp 6-31G(2df,p) opt Freq
 -----------------------------

 -----
 titel
 -----
 Symbolic Z-matrix:
 Charge =  0 Multiplicity = 1

 SCF Done:  E(RB3LYP) =  -423.153246960     A.U. after   13 cycles
 Optimization completed.
    -- Stationary point found.
 Normal termination of Gaussian 09 at Tue Jan 28 11:35:13 2020.

 ----------------------------------------------------------------------
 #N Geom=AllCheck Guess=TCheck SCRF=Check GenChk RB3LYP/6-31G(2df,p) Fr
 eq
 ----------------------------------------------------------------------

 Structure from the checkpoint file:  "/scratch/puck/g09_555b342c-ef6f-411f-9864-501a4f06f505/Gau-138178.chk"
 -----
 titel
 -----
 Charge =  0 Multiplicity = 1

                         Standard orientation:
 ---------------------------------------------------------------------
 Center     Atomic      Atomic             Coordinates (Angstroms)
 Number     Number       Type             X           Y           Z
 ---------------------------------------------------------------------
      1          6           0        2.797001    0.152796    0.265175
      2          8           0        1.546304   -0.473425    0.486600
      3          6           0        0.678712   -0.390893   -0.610586
      4          8           0        0.239697    0.943330   -0.862591
      5          6           0       -1.092129    1.044394   -0.367598
      6          6           0       -1.173016    0.748316    1.165498
      7          6           0       -1.488925   -0.703576    0.802486
      8          6           0       -1.774573   -0.322023   -0.643378
      9          6           0       -0.588904   -1.179483   -0.328678
     10          1           0        2.682741    1.230053    0.096117
     11          1           0        3.401076   -0.012760    1.159982
     12          1           0        3.315668   -0.285897   -0.601264
     13          1           0        1.205180   -0.728697   -1.517230
     14          1           0       -1.530338    1.968632   -0.740274
     15          1           0       -0.271642    0.956910    1.745422
     16          1           0       -2.039114    1.240735    1.617341
     17          1           0       -2.008304   -1.422680    1.424477
     18          1           0       -2.585647   -0.565267   -1.316083
     19          1           0       -0.606626   -2.237452   -0.558079
 ---------------------------------------------------------------------

 SCF Done:  E(RB3LYP) =  -423.153246960     A.U. after    1 cycles

 The electronic state is 1-A.
 Alpha  occ. eigenvalues --  -19.13859 -19.13561 -10.27096 -10.23381 -10.21808
 Alpha  occ. eigenvalues --  -10.19658 -10.19294 -10.18966 -10.17745  -1.06461
 Alpha  occ. eigenvalues --   -1.00691  -0.88781  -0.75138  -0.69614  -0.65022
 Alpha  occ. eigenvalues --   -0.61723  -0.58262  -0.53889  -0.52681  -0.49206
 Alpha  occ. eigenvalues --   -0.47109  -0.45402  -0.42379  -0.41170  -0.40455
 Alpha  occ. eigenvalues --   -0.40229  -0.37694  -0.35336  -0.33071  -0.29960
 Alpha  occ. eigenvalues --   -0.28989  -0.26791  -0.26051  -0.25083
 Alpha virt. eigenvalues --    0.08717   0.10531   0.11783   0.12601   0.13772
 Alpha virt. eigenvalues --    0.14260   0.14912   0.16277   0.16448   0.17100
 Alpha virt. eigenvalues --    0.17637   0.18521   0.19144   0.20123   0.20900

 Mulliken charges:
               1
     1  C   -0.241158
     2  O   -0.237097
     3  C    0.204630
     4  O   -0.276190
     5  C    0.069557
     6  C   -0.240224
     7  C   -0.069369
     8  C   -0.092232
     9  C   -0.093504
    10  H    0.125558
    11  H    0.123856
    12  H    0.103271
    13  H    0.067015
    14  H    0.081794
    15  H    0.109274
    16  H    0.095084
    17  H    0.086640
    18  H    0.088998
    19  H    0.094096
 Sum of Mulliken charges =   0.00000

 Dipole moment (field-independent basis, Debye):
    X=             -0.6523    Y=             -0.4933    Z=             -0.2484  Tot=              0.8548
 Quadrupole moment (field-independent basis, Debye-Ang):
   XX=            -47.7710   YY=            -52.2809   ZZ=            -53.8727
   XY=              0.2476   XZ=             -0.0811   YZ=              2.1978

  Exact polarizability:  85.130  -1.289  69.294  -0.642   2.598  68.590
 Approx polarizability: 111.109  -3.092 103.928  -0.556  -0.040 105.783

                      1                      2                      3
                      A                      A                      A
 Frequencies --    106.8956               148.1617               181.8707
 Red. masses --      3.1288                 1.9394                 1.5573
 Frc consts  --      0.0211                 0.0251                 0.0303
 IR Inten    --      2.7941                 3.0247                 2.9372

                      4                      5                      6
                      A                      A                      A
 Frequencies --    241.6565               360.4401               427.8779
 Red. masses --      2.9030                 3.4555                 2.1961
 Frc consts  --      0.0999                 0.2645                 0.2369
 IR Inten    --      1.3844                 2.8125                 0.2975

                      7                      8                      9
                      A                      A                      A
 Frequencies --    502.7153               560.9394               668.7153
 Red. masses --      4.1702                 6.3865                 5.9418
 Frc consts  --      0.6209                 1.1840                 1.5655
 IR Inten    --      3.7335                 4.9705                 2.5408

                     10                     11                     12
                      A                      A                      A
 Frequencies --    713.4926               768.6656               799.5379
 Red. masses --      3.3949                 2.1823                 1.7796
 Frc consts  --      1.0183                 0.7597                 0.6703
 IR Inten    --      2.4649                 0.6450                 8.4846

                     13                     14                     15
                      A                      A                      A
 Frequencies --    841.8498               856.6749               903.0828
 Red. masses --      2.3554                 2.9113                 1.8492
 Frc consts  --      0.9835                 1.2588                 0.8886
 IR Inten    --     11.6327                13.2313                 6.4671

                     16                     17                     18
                      A                      A                      A
 Frequencies --    933.4847               960.9110               982.4099
 Red. masses --      2.7062                 1.8062                 2.5203
 Frc consts  --      1.3894                 0.9826                 1.4331
 IR Inten    --      8.3588                15.4209                95.0047

                     19                     20                     21
                      A                      A                      A
 Frequencies --    989.3222              1016.2115              1018.3251
 Red. masses --      2.0829                 2.4945                 3.1689
 Frc consts  --      1.2011                 1.5177                 1.9361
 IR Inten    --     19.6284                 9.7991                24.2976

                     22                     23                     24
                      A                      A                      A
 Frequencies --   1051.1812              1066.8404              1110.9105
 Red. masses --      1.9143                 1.5237                 2.1696
 Frc consts  --      1.2463                 1.0218                 1.5776
 IR Inten    --     40.5787                12.5015               136.2511

                     25                     26                     27
                      A                      A                      A
 Frequencies --   1117.6445              1138.8680              1162.9662
 Red. masses --      2.7553                 2.9292                 1.5359
 Frc consts  --      2.0278                 2.2385                 1.2239
 IR Inten    --      1.6434               102.3164                 5.8372

                     28                     29                     30
                      A                      A                      A
 Frequencies --   1180.8732              1203.6606              1221.9008
 Red. masses --      1.2891                 1.5678                 1.6190
 Frc consts  --      1.0591                 1.3383                 1.4242
 IR Inten    --      2.6439                 4.8589                32.9865

                     31                     32                     33
                      A                      A                      A
 Frequencies --   1231.1109              1284.4338              1295.5053
 Red. masses --      1.4952                 1.4777                 1.4237
 Frc consts  --      1.3352                 1.4364                 1.4078
 IR Inten    --      1.6133                 8.0069                 6.7495

                     34                     35                     36
                      A                      A                      A
 Frequencies --   1340.9251              1373.1458              1394.3428
 Red. masses --      1.4471                 1.6433                 1.5670
 Frc consts  --      1.5330                 1.8255                 1.7950
 IR Inten    --      2.7108                23.0211                25.2338

                     37                     38                     39
                      A                      A                      A
 Frequencies --   1403.5253              1475.6246              1484.0377
 Red. masses --      1.8526                 1.1608                 1.0515
 Frc consts  --      2.1502                 1.4892                 1.3644
 IR Inten    --     21.9964                 0.5029                 4.3898

                     40                     41                     42
                      A                      A                      A
 Frequencies --   1485.0568              1513.4879              2977.7259
 Red. masses --      1.1246                 1.0542                 1.0796
 Frc consts  --      1.4613                 1.4227                 5.6402
 IR Inten    --      3.6763                 4.5191                39.5091

                     43                     44                     45
                      A                      A                      A
 Frequencies --   2988.4319              3056.0795              3061.2742
 Red. masses --      1.0480                 1.0583                 1.0920
 Frc consts  --      5.5145                 5.8236                 6.0294
 IR Inten    --     95.7501                35.8852                35.6070

                     46                     47                     48
                      A                      A                      A
 Frequencies --   3118.9904              3122.4875              3133.0086
 Red. masses --      1.1068                 1.1005                 1.0910
 Frc consts  --      6.3436                 6.3218                 6.3096
 IR Inten    --     19.2809                27.1771                37.7670

                     49                     50                     51
                      A                      A                      A
 Frequencies --   3182.3148              3196.4741              3210.3581
 Red. masses --      1.0906                 1.0895                 1.0989
 Frc consts  --      6.5072                 6.5589                 6.6730
 IR Inten    --     18.5149                 8.5859                14.7546

 - Thermochemistry -
 -------------------
 Temperature   298.150 Kelvin.  Pressure   1.00000 Atm.
 Atom     1 has atomic number  6 and mass  12.00000

 Molecular mass:   126.06808 amu.
 Principal axes and moments of inertia in atomic units:
                           1         2         3
     Eigenvalues --   524.419281262.608071313.02539
           X            0.99996   0.00773  -0.00438
           Y           -0.00633   0.96597   0.25859
           Z            0.00623  -0.25855   0.96598
 This molecule is an asymmetric top.
 Rotational symmetry number  1.
 Warning -- assumption of classical behavior for rotation
           may cause significant error
 Rotational temperatures (Kelvin)      0.16516     0.06860     0.06597
 Rotational constants (GHZ):           3.44141     1.42938     1.37449
 Zero-point vibrational energy     422081.0 (Joules/Mol)
                                  100.87977 (Kcal/Mol)
 Warning -- explicit consideration of   8 degrees of freedom as
           vibrations may cause significant error
 Vibrational temperatures:    153.80   213.17   261.67   347.69   518.59
          (Kelvin)            615.62   723.29   807.07   962.13  1026.56
                             1105.94  1150.36  1211.23  1232.56  1299.33
                             1343.07  1382.53  1413.47  1423.41  1462.10
                             1465.14  1512.41  1534.94  1598.35  1608.04
                             1638.57  1673.25  1699.01  1731.80  1758.04
                             1771.29  1848.01  1863.94  1929.29  1975.65
                             2006.15  2019.36  2123.09  2135.20  2136.66
                             2177.57  4284.28  4299.68  4397.01  4404.49
                             4487.53  4492.56  4507.69  4578.64  4599.01
                             4618.98

 Zero-point correction=                           0.160762 (Hartree/Particle)
 Thermal correction to Energy=                    0.168198
 Thermal correction to Enthalpy=                  0.169142
 Thermal correction to Gibbs Free Energy=         0.128843
 Sum of electronic and zero-point Energies=           -422.992485
 Sum of electronic and thermal Energies=              -422.985049
 Sum of electronic and thermal Enthalpies=            -422.984105
 Sum of electronic and thermal Free Energies=         -423.024404

                     E (Thermal)             CV                S
                      KCal/Mol        Cal/Mol-Kelvin    Cal/Mol-Kelvin
 Total                  105.546             29.368             84.816
 Electronic               0.000              0.000              0.000
 Translational            0.889              2.981             40.409
 Rotational               0.889              2.981             28.255
 Vibrational            103.768             23.406             16.152
 Vibration     1          0.606              1.944              3.325
 Vibration     2          0.618              1.905              2.696
 Vibration     3          0.630              1.864              2.309
 Vibration     4          0.658              1.777              1.791
 Vibration     5          0.735              1.554              1.120
 Vibration     6          0.789              1.410              0.866
 Vibration     7          0.858              1.244              0.651
 Vibration     8          0.917              1.116              0.522

 Optimization completed.
    -- Stationary point found.
 Normal termination of Gaussian 09 at Tue Jan 28 12:20:12 2020.
