 Gaussian 09, Revision D.01,
 Gaussian 09:  ES64L-G09RevD.01 24-Apr-2013

 -----------------------------
 # b3lyp 6-31G(2df,p) opt Freq
 -----------------------------

 -----
 titel
 -----
 Symbolic Z-matrix:
 Charge =  0 Multiplicity = 1

 SCF Done:  E(RB3LYP) =  -423.141949883     A.U. after   13 cycles
 Optimization completed.
    -- Stationary point found.
 Normal termination of Gaussian 09 at Mon Jan 27 12:11:51 2020.

 ----------------------------------------------------------------------
 #N Geom=AllCheck Guess=TCheck SCRF=Check GenChk RB3LYP/6-31G(2df,p) Fr
 eq
 ----------------------------------------------------------------------

 Structure from the checkpoint file:  "/scratch/puck/g09_d9e1a961-fa5f-4b29-8648-70c2fc4230e0/Gau-71648.chk"
 -----
 titel
 -----
 Charge =  0 Multiplicity = 1

                         Standard orientation:
 ---------------------------------------------------------------------
 Center     Atomic      Atomic             Coordinates (Angstroms)
 Number     Number       Type             X           Y           Z
 ---------------------------------------------------------------------
      1          6           0       -1.552401    1.036130    0.026547
      2          8           0       -2.521053    0.000002   -0.237770
      3          6           0       -1.552402   -1.036129    0.026542
      4          6           0       -0.413363   -0.000001    0.086432
      5          8           0        0.404459   -0.000006    1.264167
      6          6           0        1.733793   -0.000004    0.705573
      7          6           0        1.642825    1.068994   -0.410299
      8          6           0        0.665661    0.000005   -0.998687
      9          6           0        1.642821   -1.068991   -0.410309
     10          1           0       -1.509190    1.781481   -0.777405
     11          1           0       -1.727596    1.537651    0.986781
     12          1           0       -1.727597   -1.537652    0.986775
     13          1           0       -1.509195   -1.781479   -0.777411
     14          1           0        2.469491   -0.000009    1.507510
     15          1           0        1.243736    2.047586   -0.132771
     16          1           0        2.558021    1.170715   -0.995650
     17          1           0        0.331735    0.000011   -2.035354
     18          1           0        1.243730   -2.047586   -0.132792
     19          1           0        2.558017   -1.170708   -0.995661
 ---------------------------------------------------------------------

 SCF Done:  E(RB3LYP) =  -423.141949883     A.U. after    1 cycles

 The electronic state is 1-A.
 Alpha  occ. eigenvalues --  -19.14150 -19.13025 -10.24219 -10.23902 -10.22392
 Alpha  occ. eigenvalues --  -10.22392 -10.20488 -10.19255 -10.19254  -1.05552
 Alpha  occ. eigenvalues --   -1.02806  -0.84203  -0.74859  -0.69459  -0.66869
 Alpha  occ. eigenvalues --   -0.63374  -0.57995  -0.54102  -0.52345  -0.49394
 Alpha  occ. eigenvalues --   -0.46326  -0.45785  -0.44989  -0.41499  -0.40519
 Alpha  occ. eigenvalues --   -0.36890  -0.36513  -0.36004  -0.34985  -0.32062
 Alpha  occ. eigenvalues --   -0.31410  -0.30140  -0.24655  -0.24571
 Alpha virt. eigenvalues --    0.07329   0.09097   0.10262   0.11949   0.12206
 Alpha virt. eigenvalues --    0.13704   0.14443   0.15231   0.15651   0.16802
 Alpha virt. eigenvalues --    0.17074   0.17262   0.18685   0.20202   0.20626

 Mulliken charges:
               1
     1  C   -0.147482
     2  O   -0.275023
     3  C   -0.147482
     4  C    0.403089
     5  O   -0.322961
     6  C    0.108549
     7  C   -0.245388
     8  C   -0.122088
     9  C   -0.245388
    10  H    0.098760
    11  H    0.106826
    12  H    0.106826
    13  H    0.098760
    14  H    0.084157
    15  H    0.104026
    16  H    0.103976
    17  H    0.082843
    18  H    0.104026
    19  H    0.103975
 Sum of Mulliken charges =   0.00000

 Dipole moment (field-independent basis, Debye):
    X=              2.4398    Y=              0.0000    Z=             -1.0330  Tot=              2.6494
 Quadrupole moment (field-independent basis, Debye-Ang):
   XX=            -56.9636   YY=            -50.5132   ZZ=            -54.4908
   XY=              0.0000   XZ=             -1.3639   YZ=              0.0000

  Exact polarizability:  81.733   0.000  75.528  -0.769   0.000  65.454
 Approx polarizability: 110.398   0.000 110.031   0.960   0.000 103.022

                      1                      2                      3
                      A                      A                      A
 Frequencies --    100.0461               149.7336               231.1771
 Red. masses --      3.9589                 3.5288                 2.2880
 Frc consts  --      0.0233                 0.0466                 0.0720
 IR Inten    --      4.4086                 0.0066                 0.4000

                      4                      5                      6
                      A                      A                      A
 Frequencies --    343.0506               437.4541               482.7470
 Red. masses --      2.1856                 3.7654                 4.1073
 Frc consts  --      0.1515                 0.4245                 0.5640
 IR Inten    --      1.7275                 0.2380                 9.3469

                      7                      8                      9
                      A                      A                      A
 Frequencies --    507.4537               527.4652               719.9686
 Red. masses --      2.4969                 1.9726                 3.8027
 Frc consts  --      0.3788                 0.3233                 1.1614
 IR Inten    --      0.3180                 0.0735                 3.9682

                     10                     11                     12
                      A                      A                      A
 Frequencies --    803.6545               836.5795               845.7453
 Red. masses --      2.5803                 2.2895                 2.1500
 Frc consts  --      0.9819                 0.9441                 0.9061
 IR Inten    --      6.2218                 2.5705                 0.2135

                     13                     14                     15
                      A                      A                      A
 Frequencies --    873.4262               874.7570               920.2804
 Red. masses --      3.3340                 2.6473                 2.4229
 Frc consts  --      1.4986                 1.1935                 1.2090
 IR Inten    --      8.0936                15.8938                 9.7121

                     16                     17                     18
                      A                      A                      A
 Frequencies --    939.9510               959.0445               987.9750
 Red. masses --      1.2977                 3.5451                 4.5709
 Frc consts  --      0.6755                 1.9211                 2.6287
 IR Inten    --      0.0017                63.2015                 2.6897

                     19                     20                     21
                      A                      A                      A
 Frequencies --    990.9050              1026.5247              1036.5233
 Red. masses --      1.5766                 7.6898                 1.8935
 Frc consts  --      0.9121                 4.7742                 1.1986
 IR Inten    --      3.7482                77.1969                 6.1742

                     22                     23                     24
                      A                      A                      A
 Frequencies --   1041.4150              1066.8827              1096.9982
 Red. masses --      1.1645                 2.1067                 1.6033
 Frc consts  --      0.7441                 1.4128                 1.1367
 IR Inten    --      2.2802                17.7085                 0.1021

                     25                     26                     27
                      A                      A                      A
 Frequencies --   1126.0568              1132.3757              1149.6755
 Red. masses --      2.0942                 3.3871                 1.0763
 Frc consts  --      1.5645                 2.5590                 0.8382
 IR Inten    --     48.5512                 5.4840                 0.0043

                     28                     29                     30
                      A                      A                      A
 Frequencies --   1154.8103              1192.4325              1213.2940
 Red. masses --      1.3958                 1.8492                 1.3792
 Frc consts  --      1.0967                 1.5492                 1.1962
 IR Inten    --      1.6968                30.6354                 0.0241

                     31                     32                     33
                      A                      A                      A
 Frequencies --   1217.4036              1250.8914              1256.6865
 Red. masses --      1.5494                 1.7674                 1.7253
 Frc consts  --      1.3530                 1.6294                 1.6054
 IR Inten    --      0.8659                14.8337                 0.0341

                     34                     35                     36
                      A                      A                      A
 Frequencies --   1299.3136              1321.9724              1330.1913
 Red. masses --      1.3328                 1.9960                 1.5502
 Frc consts  --      1.3257                 2.0552                 1.6161
 IR Inten    --      2.5265                11.2970                 6.7770

                     37                     38                     39
                      A                      A                      A
 Frequencies --   1387.6650              1477.0393              1498.3479
 Red. masses --      1.9512                 1.1026                 1.0796
 Frc consts  --      2.2137                 1.4173                 1.4280
 IR Inten    --      5.0993                 2.7895                 0.2668

                     40                     41                     42
                      A                      A                      A
 Frequencies --   1512.6070              1526.6472              3005.1534
 Red. masses --      1.1319                 1.1162                 1.0520
 Frc consts  --      1.5258                 1.5327                 5.5974
 IR Inten    --      2.4646                 2.0437                92.9431

                     43                     44                     45
                      A                      A                      A
 Frequencies --   3017.0208              3060.6896              3060.8896
 Red. masses --      1.0574                 1.1093                 1.1127
 Frc consts  --      5.6709                 6.1228                 6.1420
 IR Inten    --      2.0314                 1.1674                62.1304

                     46                     47                     48
                      A                      A                      A
 Frequencies --   3066.8858              3071.4223              3129.4266
 Red. masses --      1.0565                 1.0584                 1.0911
 Frc consts  --      5.8547                 5.8825                 6.2954
 IR Inten    --     50.2651                 4.4163                30.7418

                     49                     50                     51
                      A                      A                      A
 Frequencies --   3133.6129              3139.5193              3145.3911
 Red. masses --      1.1103                 1.1066                 1.0933
 Frc consts  --      6.4234                 6.4265                 6.3727
 IR Inten    --      9.2203                35.4269                42.4538

 - Thermochemistry -
 -------------------
 Temperature   298.150 Kelvin.  Pressure   1.00000 Atm.
 Atom     1 has atomic number  6 and mass  12.00000

 Molecular mass:   126.06808 amu.
 Principal axes and moments of inertia in atomic units:
                           1         2         3
     Eigenvalues --   484.628551298.333751353.41862
           X            0.99990   0.00000  -0.01430
           Y            0.00000   1.00000   0.00000
           Z            0.01430   0.00000   0.99990
 This molecule is an asymmetric top.
 Rotational symmetry number  1.
 Warning -- assumption of classical behavior for rotation
           may cause significant error
 Rotational temperatures (Kelvin)      0.17872     0.06671     0.06400
 Rotational constants (GHZ):           3.72397     1.39004     1.33347
 Zero-point vibrational energy     422743.4 (Joules/Mol)
                                  101.03810 (Kcal/Mol)
 Warning -- explicit consideration of   8 degrees of freedom as
           vibrations may cause significant error
 Vibrational temperatures:    143.94   215.43   332.61   493.57   629.40
          (Kelvin)            694.56   730.11   758.90  1035.87  1156.28
                             1203.65  1216.84  1256.66  1258.58  1324.08
                             1352.38  1379.85  1421.47  1425.69  1476.94
                             1491.32  1498.36  1535.00  1578.33  1620.14
                             1629.23  1654.12  1661.51  1715.64  1745.66
                             1751.57  1799.75  1808.09  1869.42  1902.02
                             1913.85  1996.54  2125.13  2155.79  2176.30
                             2196.50  4323.74  4340.81  4403.64  4403.93
                             4412.56  4419.09  4502.54  4508.56  4517.06
                             4525.51

 Zero-point correction=                           0.161014 (Hartree/Particle)
 Thermal correction to Energy=                    0.168065
 Thermal correction to Enthalpy=                  0.169009
 Thermal correction to Gibbs Free Energy=         0.129463
 Sum of electronic and zero-point Energies=           -422.980935
 Sum of electronic and thermal Energies=              -422.973885
 Sum of electronic and thermal Enthalpies=            -422.972941
 Sum of electronic and thermal Free Energies=         -423.012486

                     E (Thermal)             CV                S
                      KCal/Mol        Cal/Mol-Kelvin    Cal/Mol-Kelvin
 Total                  105.462             28.473             83.231
 Electronic               0.000              0.000              0.000
 Translational            0.889              2.981             40.409
 Rotational               0.889              2.981             28.234
 Vibrational            103.685             22.512             14.588
 Vibration     1          0.604              1.949              3.453
 Vibration     2          0.618              1.903              2.676
 Vibration     3          0.653              1.793              1.870
 Vibration     4          0.722              1.589              1.198
 Vibration     5          0.798              1.389              0.835
 Vibration     6          0.839              1.288              0.703
 Vibration     7          0.863              1.233              0.640
 Vibration     8          0.882              1.189              0.593

 Optimization completed.
    -- Stationary point found.
 Normal termination of Gaussian 09 at Mon Jan 27 12:57:34 2020.
