 Gaussian 09, Revision D.01,
 Gaussian 09:  ES64L-G09RevD.01 24-Apr-2013

 -----------------------------
 # b3lyp 6-31G(2df,p) opt Freq
 -----------------------------

 -----
 titel
 -----
 Symbolic Z-matrix:
 Charge =  0 Multiplicity = 1

 SCF Done:  E(RB3LYP) =  -423.244861201     A.U. after   14 cycles
 Optimization completed.
    -- Stationary point found.
 Normal termination of Gaussian 09 at Mon Jan 27 14:09:43 2020.

 ----------------------------------------------------------------------
 #N Geom=AllCheck Guess=TCheck SCRF=Check GenChk RB3LYP/6-31G(2df,p) Fr
 eq
 ----------------------------------------------------------------------

 Structure from the checkpoint file:  "/scratch/puck/g09_199ffb0a-40e5-40ba-aef8-2d3eb565f52c/Gau-31410.chk"
 -----
 titel
 -----
 Charge =  0 Multiplicity = 1

                         Standard orientation:
 ---------------------------------------------------------------------
 Center     Atomic      Atomic             Coordinates (Angstroms)
 Number     Number       Type             X           Y           Z
 ---------------------------------------------------------------------
      1          6           0        2.969961    0.426862   -0.570349
      2          6           0        1.790697   -0.286001    0.060600
      3          8           0        1.930621   -1.121574    0.924547
      4          6           0        0.403401    0.129359   -0.423246
      5          6           0       -0.171682    1.274837    0.470591
      6          6           0       -1.685729    1.216705    0.230739
      7          6           0       -1.983162   -0.253350   -0.097905
      8          8           0       -3.077196   -0.745371   -0.185977
      9          6           0       -0.652564   -0.976192   -0.308452
     10          1           0        3.052352    0.134412   -1.624205
     11          1           0        2.821634    1.512360   -0.555960
     12          1           0        3.891837    0.166909   -0.049218
     13          1           0        0.471203    0.495484   -1.454634
     14          1           0        0.052767    1.048968    1.518974
     15          1           0        0.268216    2.247634    0.238610
     16          1           0       -2.297235    1.563872    1.066844
     17          1           0       -1.973709    1.810577   -0.646607
     18          1           0       -0.437325   -1.577986    0.584278
     19          1           0       -0.702673   -1.659994   -1.158501
 ---------------------------------------------------------------------

 SCF Done:  E(RB3LYP) =  -423.244861201     A.U. after    1 cycles

 The electronic state is 1-A.
 Alpha  occ. eigenvalues --  -19.13735 -19.12872 -10.27769 -10.26918 -10.20824
 Alpha  occ. eigenvalues --  -10.20584 -10.19773 -10.19700 -10.19118  -1.04810
 Alpha  occ. eigenvalues --   -1.04032  -0.85033  -0.76292  -0.73423  -0.69646
 Alpha  occ. eigenvalues --   -0.61378  -0.54037  -0.53335  -0.50182  -0.47493
 Alpha  occ. eigenvalues --   -0.45480  -0.44424  -0.43890  -0.42377  -0.41962
 Alpha  occ. eigenvalues --   -0.40576  -0.38828  -0.37949  -0.36801  -0.35007
 Alpha  occ. eigenvalues --   -0.34281  -0.33908  -0.25520  -0.23971
 Alpha virt. eigenvalues --   -0.02395  -0.01320   0.06975   0.10171   0.11671
 Alpha virt. eigenvalues --    0.12432   0.13955   0.14594   0.15373   0.16382
 Alpha virt. eigenvalues --    0.17597   0.18521   0.19384   0.20540   0.21580

 Mulliken charges:
               1
     1  C   -0.482359
     2  C    0.384147
     3  O   -0.304598
     4  C   -0.102420
     5  C   -0.229179
     6  C   -0.319475
     7  C    0.396370
     8  O   -0.309965
     9  C   -0.329080
    10  H    0.145741
    11  H    0.138645
    12  H    0.145299
    13  H    0.079738
    14  H    0.126452
    15  H    0.108941
    16  H    0.133127
    17  H    0.132343
    18  H    0.157554
    19  H    0.128718
 Sum of Mulliken charges =   0.00000

 Dipole moment (field-independent basis, Debye):
    X=              2.2383    Y=              2.9831    Z=             -1.5321  Tot=              4.0319
 Quadrupole moment (field-independent basis, Debye-Ang):
   XX=            -63.5387   YY=            -53.7581   ZZ=            -52.2191
   XY=             -0.6784   XZ=             -4.8458   YZ=              1.9170

  Exact polarizability:  92.758   0.944  73.158  -1.203  -1.348  63.070
 Approx polarizability: 120.821   2.383 111.618   1.850  -8.081 102.615

                      1                      2                      3
                      A                      A                      A
 Frequencies --     35.6479                78.7587               135.4389
 Red. masses --      3.9492                 4.0858                 1.9085
 Frc consts  --      0.0030                 0.0149                 0.0206
 IR Inten    --      1.3137                 5.0201                 1.1323

                      4                      5                      6
                      A                      A                      A
 Frequencies --    142.7527               178.9106               286.9477
 Red. masses --      1.1147                 3.8658                 2.7412
 Frc consts  --      0.0134                 0.0729                 0.1330
 IR Inten    --      0.7436                 3.4783                 6.7148

                      7                      8                      9
                      A                      A                      A
 Frequencies --    317.8086               448.3361               481.6871
 Red. masses --      3.9467                 2.5161                 2.8368
 Frc consts  --      0.2349                 0.2980                 0.3878
 IR Inten    --      1.1311                 3.7136                 7.3659

                     10                     11                     12
                      A                      A                      A
 Frequencies --    555.1802               571.2523               591.5324
 Red. masses --      2.9069                 3.0551                 2.5611
 Frc consts  --      0.5279                 0.5874                 0.5280
 IR Inten    --     14.5814                 2.0121                 3.1191

                     13                     14                     15
                      A                      A                      A
 Frequencies --    602.5388               729.9541               806.6085
 Red. masses --      3.0588                 2.0016                 3.3801
 Frc consts  --      0.6543                 0.6284                 1.2957
 IR Inten    --      4.2125                 1.4569                 2.0211

                     16                     17                     18
                      A                      A                      A
 Frequencies --    845.3801               905.3932               930.8835
 Red. masses --      2.7239                 1.7547                 2.3372
 Frc consts  --      1.1469                 0.8475                 1.1933
 IR Inten    --      2.1828                 6.2196                 0.9589

                     19                     20                     21
                      A                      A                      A
 Frequencies --    952.2003               958.8019               990.7809
 Red. masses --      1.5124                 1.9015                 1.7379
 Frc consts  --      0.8079                 1.0299                 1.0051
 IR Inten    --      4.3586                 9.1991                11.0311

                     22                     23                     24
                      A                      A                      A
 Frequencies --   1022.5676              1089.9441              1141.7624
 Red. masses --      1.8632                 2.8821                 2.9998
 Frc consts  --      1.1479                 2.0173                 2.3040
 IR Inten    --      0.5086                 0.6896                82.1790

                     25                     26                     27
                      A                      A                      A
 Frequencies --   1161.6580              1171.1131              1200.2709
 Red. masses --      1.7123                 1.6228                 1.9364
 Frc consts  --      1.3614                 1.3113                 1.6436
 IR Inten    --     17.0355                10.2208                64.7303

                     28                     29                     30
                      A                      A                      A
 Frequencies --   1238.1135              1261.1942              1294.7255
 Red. masses --      1.5075                 1.5429                 1.3470
 Frc consts  --      1.3615                 1.4460                 1.3304
 IR Inten    --     20.8453                 9.2741                 7.9954

                     31                     32                     33
                      A                      A                      A
 Frequencies --   1310.0979              1334.1649              1372.0811
 Red. masses --      1.4008                 1.2515                 1.3482
 Frc consts  --      1.4165                 1.3125                 1.4954
 IR Inten    --      5.2090                 1.8485                10.2875

                     34                     35                     36
                      A                      A                      A
 Frequencies --   1387.6997              1450.2960              1451.3497
 Red. masses --      1.5894                 1.0843                 1.0880
 Frc consts  --      1.8034                 1.3437                 1.3502
 IR Inten    --     41.9458                18.0573                 1.9074

                     37                     38                     39
                      A                      A                      A
 Frequencies --   1461.5663              1474.8722              1497.8824
 Red. masses --      1.0555                 1.0515                 1.0944
 Frc consts  --      1.3284                 1.3477                 1.4468
 IR Inten    --      7.4475                 8.2705                 3.4666

                     40                     41                     42
                      A                      A                      A
 Frequencies --   1809.6005              1849.4238              3031.5959
 Red. masses --     10.4778                12.6967                 1.0544
 Frc consts  --     20.2156                25.5867                 5.7094
 IR Inten    --    125.3906               243.6566                 1.2344

                     43                     44                     45
                      A                      A                      A
 Frequencies --   3035.5658              3036.4527              3043.1392
 Red. masses --      1.0686                 1.0638                 1.0648
 Frc consts  --      5.8015                 5.7791                 5.8098
 IR Inten    --      7.6942                10.5468                21.0758

                     46                     47                     48
                      A                      A                      A
 Frequencies --   3050.2820              3093.1470              3101.8564
 Red. masses --      1.0630                 1.0976                 1.0983
 Frc consts  --      5.8271                 6.1869                 6.2262
 IR Inten    --     18.0123                 6.2513                17.7384

                     49                     50                     51
                      A                      A                      A
 Frequencies --   3111.1145              3114.2586              3153.8715
 Red. masses --      1.0988                 1.0968                 1.1017
 Frc consts  --      6.2664                 6.2676                 6.4567
 IR Inten    --     16.7958                 8.3041                10.1610

 - Thermochemistry -
 -------------------
 Temperature   298.150 Kelvin.  Pressure   1.00000 Atm.
 Atom     1 has atomic number  6 and mass  12.00000

 Molecular mass:   126.06808 amu.
 Principal axes and moments of inertia in atomic units:
                           1         2         3
     Eigenvalues --   488.879461865.437052101.39074
           X            0.99984   0.00347  -0.01739
           Y           -0.00302   0.99966   0.02586
           Z            0.01748  -0.02581   0.99951
 This molecule is an asymmetric top.
 Rotational symmetry number  1.
 Warning -- assumption of classical behavior for rotation
           may cause significant error
 Rotational temperatures (Kelvin)      0.17717     0.04643     0.04122
 Rotational constants (GHZ):           3.69159     0.96746     0.85883
 Zero-point vibrational energy     414496.8 (Joules/Mol)
                                   99.06712 (Kcal/Mol)
 Warning -- explicit consideration of  13 degrees of freedom as
           vibrations may cause significant error
 Vibrational temperatures:     51.29   113.32   194.87   205.39   257.41
          (Kelvin)            412.85   457.26   645.05   693.04   798.78
                              821.90   851.08   866.92  1050.24  1160.53
                             1216.31  1302.66  1339.33  1370.00  1379.50
                             1425.51  1471.24  1568.18  1642.74  1671.36
                             1684.97  1726.92  1781.37  1814.57  1862.82
                             1884.94  1919.56  1974.12  1996.59  2086.65
                             2088.17  2102.87  2122.01  2155.12  2603.61
                             2660.91  4361.78  4367.50  4368.77  4378.39
                             4388.67  4450.34  4462.87  4476.19  4480.72
                             4537.71

 Zero-point correction=                           0.157874 (Hartree/Particle)
 Thermal correction to Energy=                    0.167004
 Thermal correction to Enthalpy=                  0.167948
 Thermal correction to Gibbs Free Energy=         0.122848
 Sum of electronic and zero-point Energies=           -423.086988
 Sum of electronic and thermal Energies=              -423.077857
 Sum of electronic and thermal Enthalpies=            -423.076913
 Sum of electronic and thermal Free Energies=         -423.122013

                     E (Thermal)             CV                S
                      KCal/Mol        Cal/Mol-Kelvin    Cal/Mol-Kelvin
 Total                  104.797             33.101             94.922
 Electronic               0.000              0.000              0.000
 Translational            0.889              2.981             40.409
 Rotational               0.889              2.981             29.040
 Vibrational            103.019             27.140             25.473
 Vibration     1          0.594              1.982              5.487
 Vibration     2          0.600              1.963              3.922
 Vibration     3          0.613              1.918              2.867
 Vibration     4          0.616              1.910              2.767
 Vibration     5          0.629              1.868              2.340
 Vibration     6          0.684              1.698              1.492
 Vibration     7          0.704              1.640              1.321
 Vibration     8          0.807              1.365              0.801
 Vibration     9          0.838              1.291              0.706
 Vibration    10          0.911              1.128              0.534
 Vibration    11          0.927              1.093              0.502
 Vibration    12          0.949              1.050              0.464
 Vibration    13          0.961              1.026              0.445

 Optimization completed.
    -- Stationary point found.
 Normal termination of Gaussian 09 at Mon Jan 27 15:05:09 2020.
