 Gaussian 09, Revision D.01,
 Gaussian 09:  ES64L-G09RevD.01 24-Apr-2013

 -----------------------------
 # b3lyp 6-31G(2df,p) opt Freq
 -----------------------------

 -----
 titel
 -----
 Symbolic Z-matrix:
 Charge =  0 Multiplicity = 1

 SCF Done:  E(RB3LYP) =  -423.117719477     A.U. after   13 cycles
 Optimization completed.
    -- Stationary point found.
 Normal termination of Gaussian 09 at Tue Jan 28 12:48:11 2020.

 ----------------------------------------------------------------------
 #N Geom=AllCheck Guess=TCheck SCRF=Check GenChk RB3LYP/6-31G(2df,p) Fr
 eq
 ----------------------------------------------------------------------

 Structure from the checkpoint file:  "/scratch/puck/g09_a2d4805d-3121-46bb-a83e-138d40d21c29/Gau-10927.chk"
 -----
 titel
 -----
 Charge =  0 Multiplicity = 1

                         Standard orientation:
 ---------------------------------------------------------------------
 Center     Atomic      Atomic             Coordinates (Angstroms)
 Number     Number       Type             X           Y           Z
 ---------------------------------------------------------------------
      1          8           0       -2.988025    0.144135    0.349032
      2          6           0       -1.928881    0.015718   -0.589675
      3          6           0       -0.720053   -0.717677   -0.023517
      4          6           0        0.074188    0.104584    0.993583
      5          6           0        1.562318   -0.357944    0.902961
      6          6           0        1.619848   -1.438730   -0.173414
      7          6           0        0.542756   -0.615306   -0.930810
      8          6           0        0.987932    0.654581   -0.055705
      9          8           0        1.277659    1.960930   -0.345167
     10          1           0       -2.683660    0.727316    1.051273
     11          1           0       -2.346615   -0.553233   -1.427912
     12          1           0       -1.617798    0.998030   -0.979878
     13          1           0       -1.009751   -1.732316    0.276138
     14          1           0       -0.270829    0.599214    1.893851
     15          1           0        2.228947   -0.188925    1.739184
     16          1           0        2.582768   -1.436904   -0.692774
     17          1           0        1.352518   -2.466098    0.097365
     18          1           0        0.451200   -0.665101   -2.014856
     19          1           0        2.167499    2.006142   -0.713849
 ---------------------------------------------------------------------

 SCF Done:  E(RB3LYP) =  -423.117719477     A.U. after    1 cycles

 The electronic state is 1-A.
 Alpha  occ. eigenvalues --  -19.16077 -19.12708 -10.24021 -10.21852 -10.19302
 Alpha  occ. eigenvalues --  -10.19115 -10.18986 -10.18639 -10.18492  -1.04517
 Alpha  occ. eigenvalues --   -1.00765  -0.92307  -0.74555  -0.71742  -0.64757
 Alpha  occ. eigenvalues --   -0.61703  -0.56693  -0.53526  -0.52062  -0.49978
 Alpha  occ. eigenvalues --   -0.46579  -0.44871  -0.42753  -0.41178  -0.41055
 Alpha  occ. eigenvalues --   -0.38308  -0.36093  -0.34232  -0.32472  -0.31373
 Alpha  occ. eigenvalues --   -0.30272  -0.26144  -0.25234  -0.23799
 Alpha virt. eigenvalues --    0.06783   0.07824   0.10441   0.11379   0.11905
 Alpha virt. eigenvalues --    0.13144   0.13747   0.15625   0.16375   0.16905
 Alpha virt. eigenvalues --    0.18005   0.19520   0.20638   0.21952   0.22066

 Mulliken charges:
               1
     1  O   -0.425001
     2  C   -0.088809
     3  C   -0.000680
     4  C   -0.120171
     5  C   -0.163050
     6  C   -0.236161
     7  C   -0.153984
     8  C    0.375872
     9  O   -0.457008
    10  H    0.283015
    11  H    0.103903
    12  H    0.096107
    13  H    0.067230
    14  H    0.081711
    15  H    0.088318
    16  H    0.093109
    17  H    0.093690
    18  H    0.071150
    19  H    0.290760
 Sum of Mulliken charges =   0.00000

 Dipole moment (field-independent basis, Debye):
    X=              2.6689    Y=              0.1280    Z=             -0.1661  Tot=              2.6771
 Quadrupole moment (field-independent basis, Debye-Ang):
   XX=            -55.6815   YY=            -54.4978   ZZ=            -49.9666
   XY=              0.4402   XZ=             -1.9944   YZ=              1.2941

  Exact polarizability:  83.336  -0.632  71.510  -0.171   1.805  69.611
 Approx polarizability: 113.717   1.291 108.643  -2.527   0.799 108.043

                      1                      2                      3
                      A                      A                      A
 Frequencies --     87.1967               153.0957               190.3613
 Red. masses --      4.4764                 3.5390                 2.3597
 Frc consts  --      0.0201                 0.0489                 0.0504
 IR Inten    --      1.8603                 0.2528                 1.4808

                      4                      5                      6
                      A                      A                      A
 Frequencies --    287.7074               305.9661               323.2109
 Red. masses --      1.9465                 1.3543                 1.3758
 Frc consts  --      0.0949                 0.0747                 0.0847
 IR Inten    --     59.0119                72.8229                40.5002

                      7                      8                      9
                      A                      A                      A
 Frequencies --    382.1689               390.6808               474.7203
 Red. masses --      3.1383                 3.2261                 2.2807
 Frc consts  --      0.2701                 0.2901                 0.3028
 IR Inten    --     17.0052                32.0149                 8.6858

                     10                     11                     12
                      A                      A                      A
 Frequencies --    528.8797               618.3854               725.6136
 Red. masses --      3.1866                 3.4907                 4.1519
 Frc consts  --      0.5252                 0.7865                 1.2880
 IR Inten    --      3.5216                10.3848                 3.8341

                     13                     14                     15
                      A                      A                      A
 Frequencies --    739.6587               843.1113               845.3353
 Red. masses --      2.9475                 2.6910                 1.8716
 Frc consts  --      0.9501                 1.1270                 0.7880
 IR Inten    --      0.6962                 3.8923                 7.5660

                     16                     17                     18
                      A                      A                      A
 Frequencies --    899.8760               922.7381               937.7030
 Red. masses --      1.8839                 1.5821                 2.0876
 Frc consts  --      0.8988                 0.7936                 1.0815
 IR Inten    --      2.9191                21.6311                 9.8846

                     19                     20                     21
                      A                      A                      A
 Frequencies --    962.2307               981.4982              1020.5885
 Red. masses --      1.7783                 1.6162                 2.3466
 Frc consts  --      0.9701                 0.9173                 1.4401
 IR Inten    --      4.5476                 0.2452                10.4449

                     22                     23                     24
                      A                      A                      A
 Frequencies --   1033.7147              1049.6213              1072.8573
 Red. masses --      2.6291                 1.6295                 2.9954
 Frc consts  --      1.6552                 1.0577                 2.0314
 IR Inten    --     30.0850                15.8537                43.5665

                     25                     26                     27
                      A                      A                      A
 Frequencies --   1084.4521              1106.8884              1125.8084
 Red. masses --      1.8220                 2.1251                 1.5908
 Frc consts  --      1.2625                 1.5340                 1.1879
 IR Inten    --     32.1598                 4.5269                 7.5909

                     28                     29                     30
                      A                      A                      A
 Frequencies --   1148.7381              1192.8444              1212.6961
 Red. masses --      1.6550                 1.5122                 1.5016
 Frc consts  --      1.2867                 1.2678                 1.3011
 IR Inten    --      4.6279                12.0681                14.7551

                     31                     32                     33
                      A                      A                      A
 Frequencies --   1217.3915              1244.3131              1271.7611
 Red. masses --      1.9554                 1.4891                 1.5883
 Frc consts  --      1.7075                 1.3584                 1.5135
 IR Inten    --     11.4041                 6.7711                 4.0786

                     34                     35                     36
                      A                      A                      A
 Frequencies --   1289.4834              1307.8302              1362.8672
 Red. masses --      1.6700                 1.4012                 1.5827
 Frc consts  --      1.6361                 1.4121                 1.7320
 IR Inten    --     45.4391                84.7363                 7.2803

                     37                     38                     39
                      A                      A                      A
 Frequencies --   1399.7081              1420.3587              1483.9857
 Red. masses --      1.2479                 1.3212                 2.7683
 Frc consts  --      1.4405                 1.5704                 3.5919
 IR Inten    --     15.7394                55.2401                47.7840

                     40                     41                     42
                      A                      A                      A
 Frequencies --   1499.9941              1503.4536              2980.0515
 Red. masses --      1.0865                 1.3212                 1.0680
 Frc consts  --      1.4403                 1.7595                 5.5884
 IR Inten    --      1.1846                15.7802                34.1940

                     43                     44                     45
                      A                      A                      A
 Frequencies --   3029.7710              3039.0269              3065.7157
 Red. masses --      1.0786                 1.0620                 1.0954
 Frc consts  --      5.8336                 5.7789                 6.0657
 IR Inten    --     21.5067                69.7608                47.3498

                     46                     47                     48
                      A                      A                      A
 Frequencies --   3091.6586              3127.5542              3183.4356
 Red. masses --      1.1069                 1.0908                 1.0917
 Frc consts  --      6.2336                 6.2862                 6.5187
 IR Inten    --     32.2473                30.4267                 8.8192

                     49                     50                     51
                      A                      A                      A
 Frequencies --   3199.3469              3781.8162              3821.0974
 Red. masses --      1.0939                 1.0660                 1.0660
 Frc consts  --      6.5969                 8.9830                 9.1707
 IR Inten    --     18.3140                22.1514                11.7882

 - Thermochemistry -
 -------------------
 Temperature   298.150 Kelvin.  Pressure   1.00000 Atm.
 Atom     1 has atomic number  8 and mass  15.99491

 Molecular mass:   126.06808 amu.
 Principal axes and moments of inertia in atomic units:
                           1         2         3
     Eigenvalues --   637.367501383.443791618.08020
           X            0.99980  -0.01963   0.00353
           Y            0.01954   0.99953   0.02363
           Z           -0.00399  -0.02356   0.99971
 This molecule is an asymmetric top.
 Rotational symmetry number  1.
 Warning -- assumption of classical behavior for rotation
           may cause significant error
 Rotational temperatures (Kelvin)      0.13589     0.06261     0.05353
 Rotational constants (GHZ):           2.83156     1.30453     1.11536
 Zero-point vibrational energy     418507.4 (Joules/Mol)
                                  100.02566 (Kcal/Mol)
 Warning -- explicit consideration of  11 degrees of freedom as
           vibrations may cause significant error
 Vibrational temperatures:    125.46   220.27   273.89   413.95   440.22
          (Kelvin)            465.03   549.86   562.10   683.02   760.94
                              889.72  1043.99  1064.20  1213.05  1216.25
                             1294.72  1327.61  1349.14  1384.43  1412.16
                             1468.40  1487.28  1510.17  1543.60  1560.28
                             1592.56  1619.79  1652.78  1716.23  1744.80
                             1751.55  1790.29  1829.78  1855.28  1881.67
                             1960.86  2013.87  2043.58  2135.12  2158.15
                             2163.13  4287.62  4359.16  4372.48  4410.88
                             4448.20  4499.85  4580.25  4603.14  5441.18
                             5497.70

 Zero-point correction=                           0.159401 (Hartree/Particle)
 Thermal correction to Energy=                    0.167611
 Thermal correction to Enthalpy=                  0.168555
 Thermal correction to Gibbs Free Energy=         0.126730
 Sum of electronic and zero-point Energies=           -422.958318
 Sum of electronic and thermal Energies=              -422.950109
 Sum of electronic and thermal Enthalpies=            -422.949165
 Sum of electronic and thermal Free Energies=         -422.990989

                     E (Thermal)             CV                S
                      KCal/Mol        Cal/Mol-Kelvin    Cal/Mol-Kelvin
 Total                  105.177             32.266             88.027
 Electronic               0.000              0.000              0.000
 Translational            0.889              2.981             40.409
 Rotational               0.889              2.981             28.747
 Vibrational            103.400             26.304             18.871
 Vibration     1          0.601              1.958              3.722
 Vibration     2          0.619              1.899              2.633
 Vibration     3          0.634              1.853              2.224
 Vibration     4          0.685              1.697              1.487
 Vibration     5          0.696              1.662              1.384
 Vibration     6          0.708              1.629              1.294
 Vibration     7          0.752              1.508              1.031
 Vibration     8          0.758              1.490              0.998
 Vibration     9          0.831              1.306              0.724
 Vibration    10          0.884              1.186              0.590
 Vibration    11          0.978              0.993              0.419

 Optimization completed.
    -- Stationary point found.
 Normal termination of Gaussian 09 at Tue Jan 28 14:49:07 2020.
