 Gaussian 09, Revision D.01,
 Gaussian 09:  ES64L-G09RevD.01 24-Apr-2013

 -----------------------------
 # b3lyp 6-31G(2df,p) opt Freq
 -----------------------------

 -----
 titel
 -----
 Symbolic Z-matrix:
 Charge =  0 Multiplicity = 1

 SCF Done:  E(RB3LYP) =  -423.126683402     A.U. after   14 cycles
 Optimization completed.
    -- Stationary point found.
 Normal termination of Gaussian 09 at Tue Jan 28 08:12:07 2020.

 ----------------------------------------------------------------------
 #N Geom=AllCheck Guess=TCheck SCRF=Check GenChk RB3LYP/6-31G(2df,p) Fr
 eq
 ----------------------------------------------------------------------

 Structure from the checkpoint file:  "/scratch/puck/g09_473535d7-09d4-45a0-b658-e5f49ef55507/Gau-101897.chk"
 -----
 titel
 -----
 Charge =  0 Multiplicity = 1

                         Standard orientation:
 ---------------------------------------------------------------------
 Center     Atomic      Atomic             Coordinates (Angstroms)
 Number     Number       Type             X           Y           Z
 ---------------------------------------------------------------------
      1          6           0       -2.085676    1.917785   -0.174533
      2          6           0       -1.978666    0.686341    0.730278
      3          6           0       -1.095974   -0.400930    0.139293
      4          6           0       -1.466225   -1.824565    0.291431
      5          8           0       -1.701853   -1.149276   -0.937725
      6          6           0        0.297791   -0.067413   -0.047883
      7          6           0        1.454808    0.237177   -0.196787
      8          6           0        2.870192    0.579176   -0.333150
      9          8           0        3.741976   -0.324318    0.331367
     10          1           0       -2.737580    2.672884    0.273835
     11          1           0       -1.103705    2.371117   -0.339569
     12          1           0       -2.500037    1.643265   -1.149010
     13          1           0       -1.575552    0.968450    1.710301
     14          1           0       -2.972054    0.257316    0.898814
     15          1           0       -0.687204   -2.584426    0.268516
     16          1           0       -2.353623   -2.075979    0.871944
     17          1           0        3.159600    0.549728   -1.389500
     18          1           0        3.026966    1.614694    0.009074
     19          1           0        3.444705   -0.393720    1.244564
 ---------------------------------------------------------------------

 SCF Done:  E(RB3LYP) =  -423.126683402     A.U. after    1 cycles

 The electronic state is 1-A.
 Alpha  occ. eigenvalues --  -19.15663 -19.14447 -10.26411 -10.25614 -10.24032
 Alpha  occ. eigenvalues --  -10.19411 -10.18625 -10.18373 -10.17662  -1.07716
 Alpha  occ. eigenvalues --   -1.02627  -0.79670  -0.76608  -0.71198  -0.67602
 Alpha  occ. eigenvalues --   -0.64717  -0.60766  -0.53369  -0.51432  -0.48795
 Alpha  occ. eigenvalues --   -0.47395  -0.45022  -0.44669  -0.42310  -0.40114
 Alpha  occ. eigenvalues --   -0.38783  -0.36322  -0.35699  -0.34885  -0.32729
 Alpha  occ. eigenvalues --   -0.29101  -0.27710  -0.26593  -0.25618
 Alpha virt. eigenvalues --    0.01323   0.03948   0.09137   0.09934   0.11080
 Alpha virt. eigenvalues --    0.12156   0.12772   0.14348   0.15308   0.16144
 Alpha virt. eigenvalues --    0.17288   0.17825   0.19151   0.19970   0.20539

 Mulliken charges:
               1
     1  C   -0.380447
     2  C   -0.262147
     3  C    0.210697
     4  C   -0.218336
     5  O   -0.261107
     6  C    0.013805
     7  C    0.118136
     8  C   -0.200159
     9  O   -0.399481
    10  H    0.114040
    11  H    0.127094
    12  H    0.134038
    13  H    0.105780
    14  H    0.106831
    15  H    0.122548
    16  H    0.114721
    17  H    0.146686
    18  H    0.119807
    19  H    0.287496
 Sum of Mulliken charges =   0.00000

 Dipole moment (field-independent basis, Debye):
    X=             -0.6021    Y=              0.8586    Z=              2.3205  Tot=              2.5465
 Quadrupole moment (field-independent basis, Debye-Ang):
   XX=            -56.8540   YY=            -51.0332   ZZ=            -52.0953
   XY=              2.7571   XZ=             -1.6666   YZ=             -2.8020

  Exact polarizability: 106.632   7.686  77.895  -4.271  -3.336  60.698
 Approx polarizability: 151.086  17.375 106.793  -4.371  -3.607  94.503

                      1                      2                      3
                      A                      A                      A
 Frequencies --     22.7922                66.7569                95.8327
 Red. masses --      3.0131                 3.2036                 2.8376
 Frc consts  --      0.0009                 0.0084                 0.0154
 IR Inten    --      1.5466                 0.2318                 0.5074

                      4                      5                      6
                      A                      A                      A
 Frequencies --    107.8349               182.5562               220.3273
 Red. masses --      3.3082                 4.1886                 1.1812
 Frc consts  --      0.0227                 0.0822                 0.0338
 IR Inten    --      0.6048                 1.9565                 0.8767

                      7                      8                      9
                      A                      A                      A
 Frequencies --    253.8460               279.0142               339.3004
 Red. masses --      2.3423                 2.0391                 2.5275
 Frc consts  --      0.0889                 0.0935                 0.1714
 IR Inten    --     29.7129                41.1242                 2.4143

                     10                     11                     12
                      A                      A                      A
 Frequencies --    345.4502               428.6103               488.8182
 Red. masses --      1.8115                 3.5640                 4.7321
 Frc consts  --      0.1274                 0.3858                 0.6662
 IR Inten    --     63.1553                 4.4173                 2.9942

                     13                     14                     15
                      A                      A                      A
 Frequencies --    552.4946               597.9977               641.6866
 Red. masses --      6.4986                 4.8967                 4.4593
 Frc consts  --      1.1688                 1.0317                 1.0818
 IR Inten    --     12.2349                 4.0467                13.6639

                     16                     17                     18
                      A                      A                      A
 Frequencies --    764.7922               825.7616               860.5249
 Red. masses --      1.8675                 1.7780                 2.1267
 Frc consts  --      0.6436                 0.7143                 0.9279
 IR Inten    --      1.8439                12.0089                17.8603

                     19                     20                     21
                      A                      A                      A
 Frequencies --    943.6231               979.3875               996.1017
 Red. masses --      3.6225                 1.7736                 1.6379
 Frc consts  --      1.9005                 1.0024                 0.9575
 IR Inten    --     10.3486                59.8949                 1.6522

                     22                     23                     24
                      A                      A                      A
 Frequencies --   1026.4743              1060.3291              1093.8504
 Red. masses --      3.6815                 3.5126                 2.2322
 Frc consts  --      2.2854                 2.3268                 1.5736
 IR Inten    --     36.0788                30.0463                31.3524

                     25                     26                     27
                      A                      A                      A
 Frequencies --   1103.7186              1137.4091              1168.7952
 Red. masses --      1.6588                 1.3226                 1.3385
 Frc consts  --      1.1906                 1.0081                 1.0773
 IR Inten    --      1.6560                 3.8456                 1.2861

                     28                     29                     30
                      A                      A                      A
 Frequencies --   1214.3473              1263.6638              1294.2246
 Red. masses --      1.0890                 2.0182                 1.7781
 Frc consts  --      0.9462                 1.8988                 1.7548
 IR Inten    --     13.9649                25.0489                14.6305

                     31                     32                     33
                      A                      A                      A
 Frequencies --   1350.7236              1359.6941              1392.8502
 Red. masses --      1.7829                 1.2446                 2.2087
 Frc consts  --      1.9165                 1.3557                 2.5246
 IR Inten    --      9.6538                 6.9167                16.0172

                     34                     35                     36
                      A                      A                      A
 Frequencies --   1409.2989              1416.4363              1471.2746
 Red. masses --      1.2400                 1.2357                 1.0797
 Frc consts  --      1.4510                 1.4607                 1.3770
 IR Inten    --      5.0514               104.0847                 1.8476

                     37                     38                     39
                      A                      A                      A
 Frequencies --   1488.9196              1496.5998              1508.3319
 Red. masses --      1.0775                 1.0385                 1.0603
 Frc consts  --      1.4074                 1.3704                 1.4213
 IR Inten    --      0.7798                 4.1914                 4.3897

                     40                     41                     42
                      A                      A                      A
 Frequencies --   1520.0282              2353.0269              2977.2413
 Red. masses --      1.2264                11.9202                 1.0712
 Frc consts  --      1.6695                38.8854                 5.5943
 IR Inten    --      1.0544                 0.8316                45.5706

                     43                     44                     45
                      A                      A                      A
 Frequencies --   3035.6679              3043.5166              3064.5577
 Red. masses --      1.0602                 1.0345                 1.0884
 Frc consts  --      5.7563                 5.6460                 6.0224
 IR Inten    --     18.0632                21.2117                14.1317

                     46                     47                     48
                      A                      A                      A
 Frequencies --   3077.7855              3080.4886              3115.4442
 Red. masses --      1.0951                 1.0566                 1.1017
 Frc consts  --      6.1121                 5.9075                 6.3004
 IR Inten    --      7.2968                32.1910                29.2548

                     49                     50                     51
                      A                      A                      A
 Frequencies --   3120.0095              3173.2225              3817.0264
 Red. masses --      1.1027                 1.1195                 1.0663
 Frc consts  --      6.3245                 6.6415                 9.1533
 IR Inten    --     25.7435                20.8151                20.3128

 - Thermochemistry -
 -------------------
 Temperature   298.150 Kelvin.  Pressure   1.00000 Atm.
 Atom     1 has atomic number  6 and mass  12.00000

 Molecular mass:   126.06808 amu.
 Principal axes and moments of inertia in atomic units:
                           1         2         3
     Eigenvalues --   660.464892263.470592673.36157
           X            0.99990  -0.01046  -0.00898
           Y            0.01017   0.99944  -0.03178
           Z            0.00930   0.03169   0.99945
 This molecule is an asymmetric top.
 Rotational symmetry number  1.
 Warning -- assumption of classical behavior for rotation
           may cause significant error
 Rotational temperatures (Kelvin)      0.13114     0.03827     0.03240
 Rotational constants (GHZ):           2.73253     0.79733     0.67508
 Zero-point vibrational energy     410489.4 (Joules/Mol)
                                   98.10932 (Kcal/Mol)
 Warning -- explicit consideration of  14 degrees of freedom as
           vibrations may cause significant error
 Vibrational temperatures:     32.79    96.05   137.88   155.15   262.66
          (Kelvin)            317.00   365.23   401.44   488.18   497.03
                              616.67   703.30   794.92   860.38   923.24
                             1100.36  1188.09  1238.10  1357.66  1409.12
                             1433.17  1476.87  1525.58  1573.80  1588.00
                             1636.48  1681.63  1747.17  1818.13  1862.10
                             1943.39  1956.29  2004.00  2027.66  2037.93
                             2116.83  2142.22  2153.27  2170.15  2186.98
                             3385.48  4283.58  4367.64  4378.94  4409.21
                             4428.24  4432.13  4482.42  4488.99  4565.55
                             5491.84

 Zero-point correction=                           0.156347 (Hartree/Particle)
 Thermal correction to Energy=                    0.166728
 Thermal correction to Enthalpy=                  0.167672
 Thermal correction to Gibbs Free Energy=         0.119202
 Sum of electronic and zero-point Energies=           -422.970336
 Sum of electronic and thermal Energies=              -422.959955
 Sum of electronic and thermal Enthalpies=            -422.959011
 Sum of electronic and thermal Free Energies=         -423.007482

                     E (Thermal)             CV                S
                      KCal/Mol        Cal/Mol-Kelvin    Cal/Mol-Kelvin
 Total                  104.624             36.191            102.015
 Electronic               0.000              0.000              0.000
 Translational            0.889              2.981             40.409
 Rotational               0.889              2.981             29.770
 Vibrational            102.846             30.230             31.836
 Vibration     1          0.593              1.985              6.375
 Vibration     2          0.598              1.970              4.247
 Vibration     3          0.603              1.952              3.537
 Vibration     4          0.606              1.943              3.308
 Vibration     5          0.630              1.864              2.302
 Vibration     6          0.647              1.810              1.956
 Vibration     7          0.665              1.756              1.704
 Vibration     8          0.679              1.712              1.540
 Vibration     9          0.719              1.597              1.215
 Vibration    10          0.724              1.585              1.187
 Vibration    11          0.790              1.408              0.863
 Vibration    12          0.845              1.275              0.687
 Vibration    13          0.908              1.134              0.539
 Vibration    14          0.956              1.036              0.453

 Optimization completed.
    -- Stationary point found.
 Normal termination of Gaussian 09 at Tue Jan 28 08:46:30 2020.
