 Gaussian 09, Revision D.01,
 Gaussian 09:  ES64L-G09RevD.01 24-Apr-2013

 -----------------------------
 # b3lyp 6-31G(2df,p) opt Freq
 -----------------------------

 -----
 titel
 -----
 Symbolic Z-matrix:
 Charge =  0 Multiplicity = 1

 SCF Done:  E(RB3LYP) =  -423.211111276     A.U. after   14 cycles
 Optimization completed.
    -- Stationary point found.
 Normal termination of Gaussian 09 at Tue Jan 28 03:55:24 2020.

 ----------------------------------------------------------------------
 #N Geom=AllCheck Guess=TCheck SCRF=Check GenChk RB3LYP/6-31G(2df,p) Fr
 eq
 ----------------------------------------------------------------------

 Structure from the checkpoint file:  "/scratch/puck/g09_79e15009-784f-4a00-bd83-b16b4f11cc5d/Gau-43543.chk"
 -----
 titel
 -----
 Charge =  0 Multiplicity = 1

                         Standard orientation:
 ---------------------------------------------------------------------
 Center     Atomic      Atomic             Coordinates (Angstroms)
 Number     Number       Type             X           Y           Z
 ---------------------------------------------------------------------
      1          8           0        2.647948   -0.732481   -0.078754
      2          6           0        1.331465   -0.250788   -0.306730
      3          6           0        1.173423    1.197264    0.204538
      4          6           0       -0.031628    1.908960   -0.358907
      5          6           0       -1.296551    1.539092   -0.156886
      6          6           0       -1.713637    0.348521    0.680392
      7          6           0       -1.167005   -0.940600    0.059200
      8          8           0       -1.872773   -1.683411   -0.580110
      9          6           0        0.309638   -1.243123    0.293217
     10          1           0        2.795997   -0.755733    0.873622
     11          1           0        1.223364   -0.248634   -1.396523
     12          1           0        1.133267    1.178708    1.305464
     13          1           0        2.087000    1.733269   -0.065707
     14          1           0        0.162865    2.766341   -0.997553
     15          1           0       -2.096519    2.090568   -0.641665
     16          1           0       -1.329699    0.449358    1.704352
     17          1           0       -2.800394    0.264609    0.724445
     18          1           0        0.473737   -1.268870    1.381930
     19          1           0        0.514757   -2.238435   -0.106398
 ---------------------------------------------------------------------

 SCF Done:  E(RB3LYP) =  -423.211111276     A.U. after    1 cycles

 The electronic state is 1-A.
 Alpha  occ. eigenvalues --  -19.14427 -19.12917 -10.27176 -10.24759 -10.19705
 Alpha  occ. eigenvalues --  -10.19639 -10.19534 -10.19326 -10.19258  -1.04062
 Alpha  occ. eigenvalues --   -1.02793  -0.83020  -0.76710  -0.75432  -0.67473
 Alpha  occ. eigenvalues --   -0.63027  -0.55713  -0.52402  -0.50538  -0.48446
 Alpha  occ. eigenvalues --   -0.48113  -0.45678  -0.43437  -0.42025  -0.40812
 Alpha  occ. eigenvalues --   -0.39937  -0.38598  -0.36589  -0.34720  -0.34279
 Alpha  occ. eigenvalues --   -0.32804  -0.29520  -0.25918  -0.23485
 Alpha virt. eigenvalues --   -0.01760   0.00697   0.06887   0.08670   0.09884
 Alpha virt. eigenvalues --    0.12953   0.13888   0.14303   0.15521   0.17757
 Alpha virt. eigenvalues --    0.18326   0.19124   0.19414   0.22169   0.22919

 Mulliken charges:
               1
     1  O   -0.420799
     2  C    0.122689
     3  C   -0.281015
     4  C   -0.054371
     5  C   -0.062890
     6  C   -0.343248
     7  C    0.381461
     8  O   -0.297860
     9  C   -0.310486
    10  H    0.278014
    11  H    0.107677
    12  H    0.096200
    13  H    0.115868
    14  H    0.098044
    15  H    0.103953
    16  H    0.114175
    17  H    0.124398
    18  H    0.097280
    19  H    0.130908
 Sum of Mulliken charges =   0.00000

 Dipole moment (field-independent basis, Debye):
    X=              0.8839    Y=              2.0886    Z=              2.2897  Tot=              3.2228
 Quadrupole moment (field-independent basis, Debye-Ang):
   XX=            -58.2128   YY=            -56.2581   ZZ=            -51.1381
   XY=             -3.3157   XZ=              1.2687   YZ=             -4.2589

  Exact polarizability:  91.823   2.766  78.525   1.564  -2.624  61.656
 Approx polarizability: 136.701  11.005 112.002   3.863  -0.265 100.645

                      1                      2                      3
                      A                      A                      A
 Frequencies --     91.3847               104.4310               167.6098
 Red. masses --      4.5846                 2.9293                 2.9418
 Frc consts  --      0.0226                 0.0188                 0.0487
 IR Inten    --      1.8164                 1.0578                 2.6205

                      4                      5                      6
                      A                      A                      A
 Frequencies --    283.3597               294.1771               305.5242
 Red. masses --      1.7027                 2.4567                 2.1760
 Frc consts  --      0.0805                 0.1253                 0.1197
 IR Inten    --     23.2490                 9.0059                34.7645

                      7                      8                      9
                      A                      A                      A
 Frequencies --    365.2537               426.5200               451.2301
 Red. masses --      4.1252                 1.9903                 3.7883
 Frc consts  --      0.3243                 0.2133                 0.4545
 IR Inten    --     37.9353                 0.6360                 3.4854

                     10                     11                     12
                      A                      A                      A
 Frequencies --    465.1843               529.8663               607.2587
 Red. masses --      2.6554                 2.4986                 3.9500
 Frc consts  --      0.3386                 0.4133                 0.8582
 IR Inten    --      0.6521                 6.8508                 4.3285

                     13                     14                     15
                      A                      A                      A
 Frequencies --    701.0265               708.5418               852.7216
 Red. masses --      2.3130                 1.7421                 1.7825
 Frc consts  --      0.6697                 0.5153                 0.7637
 IR Inten    --     18.3123                19.5692                 3.2264

                     16                     17                     18
                      A                      A                      A
 Frequencies --    878.5186               888.3548               921.9611
 Red. masses --      2.8055                 3.0717                 3.1951
 Frc consts  --      1.2757                 1.4282                 1.6002
 IR Inten    --      2.9955                 2.1048                 0.8384

                     19                     20                     21
                      A                      A                      A
 Frequencies --    958.7022               993.2565              1016.3800
 Red. masses --      1.7788                 1.2733                 2.0346
 Frc consts  --      0.9633                 0.7401                 1.2384
 IR Inten    --     16.8639                 2.1264                42.3651

                     22                     23                     24
                      A                      A                      A
 Frequencies --   1032.6524              1061.0527              1097.8320
 Red. masses --      2.1894                 3.5125                 3.4399
 Frc consts  --      1.3756                 2.3299                 2.4427
 IR Inten    --      7.0998                89.4924                 5.5660

                     25                     26                     27
                      A                      A                      A
 Frequencies --   1139.2346              1174.5741              1208.6409
 Red. masses --      1.8735                 1.1838                 1.2167
 Frc consts  --      1.4326                 0.9623                 1.0472
 IR Inten    --     20.5144                 5.6381                20.3896

                     28                     29                     30
                      A                      A                      A
 Frequencies --   1246.4751              1256.8053              1280.9797
 Red. masses --      1.5168                 1.2597                 1.3428
 Frc consts  --      1.3885                 1.1724                 1.2983
 IR Inten    --     55.1236                 7.2514                19.6572

                     31                     32                     33
                      A                      A                      A
 Frequencies --   1300.0310              1307.1083              1354.8160
 Red. masses --      1.3128                 1.4356                 1.4215
 Frc consts  --      1.3073                 1.4452                 1.5373
 IR Inten    --      4.5121                 1.6236                 1.5369

                     34                     35                     36
                      A                      A                      A
 Frequencies --   1364.1533              1407.6683              1424.5243
 Red. masses --      1.3651                 1.4251                 1.2205
 Frc consts  --      1.4967                 1.6638                 1.4592
 IR Inten    --     12.3630                12.8008                52.2934

                     37                     38                     39
                      A                      A                      A
 Frequencies --   1465.2798              1472.8491              1488.4817
 Red. masses --      1.1043                 1.0940                 1.0916
 Frc consts  --      1.3969                 1.3982                 1.4250
 IR Inten    --      2.7355                 3.9446                 7.6404

                     40                     41                     42
                      A                      A                      A
 Frequencies --   1711.7882              1813.9721              2980.6562
 Red. masses --      6.7775                10.8181                 1.0707
 Frc consts  --     11.7008                20.9731                 5.6046
 IR Inten    --      4.8576               197.5639                21.7680

                     43                     44                     45
                      A                      A                      A
 Frequencies --   2993.8397              3018.8828              3062.8787
 Red. masses --      1.0680                 1.0673                 1.0846
 Frc consts  --      5.6400                 5.7311                 5.9948
 IR Inten    --     12.1039                16.9402                21.3555

                     46                     47                     48
                      A                      A                      A
 Frequencies --   3091.4057              3115.1226              3121.4690
 Red. masses --      1.0907                 1.0934                 1.0946
 Frc consts  --      6.1412                 6.2516                 6.2838
 IR Inten    --     17.7791                11.3587                 8.7154

                     49                     50                     51
                      A                      A                      A
 Frequencies --   3156.4197              3180.8246              3794.3113
 Red. masses --      1.0846                 1.0965                 1.0658
 Frc consts  --      6.3666                 6.5362                 9.0408
 IR Inten    --      4.5628                23.2797                15.5008

 - Thermochemistry -
 -------------------
 Temperature   298.150 Kelvin.  Pressure   1.00000 Atm.
 Atom     1 has atomic number  8 and mass  15.99491

 Molecular mass:   126.06808 amu.
 Principal axes and moments of inertia in atomic units:
                           1         2         3
     Eigenvalues --   804.421971198.192641811.76844
           X            0.99921  -0.03981  -0.00104
           Y            0.03979   0.99901  -0.01991
           Z            0.00183   0.01985   0.99980
 This molecule is an asymmetric top.
 Rotational symmetry number  1.
 Warning -- assumption of classical behavior for rotation
           may cause significant error
 Rotational temperatures (Kelvin)      0.10767     0.07229     0.04781
 Rotational constants (GHZ):           2.24353     1.50622     0.99612
 Zero-point vibrational energy     419506.4 (Joules/Mol)
                                  100.26443 (Kcal/Mol)
 Warning -- explicit consideration of  12 degrees of freedom as
           vibrations may cause significant error
 Vibrational temperatures:    131.48   150.25   241.15   407.69   423.25
          (Kelvin)            439.58   525.52   613.67   649.22   669.30
                              762.36   873.71  1008.62  1019.43  1226.87
                             1263.99  1278.14  1326.49  1379.36  1429.07
                             1462.34  1485.75  1526.62  1579.53  1639.10
                             1689.95  1738.96  1793.40  1808.26  1843.04
                             1870.45  1880.63  1949.28  1962.71  2025.32
                             2049.57  2108.21  2119.10  2141.59  2462.88
                             2609.90  4288.49  4307.46  4343.49  4406.79
                             4447.84  4481.96  4491.09  4541.38  4576.49
                             5459.16

 Zero-point correction=                           0.159782 (Hartree/Particle)
 Thermal correction to Energy=                    0.168311
 Thermal correction to Enthalpy=                  0.169255
 Thermal correction to Gibbs Free Energy=         0.126576
 Sum of electronic and zero-point Energies=           -423.051330
 Sum of electronic and thermal Energies=              -423.042801
 Sum of electronic and thermal Enthalpies=            -423.041857
 Sum of electronic and thermal Free Energies=         -423.084536

                     E (Thermal)             CV                S
                      KCal/Mol        Cal/Mol-Kelvin    Cal/Mol-Kelvin
 Total                  105.616             32.688             89.826
 Electronic               0.000              0.000              0.000
 Translational            0.889              2.981             40.409
 Rotational               0.889              2.981             28.948
 Vibrational            103.839             26.727             20.470
 Vibration     1          0.602              1.955              3.630
 Vibration     2          0.605              1.946              3.370
 Vibration     3          0.624              1.882              2.462
 Vibration     4          0.682              1.705              1.513
 Vibration     5          0.689              1.685              1.450
 Vibration     6          0.696              1.663              1.386
 Vibration     7          0.738              1.544              1.100
 Vibration     8          0.788              1.413              0.870
 Vibration     9          0.810              1.358              0.792
 Vibration    10          0.823              1.327              0.751
 Vibration    11          0.885              1.184              0.588
 Vibration    12          0.966              1.016              0.437

 Normal termination of Gaussian 09 at Tue Jan 28 04:41:12 2020.
