 Gaussian 09, Revision D.01,
 Gaussian 09:  ES64L-G09RevD.01 24-Apr-2013

 -----------------------------
 # b3lyp 6-31G(2df,p) opt Freq
 -----------------------------

 -----
 titel
 -----
 Symbolic Z-matrix:
 Charge =  0 Multiplicity = 1

 SCF Done:  E(RB3LYP) =  -423.195001528     A.U. after   14 cycles
 Optimization completed.
    -- Stationary point found.
 Normal termination of Gaussian 09 at Tue Jan 28 03:03:42 2020.

 ----------------------------------------------------------------------
 #N Geom=AllCheck Guess=TCheck SCRF=Check GenChk RB3LYP/6-31G(2df,p) Fr
 eq
 ----------------------------------------------------------------------

 Structure from the checkpoint file:  "/scratch/puck/g09_22d6a8f0-5d58-4d6b-9a61-3a7265045e67/Gau-109645.chk"
 -----
 titel
 -----
 Charge =  0 Multiplicity = 1

                         Standard orientation:
 ---------------------------------------------------------------------
 Center     Atomic      Atomic             Coordinates (Angstroms)
 Number     Number       Type             X           Y           Z
 ---------------------------------------------------------------------
      1          6           0       -2.462057    0.253829   -0.181141
      2          6           0       -1.043275   -0.077583   -0.637013
      3          6           0       -0.582900   -1.560951   -0.396192
      4          6           0        0.707575   -1.333799    0.427772
      5          6           0        0.233772   -0.243983    1.443163
      6          6           0        0.073887    0.653533    0.144473
      7          8           0        0.009552    2.031886    0.137540
      8          6           0        1.319631   -0.125143   -0.297770
      9          8           0        2.380219    0.193901   -0.754965
     10          1           0       -2.618164    0.020714    0.877047
     11          1           0       -2.675134    1.316796   -0.326994
     12          1           0       -3.193294   -0.322953   -0.757551
     13          1           0       -0.951379    0.185220   -1.696584
     14          1           0       -1.322604   -2.123953    0.181420
     15          1           0       -0.397888   -2.102132   -1.327488
     16          1           0        1.300983   -2.193636    0.727073
     17          1           0       -0.677127   -0.464536    2.001882
     18          1           0        1.023810    0.111343    2.107134
     19          1           0        0.912839    2.371421    0.133712
 ---------------------------------------------------------------------

 SCF Done:  E(RB3LYP) =  -423.195001528     A.U. after    1 cycles

 The electronic state is 1-A.
 Alpha  occ. eigenvalues --  -19.15444 -19.14123 -10.26808 -10.24604 -10.20433
 Alpha  occ. eigenvalues --  -10.20011 -10.19959 -10.19691 -10.17824  -1.05633
 Alpha  occ. eigenvalues --   -1.03604  -0.89464  -0.76618  -0.70792  -0.66615
 Alpha  occ. eigenvalues --   -0.62754  -0.56492  -0.55608  -0.51014  -0.46574
 Alpha  occ. eigenvalues --   -0.46077  -0.45453  -0.41741  -0.41424  -0.40127
 Alpha  occ. eigenvalues --   -0.37877  -0.37618  -0.37048  -0.35488  -0.34742
 Alpha  occ. eigenvalues --   -0.33418  -0.32843  -0.27271  -0.23384
 Alpha virt. eigenvalues --   -0.00746   0.07308   0.09240   0.11416   0.12708
 Alpha virt. eigenvalues --    0.13552   0.14375   0.15495   0.15802   0.16518
 Alpha virt. eigenvalues --    0.17558   0.18107   0.19093   0.21024   0.22832

 Mulliken charges:
               1
     1  C   -0.421244
     2  C    0.005296
     3  C   -0.244780
     4  C   -0.150698
     5  C   -0.309680
     6  C    0.303845
     7  O   -0.490995
     8  C    0.366844
     9  O   -0.340476
    10  H    0.115392
    11  H    0.135063
    12  H    0.115340
    13  H    0.085803
    14  H    0.107106
    15  H    0.111696
    16  H    0.089002
    17  H    0.113015
    18  H    0.114755
    19  H    0.294716
 Sum of Mulliken charges =   0.00000

 Dipole moment (field-independent basis, Debye):
    X=             -1.4273    Y=             -1.1044    Z=              1.0398  Tot=              2.0828
 Quadrupole moment (field-independent basis, Debye-Ang):
   XX=            -58.5744   YY=            -52.2448   ZZ=            -52.5737
   XY=              2.3865   XZ=              3.6978   YZ=              0.3340

  Exact polarizability:  82.756   1.553  74.546  -0.576  -0.951  67.051
 Approx polarizability: 119.991   4.566 109.833  -7.257  -3.142 105.010

                      1                      2                      3
                      A                      A                      A
 Frequencies --    126.8062               161.3918               187.6548
 Red. masses --      4.2604                 2.3075                 2.7073
 Frc consts  --      0.0404                 0.0354                 0.0562
 IR Inten    --     10.8525                34.3841                 0.7322

                      4                      5                      6
                      A                      A                      A
 Frequencies --    217.0334               259.9904               298.1878
 Red. masses --      1.1295                 2.1256                 2.0915
 Frc consts  --      0.0313                 0.0847                 0.1096
 IR Inten    --      0.7019                 3.1202                50.3333

                      7                      8                      9
                      A                      A                      A
 Frequencies --    374.2464               420.7370               440.5284
 Red. masses --      2.9824                 2.3193                 2.3771
 Frc consts  --      0.2461                 0.2419                 0.2718
 IR Inten    --      1.3338                 0.6625                 0.8625

                     10                     11                     12
                      A                      A                      A
 Frequencies --    525.8212               579.9182               671.9544
 Red. masses --      4.5784                 3.2299                 3.5590
 Frc consts  --      0.7458                 0.6400                 0.9468
 IR Inten    --      0.5221                 0.4740                 0.2256

                     13                     14                     15
                      A                      A                      A
 Frequencies --    708.9910               777.5023               836.1617
 Red. masses --      5.3517                 4.4026                 2.8002
 Frc consts  --      1.5850                 1.5681                 1.1535
 IR Inten    --      2.4078                21.1087                35.5417

                     16                     17                     18
                      A                      A                      A
 Frequencies --    845.0067               873.9831               902.8531
 Red. masses --      3.4962                 2.2289                 1.8918
 Frc consts  --      1.4709                 1.0031                 0.9086
 IR Inten    --      6.4641                 1.0374                 2.5522

                     19                     20                     21
                      A                      A                      A
 Frequencies --    944.4281               958.8463              1008.4650
 Red. masses --      1.5295                 2.0409                 2.1630
 Frc consts  --      0.8038                 1.1055                 1.2960
 IR Inten    --      2.5226                 3.9503                11.1893

                     22                     23                     24
                      A                      A                      A
 Frequencies --   1034.7485              1058.4741              1093.2905
 Red. masses --      1.3387                 1.5337                 1.7251
 Frc consts  --      0.8445                 1.0124                 1.2149
 IR Inten    --      2.6432                 8.0762                 0.1635

                     25                     26                     27
                      A                      A                      A
 Frequencies --   1118.3916              1124.6575              1143.5874
 Red. masses --      2.2793                 1.4708                 1.9339
 Frc consts  --      1.6797                 1.0961                 1.4901
 IR Inten    --      8.5315                31.2436                22.5825

                     28                     29                     30
                      A                      A                      A
 Frequencies --   1188.8455              1229.3059              1241.7425
 Red. masses --      1.8586                 1.5554                 1.4657
 Frc consts  --      1.5477                 1.3849                 1.3316
 IR Inten    --     10.0997                 1.0671                 2.9223

                     31                     32                     33
                      A                      A                      A
 Frequencies --   1274.3277              1314.2135              1336.3388
 Red. masses --      1.6962                 1.5198                 1.8606
 Frc consts  --      1.6229                 1.5465                 1.9576
 IR Inten    --     16.5742                15.7545                98.7424

                     34                     35                     36
                      A                      A                      A
 Frequencies --   1362.8877              1407.9004              1410.6489
 Red. masses --      1.6908                 1.7315                 1.2699
 Frc consts  --      1.8504                 2.0222                 1.4888
 IR Inten    --      7.5898                 2.7944                 3.5317

                     37                     38                     39
                      A                      A                      A
 Frequencies --   1484.3400              1497.0996              1499.0991
 Red. masses --      1.0882                 1.0589                 1.0692
 Frc consts  --      1.4126                 1.3983                 1.4157
 IR Inten    --      0.7839                 2.7917                 4.5752

                     40                     41                     42
                      A                      A                      A
 Frequencies --   1508.1847              1886.8798              3035.2968
 Red. masses --      1.0935                12.4298                 1.0357
 Frc consts  --      1.4655                26.0737                 5.6217
 IR Inten    --      6.0286               302.9220                18.2711

                     43                     44                     45
                      A                      A                      A
 Frequencies --   3041.0975              3052.7168              3077.0065
 Red. masses --      1.0842                 1.0610                 1.0556
 Frc consts  --      5.9078                 5.8257                 5.8886
 IR Inten    --     17.1160                30.9268                11.7569

                     46                     47                     48
                      A                      A                      A
 Frequencies --   3100.1822              3103.0129              3114.6722
 Red. masses --      1.1027                 1.1028                 1.1014
 Frc consts  --      6.2445                 6.2564                 6.2955
 IR Inten    --      9.2509                40.8310                23.4888

                     49                     50                     51
                      A                      A                      A
 Frequencies --   3144.0466              3157.8329              3783.0526
 Red. masses --      1.1111                 1.0914                 1.0660
 Frc consts  --      6.4710                 6.4122                 8.9885
 IR Inten    --     14.8108                19.2445                33.5919

 - Thermochemistry -
 -------------------
 Temperature   298.150 Kelvin.  Pressure   1.00000 Atm.
 Atom     1 has atomic number  6 and mass  12.00000

 Molecular mass:   126.06808 amu.
 Principal axes and moments of inertia in atomic units:
                           1         2         3
     Eigenvalues --   734.934681068.214151373.49230
           X            0.99963   0.00941   0.02570
           Y           -0.00939   0.99996  -0.00087
           Z           -0.02571   0.00063   0.99967
 This molecule is an asymmetric top.
 Rotational symmetry number  1.
 Warning -- assumption of classical behavior for rotation
           may cause significant error
 Rotational temperatures (Kelvin)      0.11785     0.08108     0.06306
 Rotational constants (GHZ):           2.45565     1.68949     1.31398
 Zero-point vibrational energy     418360.3 (Joules/Mol)
                                   99.99052 (Kcal/Mol)
 Warning -- explicit consideration of  11 degrees of freedom as
           vibrations may cause significant error
 Vibrational temperatures:    182.45   232.21   269.99   312.26   374.07
          (Kelvin)            429.03   538.46   605.35   633.82   756.54
                              834.37   966.79  1020.08  1118.65  1203.05
                             1215.77  1257.47  1299.00  1358.82  1379.56
                             1450.95  1488.77  1522.91  1573.00  1609.11
                             1618.13  1645.37  1710.48  1768.69  1786.59
                             1833.47  1890.86  1922.69  1960.89  2025.65
                             2029.61  2135.63  2153.99  2156.87  2169.94
                             2714.80  4367.11  4375.46  4392.17  4427.12
                             4460.47  4464.54  4481.31  4523.58  4543.41
                             5442.96

 Zero-point correction=                           0.159345 (Hartree/Particle)
 Thermal correction to Energy=                    0.167738
 Thermal correction to Enthalpy=                  0.168682
 Thermal correction to Gibbs Free Energy=         0.126823
 Sum of electronic and zero-point Energies=           -423.035656
 Sum of electronic and thermal Energies=              -423.027264
 Sum of electronic and thermal Enthalpies=            -423.026319
 Sum of electronic and thermal Free Energies=         -423.068178

                     E (Thermal)             CV                S
                      KCal/Mol        Cal/Mol-Kelvin    Cal/Mol-Kelvin
 Total                  105.257             32.668             88.099
 Electronic               0.000              0.000              0.000
 Translational            0.889              2.981             40.409
 Rotational               0.889              2.981             28.469
 Vibrational            103.480             26.706             19.222
 Vibration     1          0.611              1.926              2.994
 Vibration     2          0.622              1.890              2.533
 Vibration     3          0.632              1.857              2.251
 Vibration     4          0.646              1.815              1.984
 Vibration     5          0.668              1.746              1.662
 Vibration     6          0.691              1.677              1.427
 Vibration     7          0.745              1.525              1.062
 Vibration     8          0.783              1.425              0.889
 Vibration     9          0.800              1.382              0.825
 Vibration    10          0.881              1.193              0.597
 Vibration    11          0.937              1.075              0.486

 Normal termination of Gaussian 09 at Tue Jan 28 03:49:22 2020.
