 Gaussian 09, Revision D.01,
 Gaussian 09:  ES64L-G09RevD.01 24-Apr-2013

 -----------------------------
 # b3lyp 6-31G(2df,p) opt Freq
 -----------------------------

 -----
 titel
 -----
 Symbolic Z-matrix:
 Charge =  0 Multiplicity = 1

 SCF Done:  E(RB3LYP) =  -423.164782055     A.U. after   14 cycles
 SCF Done:  E(RB3LYP) =  -423.164782062     A.U. after    7 cycles
 SCF Done:  E(RB3LYP) =  -423.164779656     A.U. after   11 cycles
 SCF Done:  E(RB3LYP) =  -423.164782116     A.U. after    9 cycles
 SCF Done:  E(RB3LYP) =  -423.164782172     A.U. after   10 cycles
 SCF Done:  E(RB3LYP) =  -423.164782192     A.U. after   10 cycles
 SCF Done:  E(RB3LYP) =  -423.164782306     A.U. after   10 cycles
 SCF Done:  E(RB3LYP) =  -423.164782493     A.U. after   11 cycles
 SCF Done:  E(RB3LYP) =  -423.164782694     A.U. after    9 cycles
 SCF Done:  E(RB3LYP) =  -423.164782574     A.U. after   10 cycles
 SCF Done:  E(RB3LYP) =  -423.164782620     A.U. after    8 cycles
 Optimization completed.
    -- Stationary point found.
 Normal termination of Gaussian 09 at Mon Jan 27 16:11:32 2020.

 ----------------------------------------------------------------------
 #N Geom=AllCheck Guess=TCheck SCRF=Check GenChk RB3LYP/6-31G(2df,p) Fr
 eq
 ----------------------------------------------------------------------

 Structure from the checkpoint file:  "/scratch/puck/g09_b3874e79-2213-434e-b8b8-3fdfdd0499bb/Gau-162535.chk"
 -----
 titel
 -----
 Charge =  0 Multiplicity = 1

                         Standard orientation:
 ---------------------------------------------------------------------
 Center     Atomic      Atomic             Coordinates (Angstroms)
 Number     Number       Type             X           Y           Z
 ---------------------------------------------------------------------
      1          6           0        1.281258   -1.895669    0.245197
      2          6           0        1.617074   -0.521860   -0.327364
      3          8           0        3.016295   -0.274586   -0.296603
      4          6           0        0.856666    0.637238    0.384815
      5          6           0        1.241042    2.009250   -0.208578
      6          6           0       -0.587444    0.447101    0.332740
      7          6           0       -1.783463    0.288317    0.250561
      8          6           0       -3.212005    0.123947    0.193152
      9          8           0       -3.788485   -0.624713   -0.563136
     10          1           0        1.853284   -2.666480   -0.277689
     11          1           0        1.535453   -1.943578    1.312546
     12          1           0        0.216586   -2.119791    0.145200
     13          1           0        1.347254   -0.491073   -1.389525
     14          1           0        3.339983   -0.513506    0.579272
     15          1           0        1.161719    0.621124    1.442736
     16          1           0        0.907621    2.083920   -1.247875
     17          1           0        0.780168    2.822149    0.357469
     18          1           0        2.326366    2.118414   -0.184198
     19          1           0       -3.769687    0.753263    0.916836
 ---------------------------------------------------------------------

 SCF Done:  E(RB3LYP) =  -423.164782620     A.U. after    2 cycles

 The electronic state is 1-A.
 Alpha  occ. eigenvalues --  -19.14904 -19.14201 -10.28796 -10.24871 -10.22599
 Alpha  occ. eigenvalues --  -10.21106 -10.19200 -10.18901 -10.18609  -1.04768
 Alpha  occ. eigenvalues --   -1.03255  -0.83096  -0.76420  -0.74243  -0.67098
 Alpha  occ. eigenvalues --   -0.64594  -0.61510  -0.52152  -0.50270  -0.49338
 Alpha  occ. eigenvalues --   -0.46333  -0.44584  -0.44183  -0.42694  -0.40363
 Alpha  occ. eigenvalues --   -0.39438  -0.38118  -0.37360  -0.36314  -0.33412
 Alpha  occ. eigenvalues --   -0.30343  -0.28339  -0.26868  -0.26425
 Alpha virt. eigenvalues --   -0.06021   0.02912   0.06195   0.09942   0.10986
 Alpha virt. eigenvalues --    0.11855   0.12604   0.13477   0.15468   0.15936
 Alpha virt. eigenvalues --    0.16923   0.17292   0.18143   0.20904   0.22073

 Mulliken charges:
               1
     1  C   -0.422209
     2  C    0.143966
     3  O   -0.422292
     4  C   -0.185791
     5  C   -0.392121
     6  C    0.126764
     7  C    0.001089
     8  C    0.019718
     9  O   -0.231174
    10  H    0.130298
    11  H    0.106808
    12  H    0.146184
    13  H    0.104894
    14  H    0.280399
    15  H    0.101743
    16  H    0.131239
    17  H    0.123933
    18  H    0.139350
    19  H    0.097203
 Sum of Mulliken charges =   0.00000

 Dipole moment (field-independent basis, Debye):
    X=              2.4773    Y=              0.9070    Z=              2.4329  Tot=              3.5887
 Quadrupole moment (field-independent basis, Debye-Ang):
   XX=            -63.0484   YY=            -52.3428   ZZ=            -52.4354
   XY=             -5.8042   XZ=              0.0127   YZ=             -0.9871

  Exact polarizability: 118.494   5.708  72.564   3.138   2.978  61.412
 Approx polarizability: 177.102  17.785  99.072  13.328   8.974  97.953

                      1                      2                      3
                      A                      A                      A
 Frequencies --     15.1185                65.2208                72.7411
 Red. masses --      3.6514                 5.1605                 3.4206
 Frc consts  --      0.0005                 0.0129                 0.0107
 IR Inten    --      8.0603                 0.5817                 1.7804

                      4                      5                      6
                      A                      A                      A
 Frequencies --    127.2912               202.8506               221.9169
 Red. masses --      3.3165                 2.9704                 1.2069
 Frc consts  --      0.0317                 0.0720                 0.0350
 IR Inten    --      3.3885                 2.5225                 0.3240

                      7                      8                      9
                      A                      A                      A
 Frequencies --    238.9695               265.4506               281.9969
 Red. masses --      1.2215                 2.6386                 2.7330
 Frc consts  --      0.0411                 0.1095                 0.1281
 IR Inten    --      2.6998                 2.9852                 9.7541

                     10                     11                     12
                      A                      A                      A
 Frequencies --    299.8110               369.6100               386.3772
 Red. masses --      1.0938                 4.4248                 4.0598
 Frc consts  --      0.0579                 0.3561                 0.3571
 IR Inten    --     80.8702                10.7612                 3.1478

                     13                     14                     15
                      A                      A                      A
 Frequencies --    447.4632               493.1505               567.6836
 Red. masses --      3.3918                 3.1429                 5.1714
 Frc consts  --      0.4001                 0.4503                 0.9819
 IR Inten    --      4.3820                12.2250                 0.1532

                     16                     17                     18
                      A                      A                      A
 Frequencies --    642.6927               795.0542               832.4090
 Red. masses --      6.1008                 2.5231                 2.6465
 Frc consts  --      1.4847                 0.9397                 1.0804
 IR Inten    --      3.7485                26.1174                39.6810

                     19                     20                     21
                      A                      A                      A
 Frequencies --    919.4030               979.8051              1007.8840
 Red. masses --      2.2542                 1.3012                 2.1201
 Frc consts  --      1.1227                 0.7360                 1.2689
 IR Inten    --     40.1071                 5.2815                12.2489

                     22                     23                     24
                      A                      A                      A
 Frequencies --   1022.4298              1072.3940              1082.9580
 Red. masses --      1.7700                 1.8315                 1.9781
 Frc consts  --      1.0902                 1.2410                 1.3668
 IR Inten    --      0.6961                 9.3013                71.4225

                     25                     26                     27
                      A                      A                      A
 Frequencies --   1119.6579              1147.0701              1187.5960
 Red. masses --      2.8786                 2.7262                 2.0431
 Frc consts  --      2.1262                 2.1134                 1.6978
 IR Inten    --      7.1389               120.6098                 0.6249

                     28                     29                     30
                      A                      A                      A
 Frequencies --   1252.2327              1310.8090              1329.8745
 Red. masses --      1.4063                 1.3618                 1.5199
 Frc consts  --      1.2993                 1.3786                 1.5837
 IR Inten    --      3.4396                 1.0676                29.9826

                     31                     32                     33
                      A                      A                      A
 Frequencies --   1368.8106              1400.6880              1405.1283
 Red. masses --      1.3417                 1.2054                 1.2301
 Frc consts  --      1.4811                 1.3933                 1.4309
 IR Inten    --      6.7978                 3.3907                12.4935

                     34                     35                     36
                      A                      A                      A
 Frequencies --   1420.6441              1423.0182              1491.3051
 Red. masses --      1.2363                 1.1961                 1.0481
 Frc consts  --      1.4701                 1.4271                 1.3734
 IR Inten    --     45.2771                20.0376                 2.1302

                     37                     38                     39
                      A                      A                      A
 Frequencies --   1492.9702              1495.3842              1501.0769
 Red. masses --      1.0504                 1.0483                 1.0516
 Frc consts  --      1.3795                 1.3811                 1.3960
 IR Inten    --      0.4979                12.5853                 3.3234

                     40                     41                     42
                      A                      A                      A
 Frequencies --   1765.3325              2319.5705              2914.4869
 Red. masses --     10.5427                11.9373                 1.0814
 Frc consts  --     19.3578                37.8419                 5.4120
 IR Inten    --    247.6947               191.2603               103.7343

                     43                     44                     45
                      A                      A                      A
 Frequencies --   2987.0212              3022.8358              3049.5824
 Red. masses --      1.0803                 1.0464                 1.0677
 Frc consts  --      5.6792                 5.6337                 5.8505
 IR Inten    --     12.2740                13.6318                10.9918

                     46                     47                     48
                      A                      A                      A
 Frequencies --   3052.5216              3103.1179              3123.5459
 Red. masses --      1.0487                 1.0915                 1.1019
 Frc consts  --      5.7575                 6.1927                 6.3344
 IR Inten    --     30.0084                22.5610                20.1368

                     49                     50                     51
                      A                      A                      A
 Frequencies --   3133.9974              3147.3110              3798.3951
 Red. masses --      1.1021                 1.1022                 1.0659
 Frc consts  --      6.3777                 6.4326                 9.0610
 IR Inten    --     15.1052                 8.7021                21.1145

 - Thermochemistry -
 -------------------
 Temperature   298.150 Kelvin.  Pressure   1.00000 Atm.
 Atom     1 has atomic number  6 and mass  12.00000

 Molecular mass:   126.06808 amu.
 Principal axes and moments of inertia in atomic units:
                           1         2         3
     Eigenvalues --   595.268162437.101682874.86835
           X            0.99997  -0.00735  -0.00197
           Y            0.00732   0.99983  -0.01708
           Z            0.00210   0.01706   0.99985
 This molecule is an asymmetric top.
 Rotational symmetry number  1.
 Warning -- assumption of classical behavior for rotation
           may cause significant error
 Rotational temperatures (Kelvin)      0.14550     0.03554     0.03013
 Rotational constants (GHZ):           3.03181     0.74053     0.62776
 Zero-point vibrational energy     407775.1 (Joules/Mol)
                                   97.46058 (Kcal/Mol)
 Warning -- explicit consideration of  15 degrees of freedom as
           vibrations may cause significant error
 Vibrational temperatures:     21.75    93.84   104.66   183.14   291.86
          (Kelvin)            319.29   343.82   381.92   405.73   431.36
                              531.79   555.91   643.80   709.53   816.77
                              924.69  1143.90  1197.65  1322.81  1409.72
                             1450.12  1471.05  1542.93  1558.13  1610.94
                             1650.38  1708.68  1801.68  1885.96  1913.39
                             1969.41  2015.28  2021.66  2043.99  2047.40
                             2145.65  2148.05  2151.52  2159.71  2539.92
                             3337.34  4193.29  4297.65  4349.18  4387.66
                             4391.89  4464.69  4494.08  4509.12  4528.27
                             5465.04

 Zero-point correction=                           0.155313 (Hartree/Particle)
 Thermal correction to Energy=                    0.166238
 Thermal correction to Enthalpy=                  0.167182
 Thermal correction to Gibbs Free Energy=         0.117306
 Sum of electronic and zero-point Energies=           -423.009469
 Sum of electronic and thermal Energies=              -422.998545
 Sum of electronic and thermal Enthalpies=            -422.997601
 Sum of electronic and thermal Free Energies=         -423.047477

                     E (Thermal)             CV                S
                      KCal/Mol        Cal/Mol-Kelvin    Cal/Mol-Kelvin
 Total                  104.316             37.547            104.973
 Electronic               0.000              0.000              0.000
 Translational            0.889              2.981             40.409
 Rotational               0.889              2.981             29.813
 Vibrational            102.538             31.585             34.752
 Vibration     1          0.593              1.986              7.190
 Vibration     2          0.597              1.971              4.293
 Vibration     3          0.599              1.967              4.078
 Vibration     4          0.611              1.926              2.987
 Vibration     5          0.639              1.836              2.107
 Vibration     6          0.648              1.808              1.943
 Vibration     7          0.657              1.781              1.811
 Vibration     8          0.671              1.736              1.626
 Vibration     9          0.681              1.707              1.522
 Vibration    10          0.692              1.674              1.418
 Vibration    11          0.742              1.535              1.081
 Vibration    12          0.755              1.499              1.014
 Vibration    13          0.807              1.366              0.803
 Vibration    14          0.849              1.265              0.675
 Vibration    15          0.924              1.101              0.509

 Optimization completed on the basis of negligible forces.
    -- Stationary point found.
 Normal termination of Gaussian 09 at Mon Jan 27 16:45:51 2020.
