 Gaussian 09, Revision D.01,
 Gaussian 09:  ES64L-G09RevD.01 24-Apr-2013

 -----------------------------
 # b3lyp 6-31G(2df,p) opt Freq
 -----------------------------

 -----
 titel
 -----
 Symbolic Z-matrix:
 Charge =  0 Multiplicity = 1

 SCF Done:  E(RB3LYP) =  -423.229372383     A.U. after   14 cycles
 Optimization completed.
    -- Stationary point found.
 Normal termination of Gaussian 09 at Tue Jan 28 09:46:28 2020.

 ----------------------------------------------------------------------
 #N Geom=AllCheck Guess=TCheck SCRF=Check GenChk RB3LYP/6-31G(2df,p) Fr
 eq
 ----------------------------------------------------------------------

 Structure from the checkpoint file:  "/scratch/puck/g09_cb71447f-82e2-4914-be97-85ce4977c66b/Gau-106564.chk"
 -----
 titel
 -----
 Charge =  0 Multiplicity = 1

                         Standard orientation:
 ---------------------------------------------------------------------
 Center     Atomic      Atomic             Coordinates (Angstroms)
 Number     Number       Type             X           Y           Z
 ---------------------------------------------------------------------
      1          6           0        2.278187   -1.281299    0.584725
      2          6           0        2.032408   -0.086524   -0.343164
      3          6           0        0.603924    0.386566   -0.342370
      4          6           0        0.174725    1.788505   -0.664327
      5          6           0       -0.069205    1.215598    0.723577
      6          6           0       -1.409595    0.565631    0.972510
      7          6           0       -1.489446   -0.556178   -0.069611
      8          8           0       -2.404559   -1.289793   -0.297011
      9          8           0       -0.314369   -0.618839   -0.765397
     10          1           0        2.051918   -1.027190    1.625700
     11          1           0        1.648842   -2.128464    0.299669
     12          1           0        3.322571   -1.602105    0.536417
     13          1           0        2.665528    0.759473   -0.051992
     14          1           0        2.315536   -0.346423   -1.370597
     15          1           0        0.949472    2.541801   -0.757370
     16          1           0       -0.671946    1.921745   -1.330973
     17          1           0        0.496808    1.613082    1.557402
     18          1           0       -1.479496    0.117777    1.969094
     19          1           0       -2.273802    1.225562    0.853878
 ---------------------------------------------------------------------

 SCF Done:  E(RB3LYP) =  -423.229372383     A.U. after    1 cycles

 The electronic state is 1-A.
 Alpha  occ. eigenvalues --  -19.18188 -19.12201 -10.30432 -10.25586 -10.20906
 Alpha  occ. eigenvalues --  -10.20760 -10.20025 -10.19774 -10.18101  -1.10170
 Alpha  occ. eigenvalues --   -1.02378  -0.87249  -0.78718  -0.74694  -0.65545
 Alpha  occ. eigenvalues --   -0.61436  -0.60185  -0.55901  -0.50631  -0.47954
 Alpha  occ. eigenvalues --   -0.45834  -0.44851  -0.44626  -0.43028  -0.41733
 Alpha  occ. eigenvalues --   -0.39109  -0.38304  -0.37718  -0.36195  -0.35595
 Alpha  occ. eigenvalues --   -0.32985  -0.29641  -0.26806  -0.26614
 Alpha virt. eigenvalues --    0.01172   0.07406   0.10252   0.10460   0.11418
 Alpha virt. eigenvalues --    0.12473   0.13614   0.15278   0.15724   0.16877
 Alpha virt. eigenvalues --    0.17929   0.18470   0.19314   0.20714   0.22051

 Mulliken charges:
               1
     1  C   -0.385380
     2  C   -0.264574
     3  C    0.442224
     4  C   -0.356966
     5  C   -0.111177
     6  C   -0.374310
     7  C    0.404379
     8  O   -0.327497
     9  O   -0.253123
    10  H    0.113938
    11  H    0.140296
    12  H    0.116883
    13  H    0.102899
    14  H    0.116951
    15  H    0.121731
    16  H    0.126120
    17  H    0.101749
    18  H    0.142706
    19  H    0.143150
 Sum of Mulliken charges =   0.00000

 Dipole moment (field-independent basis, Debye):
    X=              2.6534    Y=              2.8036    Z=              1.5243  Tot=              4.1502
 Quadrupole moment (field-independent basis, Debye-Ang):
   XX=            -56.8595   YY=            -54.9418   ZZ=            -52.2584
   XY=             -4.9522   XZ=             -2.1133   YZ=             -1.6151

  Exact polarizability:  84.980   2.870  73.998  -2.645  -0.839  65.991
 Approx polarizability: 117.287   9.288 107.530  -3.787   2.221 101.626

                      1                      2                      3
                      A                      A                      A
 Frequencies --     84.1961               110.1739               159.5671
 Red. masses --      2.7694                 3.7509                 2.1603
 Frc consts  --      0.0116                 0.0268                 0.0324
 IR Inten    --      2.0287                 0.0805                 1.3745

                      4                      5                      6
                      A                      A                      A
 Frequencies --    207.2771               288.8319               316.2844
 Red. masses --      1.3307                 2.6919                 2.1928
 Frc consts  --      0.0337                 0.1323                 0.1292
 IR Inten    --      0.3589                 1.9587                 0.3190

                      7                      8                      9
                      A                      A                      A
 Frequencies --    409.5112               489.5759               505.6114
 Red. masses --      2.2363                 4.7172                 3.1113
 Frc consts  --      0.2210                 0.6662                 0.4686
 IR Inten    --      0.1953                 2.5437                 0.4320

                     10                     11                     12
                      A                      A                      A
 Frequencies --    561.7393               583.5745               666.8533
 Red. masses --      2.7474                 4.1498                 4.1502
 Frc consts  --      0.5108                 0.8327                 1.0874
 IR Inten    --      3.4755                 3.2804                 7.5085

                     13                     14                     15
                      A                      A                      A
 Frequencies --    742.0269               780.6306               839.3916
 Red. masses --      3.3643                 1.4270                 1.6661
 Frc consts  --      1.0914                 0.5123                 0.6916
 IR Inten    --      2.0250                 5.4979                 8.8124

                     16                     17                     18
                      A                      A                      A
 Frequencies --    849.5374               888.3330               927.7883
 Red. masses --      3.2830                 1.6157                 2.2159
 Frc consts  --      1.3960                 0.7512                 1.1238
 IR Inten    --      7.6006                 8.3875                 1.8312

                     19                     20                     21
                      A                      A                      A
 Frequencies --    960.3572              1002.5163              1026.8209
 Red. masses --      2.6587                 1.8418                 2.4973
 Frc consts  --      1.4447                 1.0907                 1.5513
 IR Inten    --     33.2387                11.3146                20.1726

                     22                     23                     24
                      A                      A                      A
 Frequencies --   1045.0374              1067.8246              1076.1932
 Red. masses --      1.3905                 1.6478                 1.4774
 Frc consts  --      0.8947                 1.1070                 1.0082
 IR Inten    --     24.6089                10.6353                22.2135

                     25                     26                     27
                      A                      A                      A
 Frequencies --   1099.4261              1119.1099              1162.9968
 Red. masses --      2.3293                 1.8075                 3.8837
 Frc consts  --      1.6589                 1.3337                 3.0950
 IR Inten    --      5.6029                16.3772               190.4182

                     28                     29                     30
                      A                      A                      A
 Frequencies --   1197.7781              1238.8659              1270.6470
 Red. masses --      1.2525                 2.6571                 1.6696
 Frc consts  --      1.0587                 2.4028                 1.5882
 IR Inten    --      2.7563                27.3789                15.6011

                     31                     32                     33
                      A                      A                      A
 Frequencies --   1297.3078              1336.1373              1357.3767
 Red. masses --      1.6396                 1.5682                 1.4635
 Frc consts  --      1.6259                 1.6495                 1.5887
 IR Inten    --     33.1200                 6.7106                 5.7259

                     34                     35                     36
                      A                      A                      A
 Frequencies --   1409.1019              1421.2598              1462.0360
 Red. masses --      1.2419                 1.9402                 1.1138
 Frc consts  --      1.4528                 2.3091                 1.4027
 IR Inten    --      2.5079                 1.6421                 4.0738

                     37                     38                     39
                      A                      A                      A
 Frequencies --   1476.1720              1487.8802              1497.4919
 Red. masses --      1.0796                 1.4495                 1.0611
 Frc consts  --      1.3861                 1.8907                 1.4019
 IR Inten    --      1.2547                12.1328                 4.3317

                     40                     41                     42
                      A                      A                      A
 Frequencies --   1510.2540              1886.0557              3032.1712
 Red. masses --      1.0883                12.9803                 1.0607
 Frc consts  --      1.4626                27.2046                 5.7459
 IR Inten    --      5.7099               381.3718                19.6436

                     43                     44                     45
                      A                      A                      A
 Frequencies --   3041.2255              3060.2137              3068.7583
 Red. masses --      1.0366                 1.0605                 1.1003
 Frc consts  --      5.6487                 5.8514                 6.1052
 IR Inten    --     22.4605                12.5755                11.1616

                     46                     47                     48
                      A                      A                      A
 Frequencies --   3099.5030              3108.9486              3124.3140
 Red. masses --      1.1027                 1.1009                 1.1009
 Frc consts  --      6.2413                 6.2697                 6.3317
 IR Inten    --      5.4674                33.5422                20.0351

                     49                     50                     51
                      A                      A                      A
 Frequencies --   3126.6615              3182.1881              3217.7403
 Red. masses --      1.0556                 1.0920                 1.1163
 Frc consts  --      6.0800                 6.5153                 6.8099
 IR Inten    --      7.6357                 6.5803                 6.5509

 - Thermochemistry -
 -------------------
 Temperature   298.150 Kelvin.  Pressure   1.00000 Atm.
 Atom     1 has atomic number  6 and mass  12.00000

 Molecular mass:   126.06808 amu.
 Principal axes and moments of inertia in atomic units:
                           1         2         3
     Eigenvalues --   698.201871270.588441576.94931
           X            0.99784  -0.06554  -0.00390
           Y            0.06535   0.99714  -0.03787
           Z            0.00638   0.03753   0.99928
 This molecule is an asymmetric top.
 Rotational symmetry number  1.
 Warning -- assumption of classical behavior for rotation
           may cause significant error
 Rotational temperatures (Kelvin)      0.12405     0.06817     0.05492
 Rotational constants (GHZ):           2.58484     1.42040     1.14445
 Zero-point vibrational energy     417982.8 (Joules/Mol)
                                   99.90030 (Kcal/Mol)
 Warning -- explicit consideration of  11 degrees of freedom as
           vibrations may cause significant error
 Vibrational temperatures:    121.14   158.52   229.58   298.23   415.56
          (Kelvin)            455.06   589.19   704.39   727.46   808.22
                              839.63   959.45  1067.61  1123.15  1207.70
                             1222.29  1278.11  1334.88  1381.74  1442.40
                             1477.36  1503.57  1536.36  1548.40  1581.83
                             1610.15  1673.29  1723.33  1782.45  1828.18
                             1866.53  1922.40  1952.96  2027.38  2044.87
                             2103.54  2123.88  2140.73  2154.55  2172.92
                             2713.61  4362.61  4375.64  4402.96  4415.25
                             4459.49  4473.08  4495.19  4498.56  4578.45
                             4629.60

 Zero-point correction=                           0.159201 (Hartree/Particle)
 Thermal correction to Energy=                    0.167556
 Thermal correction to Enthalpy=                  0.168500
 Thermal correction to Gibbs Free Energy=         0.126079
 Sum of electronic and zero-point Energies=           -423.070171
 Sum of electronic and thermal Energies=              -423.061816
 Sum of electronic and thermal Enthalpies=            -423.060872
 Sum of electronic and thermal Free Energies=         -423.103293

                     E (Thermal)             CV                S
                      KCal/Mol        Cal/Mol-Kelvin    Cal/Mol-Kelvin
 Total                  105.143             31.958             89.283
 Electronic               0.000              0.000              0.000
 Translational            0.889              2.981             40.409
 Rotational               0.889              2.981             28.727
 Vibrational            103.366             25.996             20.147
 Vibration     1          0.601              1.960              3.791
 Vibration     2          0.606              1.941              3.266
 Vibration     3          0.621              1.892              2.555
 Vibration     4          0.641              1.829              2.068
 Vibration     5          0.685              1.694              1.481
 Vibration     6          0.703              1.643              1.329
 Vibration     7          0.774              1.450              0.928
 Vibration     8          0.845              1.273              0.685
 Vibration     9          0.861              1.238              0.644
 Vibration    10          0.917              1.114              0.520
 Vibration    11          0.940              1.067              0.479

 Normal termination of Gaussian 09 at Tue Jan 28 10:28:37 2020.
