 Gaussian 09, Revision D.01,
 Gaussian 09:  ES64L-G09RevD.01 24-Apr-2013

 -----------------------------
 # b3lyp 6-31G(2df,p) opt Freq
 -----------------------------

 -----
 titel
 -----
 Symbolic Z-matrix:
 Charge =  0 Multiplicity = 1

 SCF Done:  E(RB3LYP) =  -423.170197182     A.U. after   14 cycles
 Optimization completed.
    -- Stationary point found.
 Normal termination of Gaussian 09 at Tue Jan 28 09:15:54 2020.

 ----------------------------------------------------------------------
 #N Geom=AllCheck Guess=TCheck SCRF=Check GenChk RB3LYP/6-31G(2df,p) Fr
 eq
 ----------------------------------------------------------------------

 Structure from the checkpoint file:  "/scratch/puck/g09_99b923a6-a200-417d-adcc-fef67cf4ebf6/Gau-57770.chk"
 -----
 titel
 -----
 Charge =  0 Multiplicity = 1

                         Standard orientation:
 ---------------------------------------------------------------------
 Center     Atomic      Atomic             Coordinates (Angstroms)
 Number     Number       Type             X           Y           Z
 ---------------------------------------------------------------------
      1          8           0        2.616077    0.527208   -0.534654
      2          6           0        1.957702   -0.293232    0.413850
      3          6           0        0.457991   -0.155763    0.300161
      4          6           0       -0.501056   -1.159738    0.985896
      5          6           0       -1.266843   -0.996154   -0.345375
      6          6           0       -2.171075    0.245767   -0.342658
      7          6           0       -1.370545    1.431411    0.156722
      8          6           0       -0.088728    1.251544    0.472243
      9          8           0       -0.013705   -0.652527   -1.007201
     10          1           0        2.235739    0.309521   -1.393926
     11          1           0        2.231580   -1.352468    0.294634
     12          1           0        2.291890    0.035154    1.404833
     13          1           0       -0.061299   -2.155722    1.074198
     14          1           0       -0.981628   -0.857743    1.917547
     15          1           0       -1.742044   -1.872239   -0.794163
     16          1           0       -2.546732    0.436513   -1.356576
     17          1           0       -3.054045    0.071970    0.287476
     18          1           0       -1.857040    2.399648    0.229902
     19          1           0        0.559930    2.044917    0.825873
 ---------------------------------------------------------------------

 SCF Done:  E(RB3LYP) =  -423.170197182     A.U. after    1 cycles

 The electronic state is 1-A.
 Alpha  occ. eigenvalues --  -19.13324 -19.13047 -10.23962 -10.23897 -10.22561
 Alpha  occ. eigenvalues --  -10.19003 -10.18832 -10.18560 -10.17851  -1.04265
 Alpha  occ. eigenvalues --   -1.01191  -0.80768  -0.75864  -0.73356  -0.68075
 Alpha  occ. eigenvalues --   -0.60188  -0.59143  -0.52513  -0.51102  -0.47640
 Alpha  occ. eigenvalues --   -0.46201  -0.45529  -0.43653  -0.41311  -0.39841
 Alpha  occ. eigenvalues --   -0.39658  -0.38153  -0.35680  -0.35102  -0.31949
 Alpha  occ. eigenvalues --   -0.30200  -0.26817  -0.25210  -0.23750
 Alpha virt. eigenvalues --    0.00514   0.08413   0.09709   0.11508   0.13007
 Alpha virt. eigenvalues --    0.13188   0.14239   0.14870   0.15882   0.16948
 Alpha virt. eigenvalues --    0.17997   0.18470   0.19457   0.20584   0.20870

 Mulliken charges:
               1
     1  O   -0.420318
     2  C   -0.158903
     3  C    0.350380
     4  C   -0.295828
     5  C    0.088343
     6  C   -0.262281
     7  C   -0.080252
     8  C   -0.077886
     9  O   -0.344071
    10  H    0.297610
    11  H    0.090018
    12  H    0.108606
    13  H    0.104672
    14  H    0.102342
    15  H    0.076533
    16  H    0.116450
    17  H    0.107343
    18  H    0.095299
    19  H    0.101941
 Sum of Mulliken charges =   0.00000

 Dipole moment (field-independent basis, Debye):
    X=             -1.9271    Y=             -0.7335    Z=              1.0053  Tot=              2.2940
 Quadrupole moment (field-independent basis, Debye-Ang):
   XX=            -54.7076   YY=            -52.0543   ZZ=            -52.3947
   XY=             -1.8919   XZ=              1.0375   YZ=             -0.3382

  Exact polarizability:  89.345  -1.318  73.793   5.697   0.203  62.747
 Approx polarizability: 129.883  -0.376 104.762   7.910   1.536 100.198

                      1                      2                      3
                      A                      A                      A
 Frequencies --     86.7764               151.2200               254.7721
 Red. masses --      3.7198                 4.2466                 2.1023
 Frc consts  --      0.0165                 0.0572                 0.0804
 IR Inten    --      4.5073                 0.0846                 0.6479

                      4                      5                      6
                      A                      A                      A
 Frequencies --    295.2698               353.2096               406.7045
 Red. masses --      2.0860                 2.9076                 1.5879
 Frc consts  --      0.1072                 0.2137                 0.1547
 IR Inten    --      6.4188                 2.5031                49.2606

                      7                      8                      9
                      A                      A                      A
 Frequencies --    420.0367               472.6182               511.9677
 Red. masses --      1.8051                 3.1725                 2.4570
 Frc consts  --      0.1876                 0.4175                 0.3794
 IR Inten    --     77.3167                 4.9116                 9.5560

                     10                     11                     12
                      A                      A                      A
 Frequencies --    543.9085               675.3697               710.9879
 Red. masses --      4.2379                 2.1188                 2.6252
 Frc consts  --      0.7387                 0.5694                 0.7819
 IR Inten    --      6.4534                 9.7374                 7.5890

                     13                     14                     15
                      A                      A                      A
 Frequencies --    731.5693               831.8748               866.7409
 Red. masses --      3.2321                 2.7320                 2.3281
 Frc consts  --      1.0192                 1.1139                 1.0304
 IR Inten    --     17.6421                 2.9939                27.7345

                     16                     17                     18
                      A                      A                      A
 Frequencies --    877.7035               931.8894               932.9831
 Red. masses --      3.5135                 3.2456                 2.2665
 Frc consts  --      1.5947                 1.6606                 1.1624
 IR Inten    --     27.0850                 8.4533                11.8648

                     19                     20                     21
                      A                      A                      A
 Frequencies --    963.2516               984.2623              1003.5023
 Red. masses --      1.4506                 2.0794                 1.5885
 Frc consts  --      0.7930                 1.1869                 0.9425
 IR Inten    --     16.2732                36.2369                 9.5684

                     22                     23                     24
                      A                      A                      A
 Frequencies --   1023.7494              1036.4947              1073.1633
 Red. masses --      2.0886                 2.8050                 4.1669
 Frc consts  --      1.2897                 1.7755                 2.8274
 IR Inten    --     10.7415                 2.8958                68.1755

                     25                     26                     27
                      A                      A                      A
 Frequencies --   1090.1371              1152.6698              1175.4730
 Red. masses --      1.3913                 1.1976                 1.1949
 Frc consts  --      0.9742                 0.9375                 0.9728
 IR Inten    --      3.6241                 1.8353                12.5504

                     28                     29                     30
                      A                      A                      A
 Frequencies --   1183.9574              1224.2060              1253.8851
 Red. masses --      1.3317                 1.7268                 1.5400
 Frc consts  --      1.0999                 1.5248                 1.4265
 IR Inten    --      0.8762                 5.1544                 4.4859

                     31                     32                     33
                      A                      A                      A
 Frequencies --   1280.2100              1306.7840              1321.3033
 Red. masses --      2.1916                 1.4961                 1.8362
 Frc consts  --      2.1163                 1.5053                 1.8888
 IR Inten    --     19.2651                 6.5761                11.9875

                     34                     35                     36
                      A                      A                      A
 Frequencies --   1359.3093              1386.0465              1402.2189
 Red. masses --      1.4461                 1.3211                 1.5919
 Frc consts  --      1.5743                 1.4954                 1.8441
 IR Inten    --      4.4882                 5.5635                 4.5523

                     37                     38                     39
                      A                      A                      A
 Frequencies --   1432.9697              1462.4439              1485.3885
 Red. masses --      1.3641                 1.0985                 1.1408
 Frc consts  --      1.6503                 1.3843                 1.4830
 IR Inten    --     56.2134                 3.0709                 1.8614

                     40                     41                     42
                      A                      A                      A
 Frequencies --   1493.4540              1695.7368              2991.5833
 Red. masses --      1.0934                 6.6972                 1.0667
 Frc consts  --      1.4369                11.3464                 5.6248
 IR Inten    --      1.3022                 5.3902                49.7235

                     43                     44                     45
                      A                      A                      A
 Frequencies --   3014.8030              3045.1706              3066.6975
 Red. masses --      1.0596                 1.1012                 1.0695
 Frc consts  --      5.6743                 6.0167                 5.9263
 IR Inten    --     28.3064                16.7820                45.8969

                     46                     47                     48
                      A                      A                      A
 Frequencies --   3066.8281              3079.6385              3135.2550
 Red. masses --      1.0878                 1.0844                 1.1098
 Frc consts  --      6.0280                 6.0595                 6.4275
 IR Inten    --     10.2316                61.5266                23.1121

                     49                     50                     51
                      A                      A                      A
 Frequencies --   3166.6852              3200.0955              3796.0964
 Red. masses --      1.0865                 1.0984                 1.0659
 Frc consts  --      6.4196                 6.6276                 9.0494
 IR Inten    --     11.7786                14.0434                25.2932

 - Thermochemistry -
 -------------------
 Temperature   298.150 Kelvin.  Pressure   1.00000 Atm.
 Atom     1 has atomic number  8 and mass  15.99491

 Molecular mass:   126.06808 amu.
 Principal axes and moments of inertia in atomic units:
                           1         2         3
     Eigenvalues --   569.074281257.221221444.19712
           X            0.99985  -0.01307   0.01144
           Y            0.01342   0.99943  -0.03091
           Z           -0.01103   0.03106   0.99946
 This molecule is an asymmetric top.
 Rotational symmetry number  1.
 Warning -- assumption of classical behavior for rotation
           may cause significant error
 Rotational temperatures (Kelvin)      0.15220     0.06889     0.05997
 Rotational constants (GHZ):           3.17136     1.43550     1.24965
 Zero-point vibrational energy     421139.8 (Joules/Mol)
                                  100.65482 (Kcal/Mol)
 Warning -- explicit consideration of  10 degrees of freedom as
           vibrations may cause significant error
 Vibrational temperatures:    124.85   217.57   366.56   424.83   508.19
          (Kelvin)            585.16   604.34   679.99   736.61   782.56
                              971.71  1022.95  1052.56  1196.88  1247.05
                             1262.82  1340.78  1342.35  1385.90  1416.13
                             1443.81  1472.95  1491.28  1544.04  1568.46
                             1658.43  1691.24  1703.45  1761.36  1804.06
                             1841.93  1880.17  1901.06  1955.74  1994.21
                             2017.48  2061.72  2104.13  2137.14  2148.74
                             2439.78  4304.22  4337.62  4381.32  4412.29
                             4412.48  4430.91  4510.93  4556.15  4604.22
                             5461.73

 Zero-point correction=                           0.160404 (Hartree/Particle)
 Thermal correction to Energy=                    0.168170
 Thermal correction to Enthalpy=                  0.169114
 Thermal correction to Gibbs Free Energy=         0.128294
 Sum of electronic and zero-point Energies=           -423.009794
 Sum of electronic and thermal Energies=              -423.002027
 Sum of electronic and thermal Enthalpies=            -423.001083
 Sum of electronic and thermal Free Energies=         -423.041903

                     E (Thermal)             CV                S
                      KCal/Mol        Cal/Mol-Kelvin    Cal/Mol-Kelvin
 Total                  105.528             31.104             85.913
 Electronic               0.000              0.000              0.000
 Translational            0.889              2.981             40.409
 Rotational               0.889              2.981             28.426
 Vibrational            103.751             25.143             17.078
 Vibration     1          0.601              1.958              3.731
 Vibration     2          0.619              1.901              2.657
 Vibration     3          0.665              1.755              1.697
 Vibration     4          0.689              1.683              1.444
 Vibration     5          0.729              1.569              1.152
 Vibration     6          0.771              1.456              0.938
 Vibration     7          0.783              1.427              0.892
 Vibration     8          0.829              1.311              0.730
 Vibration     9          0.867              1.223              0.629
 Vibration    10          0.899              1.153              0.557

 Optimization completed.
    -- Stationary point found.
 Normal termination of Gaussian 09 at Tue Jan 28 10:04:13 2020.
